PROCAR new format
# of k-points:   10         # of bands:  252         # of ions:   37

 k-point     1 :    0.00000000 0.00000000 0.00000000     weight = 0.01562500

band     1 # energy  -13.53190068 # occ.  2.00000000
 
ion      s      p      d    tot
    1  0.000  0.000  0.000  0.000
    2  0.000  0.000  0.000  0.000
    3  0.000  0.000  0.000  0.000
    4  0.000  0.000  0.000  0.000
    5  0.000  0.000  0.000  0.000
    6  0.000  0.000  0.000  0.000
    7  0.000  0.000  0.000  0.000
    8  0.000  0.000  0.000  0.000
    9  0.000  0.000  0.000  0.000
   10  0.000  0.000  0.000  0.000
   11  0.000  0.000  0.000  0.000
   12  0.000  0.000  0.000  0.000
   13  0.000  0.000  0.000  0.000
   14  0.000  0.000  0.000  0.000
   15  0.000  0.000  0.000  0.000
   16  0.000  0.000  0.000  0.000
   17  0.000  0.000  0.000  0.000
   18  0.000  0.000  0.000  0.000
   19  0.000  0.000  0.000  0.000
   20  0.000  0.000  0.000  0.000
   21  0.000  0.000  0.000  0.000
   22  0.000  0.000  0.000  0.000
   23  0.000  0.000  0.000  0.000
   24  0.000  0.000  0.000  0.000
   25  0.000  0.000  0.000  0.000
   26  0.000  0.000  0.000  0.000
   27  0.000  0.000  0.000  0.000
   28  0.000  0.000  0.000  0.000
   29  0.000  0.000  0.000  0.000
   30  0.000  0.000  0.000  0.000
   31  0.000  0.000  0.000  0.000
   32  0.000  0.000  0.000  0.000
   33  0.000  0.000  0.000  0.000
   34  0.000  0.000  0.000  0.000
   35  0.000  0.000  0.000  0.000
   36  0.054  0.076  0.173  0.302
   37  0.618  0.024  0.000  0.641
tot    0.672  0.100  0.174  0.946
 
band     2 # energy   -6.28792951 # occ.  2.00000000
 
ion      s      p      d    tot
    1  0.006  0.001  0.000  0.006
    2  0.006  0.001  0.000  0.006
    3  0.006  0.001  0.000  0.006
    4  0.006  0.001  0.000  0.006
    5  0.006  0.001  0.000  0.006
    6  0.006  0.001  0.000  0.006
    7  0.006  0.001  0.000  0.006
    8  0.006  0.001  0.000  0.006
    9  0.006  0.001  0.000  0.006
   10  0.023  0.000  0.000  0.023
   11  0.023  0.000  0.000  0.024
   12  0.023  0.000  0.000  0.023
   13  0.023  0.000  0.000  0.024
   14  0.023  0.000  0.000  0.024
   15  0.023  0.000  0.000  0.023
   16  0.023  0.000  0.000  0.023
   17  0.023  0.000  0.000  0.023
   18  0.023  0.000  0.000  0.023
   19  0.023  0.000  0.000  0.023
   20  0.025  0.000  0.000  0.026
   21  0.025  0.000  0.000  0.026
   22  0.024  0.000  0.000  0.024
   23  0.025  0.000  0.000  0.026
   24  0.024  0.000  0.000  0.024
   25  0.023  0.000  0.000  0.023
   26  0.023  0.000  0.000  0.023
   27  0.024  0.000  0.000  0.024
   28  0.006  0.001  0.000  0.006
   29  0.006  0.001  0.000  0.006
   30  0.006  0.001  0.000  0.006
   31  0.006  0.001  0.000  0.006
   32  0.006  0.001  0.000  0.006
   33  0.006  0.001  0.000  0.006
   34  0.006  0.001  0.000  0.006
   35  0.006  0.001  0.000  0.006
   36  0.006  0.002  0.000  0.008
   37  0.001  0.000  0.000  0.001
tot    0.525  0.014  0.007  0.546
 
band     3 # energy   -5.41449844 # occ.  2.00000000
 
ion      s      p      d    tot
    1  0.008  0.000  0.000  0.009
    2  0.008  0.000  0.000  0.009
    3  0.008  0.000  0.000  0.009
    4  0.008  0.000  0.000  0.009
    5  0.008  0.000  0.000  0.009
    6  0.008  0.000  0.000  0.009
    7  0.008  0.000  0.000  0.009
    8  0.008  0.000  0.000  0.009
    9  0.008  0.000  0.000  0.009
   10  0.011  0.001  0.015  0.028
   11  0.011  0.001  0.015  0.028
   12  0.011  0.001  0.015  0.028
   13  0.011  0.001  0.015  0.028
   14  0.011  0.001  0.015  0.028
   15  0.011  0.001  0.014  0.027
   16  0.011  0.001  0.015  0.028
   17  0.011  0.001  0.014  0.027
   18  0.011  0.001  0.014  0.027
   19  0.011  0.001  0.017  0.029
   20  0.013  0.001  0.020  0.034
   21  0.013  0.001  0.020  0.034
   22  0.012  0.001  0.017  0.029
   23  0.013  0.001  0.020  0.034
   24  0.012  0.001  0.017  0.029
   25  0.011  0.001  0.017  0.029
   26  0.011  0.001  0.017  0.029
   27  0.012  0.001  0.017  0.029
   28  0.006  0.000  0.000  0.007
   29  0.006  0.000  0.000  0.006
   30  0.006  0.000  0.000  0.006
   31  0.006  0.000  0.000  0.006
   32  0.006  0.000  0.000  0.006
   33  0.006  0.000  0.000  0.006
   34  0.006  0.000  0.000  0.006
   35  0.006  0.000  0.000  0.006
   36  0.006  0.001  0.000  0.007
   37  0.001  0.000  0.000  0.001
tot    0.334  0.026  0.301  0.661
 
band     4 # energy   -5.16758937 # occ.  2.00000000
 
ion      s      p      d    tot
    1  0.011  0.000  0.008  0.018
    2  0.007  0.000  0.009  0.015
    3  0.007  0.000  0.009  0.015
    4  0.007  0.000  0.009  0.015
    5  0.005  0.000  0.008  0.013
    6  0.007  0.000  0.009  0.015
    7  0.007  0.000  0.009  0.015
    8  0.007  0.000  0.009  0.015
    9  0.006  0.000  0.008  0.014
   10  0.000  0.000  0.018  0.018
   11  0.000  0.000  0.005  0.006
   12  0.000  0.000  0.018  0.018
   13  0.000  0.000  0.005  0.006
   14  0.000  0.000  0.005  0.006
   15  0.000  0.000  0.004  0.005
   16  0.000  0.000  0.018  0.018
   17  0.000  0.000  0.004  0.005
   18  0.000  0.000  0.004  0.005
   19  0.000  0.001  0.019  0.020
   20  0.002  0.000  0.048  0.051
   21  0.002  0.000  0.048  0.051
   22  0.002  0.000  0.009  0.011
   23  0.002  0.000  0.048  0.051
   24  0.002  0.000  0.009  0.011
   25  0.000  0.001  0.019  0.020
   26  0.000  0.001  0.019  0.020
   27  0.002  0.000  0.009  0.011
   28  0.010  0.000  0.009  0.019
   29  0.012  0.000  0.014  0.026
   30  0.012  0.000  0.014  0.026
   31  0.012  0.000  0.014  0.026
   32  0.012  0.000  0.014  0.026
   33  0.012  0.000  0.014  0.026
   34  0.012  0.000  0.014  0.026
   35  0.016  0.000  0.010  0.026
   36  0.006  0.000  0.079  0.085
   37  0.002  0.016  0.000  0.018
tot    0.182  0.023  0.570  0.775
 
band     5 # energy   -5.07824429 # occ.  2.00000000
 
ion      s      p      d    tot
    1  0.001  0.000  0.017  0.018
    2  0.007  0.000  0.014  0.021
    3  0.007  0.000  0.014  0.021
    4  0.007  0.000  0.014  0.021
    5  0.011  0.000  0.011  0.023
    6  0.007  0.000  0.014  0.021
    7  0.007  0.000  0.014  0.021
    8  0.007  0.000  0.014  0.021
    9  0.010  0.000  0.010  0.021
   10  0.004  0.001  0.008  0.013
   11  0.001  0.001  0.026  0.027
   12  0.004  0.001  0.008  0.013
   13  0.001  0.001  0.026  0.027
   14  0.001  0.001  0.026  0.027
   15  0.001  0.000  0.020  0.021
   16  0.004  0.001  0.008  0.013
   17  0.001  0.000  0.020  0.021
   18  0.001  0.000  0.020  0.021
   19  0.000  0.000  0.026  0.027
   20  0.007  0.000  0.073  0.080
   21  0.007  0.000  0.073  0.080
   22  0.007  0.000  0.007  0.015
   23  0.007  0.000  0.073  0.080
   24  0.007  0.000  0.007  0.015
   25  0.000  0.000  0.026  0.027
   26  0.000  0.000  0.026  0.027
   27  0.007  0.000  0.007  0.015
   28  0.000  0.000  0.003  0.003
   29  0.000  0.000  0.002  0.002
   30  0.000  0.000  0.002  0.002
   31  0.000  0.000  0.002  0.002
   32  0.000  0.000  0.002  0.002
   33  0.000  0.000  0.002  0.002
   34  0.000  0.000  0.002  0.002
   35  0.001  0.001  0.003  0.005
   36  0.004  0.003  0.025  0.032
   37  0.004  0.011  0.000  0.015
tot    0.133  0.022  0.651  0.806
 
band     6 # energy   -5.04248565 # occ.  2.00000000
 
ion      s      p      d    tot
    1  0.000  0.000  0.008  0.008
    2  0.001  0.000  0.002  0.003
    3  0.001  0.000  0.002  0.003
    4  0.001  0.000  0.002  0.003
    5  0.000  0.000  0.004  0.004
    6  0.000  0.000  0.002  0.002
    7  0.001  0.000  0.002  0.003
    8  0.000  0.000  0.002  0.002
    9  0.000  0.000  0.001  0.001
   10  0.000  0.000  0.022  0.022
   11  0.004  0.000  0.020  0.025
   12  0.007  0.001  0.015  0.024
   13  0.003  0.001  0.021  0.025
   14  0.000  0.001  0.023  0.024
   15  0.001  0.000  0.011  0.013
   16  0.010  0.001  0.013  0.024
   17  0.001  0.000  0.012  0.013
   18  0.000  0.000  0.015  0.015
   19  0.013  0.000  0.034  0.048
   20  0.001  0.000  0.125  0.126
   21  0.022  0.000  0.053  0.075
   22  0.001  0.001  0.038  0.040
   23  0.031  0.000  0.024  0.055
   24  0.000  0.001  0.065  0.066
   25  0.000  0.002  0.010  0.012
   26  0.010  0.001  0.027  0.038
   27  0.002  0.000  0.027  0.030
   28  0.000  0.000  0.003  0.003
   29  0.000  0.000  0.007  0.007
   30  0.000  0.000  0.007  0.007
   31  0.000  0.000  0.007  0.007
   32  0.001  0.001  0.007  0.009
   33  0.001  0.001  0.007  0.008
   34  0.001  0.001  0.007  0.009
   35  0.000  0.000  0.002  0.002
   36  0.000  0.000  0.041  0.041
   37  0.000  0.007  0.000  0.007
tot    0.114  0.023  0.670  0.807
 
band     7 # energy   -5.04248064 # occ.  2.00000000
 
ion      s      p      d    tot
    1  0.000  0.000  0.008  0.008
    2  0.000  0.000  0.002  0.002
    3  0.000  0.000  0.002  0.002
    4  0.000  0.000  0.002  0.003
    5  0.000  0.000  0.004  0.004
    6  0.001  0.000  0.002  0.004
    7  0.001  0.000  0.002  0.003
    8  0.001  0.000  0.002  0.004
    9  0.000  0.000  0.001  0.001
   10  0.012  0.001  0.011  0.024
   11  0.001  0.001  0.023  0.025
   12  0.005  0.001  0.018  0.023
   13  0.002  0.001  0.022  0.025
   14  0.004  0.000  0.020  0.025
   15  0.000  0.000  0.015  0.015
   16  0.002  0.000  0.020  0.023
   17  0.001  0.000  0.013  0.014
   18  0.001  0.000  0.010  0.012
   19  0.002  0.001  0.014  0.017
   20  0.035  0.000  0.010  0.045
   21  0.014  0.000  0.081  0.095
   22  0.001  0.001  0.049  0.050
   23  0.005  0.000  0.110  0.116
   24  0.002  0.000  0.022  0.025
   25  0.015  0.000  0.038  0.053
   26  0.006  0.001  0.021  0.028
   27  0.000  0.001  0.060  0.061
   28  0.000  0.000  0.003  0.003
   29  0.001  0.001  0.007  0.009
   30  0.001  0.001  0.007  0.009
   31  0.001  0.001  0.007  0.009
   32  0.000  0.000  0.007  0.007
   33  0.001  0.000  0.007  0.008
   34  0.000  0.000  0.007  0.007
   35  0.000  0.000  0.002  0.002
   36  0.000  0.000  0.041  0.041
   37  0.000  0.007  0.000  0.007
tot    0.114  0.023  0.670  0.806
 
band     8 # energy   -5.00627698 # occ.  2.00000000
 
ion      s      p      d    tot
    1  0.000  0.000  0.001  0.001
    2  0.000  0.000  0.002  0.003
    3  0.001  0.000  0.004  0.006
    4  0.001  0.000  0.004  0.005
    5  0.000  0.000  0.006  0.007
    6  0.001  0.000  0.003  0.005
    7  0.001  0.000  0.004  0.006
    8  0.000  0.000  0.002  0.002
    9  0.000  0.000  0.007  0.007
   10  0.000  0.000  0.027  0.027
   11  0.011  0.001  0.032  0.044
   12  0.000  0.001  0.034  0.035
   13  0.001  0.000  0.071  0.072
   14  0.016  0.001  0.013  0.029
   15  0.011  0.001  0.024  0.036
   16  0.000  0.001  0.029  0.029
   17  0.001  0.001  0.021  0.023
   18  0.016  0.001  0.026  0.043
   19  0.006  0.000  0.037  0.044
   20  0.003  0.000  0.036  0.040
   21  0.000  0.001  0.021  0.022
   22  0.001  0.001  0.047  0.049
   23  0.002  0.001  0.031  0.034
   24  0.022  0.001  0.022  0.045
   25  0.009  0.001  0.017  0.026
   26  0.000  0.000  0.077  0.078
   27  0.015  0.001  0.030  0.046
   28  0.000  0.000  0.004  0.004
   29  0.002  0.000  0.005  0.007
   30  0.000  0.000  0.003  0.003
   31  0.001  0.000  0.003  0.004
   32  0.001  0.000  0.003  0.005
   33  0.000  0.000  0.003  0.003
   34  0.002  0.001  0.005  0.007
   35  0.000  0.000  0.008  0.009
   36  0.000  0.000  0.001  0.001
   37  0.000  0.000  0.000  0.000
tot    0.123  0.016  0.664  0.804
 
band     9 # energy   -5.00626588 # occ.  2.00000000
 
ion      s      p      d    tot
    1  0.000  0.000  0.001  0.001
    2  0.001  0.000  0.004  0.006
    3  0.000  0.000  0.003  0.003
    4  0.001  0.000  0.003  0.004
    5  0.000  0.000  0.006  0.007
    6  0.001  0.000  0.003  0.004
    7  0.000  0.000  0.002  0.003
    8  0.002  0.000  0.004  0.006
    9  0.000  0.000  0.007  0.007
   10  0.000  0.001  0.033  0.034
   11  0.007  0.000  0.045  0.053
   12  0.000  0.000  0.026  0.026
   13  0.018  0.001  0.006  0.025
   14  0.002  0.000  0.065  0.067
   15  0.008  0.001  0.023  0.032
   16  0.000  0.001  0.031  0.031
   17  0.018  0.001  0.026  0.045
   18  0.002  0.001  0.022  0.025
   19  0.004  0.000  0.050  0.055
   20  0.000  0.001  0.022  0.024
   21  0.003  0.000  0.038  0.041
   22  0.025  0.001  0.019  0.044
   23  0.001  0.001  0.028  0.030
   24  0.003  0.001  0.045  0.049
   25  0.001  0.000  0.070  0.072
   26  0.010  0.001  0.010  0.021
   27  0.010  0.001  0.036  0.047
   28  0.000  0.000  0.004  0.004
   29  0.000  0.000  0.002  0.003
   30  0.001  0.000  0.005  0.006
   31  0.001  0.000  0.004  0.005
   32  0.001  0.000  0.004  0.005
   33  0.001  0.001  0.005  0.007
   34  0.000  0.000  0.002  0.002
   35  0.000  0.000  0.008  0.009
   36  0.000  0.000  0.001  0.001
   37  0.000  0.000  0.000  0.000
tot    0.123  0.016  0.664  0.804
 
band    10 # energy   -5.00354654 # occ.  2.00000000
 
ion      s      p      d    tot
    1  0.000  0.000  0.000  0.000
    2  0.000  0.000  0.005  0.006
    3  0.000  0.000  0.005  0.006
    4  0.000  0.000  0.005  0.006
    5  0.004  0.001  0.003  0.007
    6  0.000  0.000  0.006  0.006
    7  0.000  0.000  0.005  0.006
    8  0.000  0.000  0.006  0.006
    9  0.003  0.000  0.001  0.005
   10  0.004  0.001  0.007  0.012
   11  0.011  0.001  0.023  0.034
   12  0.004  0.001  0.007  0.012
   13  0.011  0.001  0.023  0.034
   14  0.011  0.001  0.022  0.034
   15  0.001  0.000  0.039  0.040
   16  0.004  0.001  0.007  0.012
   17  0.001  0.000  0.039  0.040
   18  0.001  0.000  0.039  0.040
   19  0.015  0.000  0.034  0.050
   20  0.007  0.001  0.011  0.019
   21  0.007  0.001  0.011  0.019
   22  0.001  0.000  0.076  0.077
   23  0.007  0.001  0.011  0.019
   24  0.001  0.000  0.075  0.076
   25  0.015  0.000  0.034  0.050
   26  0.015  0.000  0.034  0.050
   27  0.001  0.000  0.076  0.077
   28  0.007  0.001  0.005  0.013
   29  0.000  0.000  0.005  0.005
   30  0.000  0.000  0.005  0.005
   31  0.000  0.000  0.005  0.005
   32  0.000  0.000  0.005  0.005
   33  0.000  0.000  0.005  0.005
   34  0.000  0.000  0.005  0.005
   35  0.001  0.001  0.011  0.012
   36  0.001  0.000  0.000  0.001
   37  0.000  0.000  0.000  0.000
tot    0.135  0.017  0.648  0.800
 
band    11 # energy   -4.98572483 # occ.  2.00000000
 
ion      s      p      d    tot
    1  0.004  0.000  0.003  0.007
    2  0.004  0.000  0.012  0.016
    3  0.004  0.000  0.012  0.016
    4  0.004  0.000  0.012  0.016
    5  0.006  0.000  0.007  0.013
    6  0.004  0.000  0.012  0.016
    7  0.004  0.000  0.012  0.016
    8  0.004  0.000  0.012  0.016
    9  0.002  0.000  0.029  0.031
   10  0.000  0.000  0.043  0.044
   11  0.001  0.001  0.005  0.006
   12  0.000  0.000  0.043  0.043
   13  0.001  0.001  0.005  0.006
   14  0.001  0.001  0.004  0.006
   15  0.011  0.001  0.044  0.056
   16  0.000  0.000  0.043  0.043
   17  0.011  0.001  0.044  0.056
   18  0.011  0.001  0.044  0.056
   19  0.000  0.001  0.002  0.003
   20  0.000  0.000  0.031  0.032
   21  0.000  0.000  0.031  0.031
   22  0.005  0.001  0.023  0.028
   23  0.000  0.000  0.031  0.031
   24  0.005  0.001  0.023  0.028
   25  0.000  0.001  0.002  0.003
   26  0.000  0.001  0.002  0.003
   27  0.005  0.001  0.023  0.028
   28  0.003  0.000  0.005  0.008
   29  0.005  0.000  0.012  0.016
   30  0.005  0.000  0.012  0.016
   31  0.005  0.000  0.012  0.016
   32  0.005  0.000  0.012  0.016
   33  0.005  0.000  0.012  0.016
   34  0.005  0.000  0.012  0.016
   35  0.004  0.000  0.018  0.022
   36  0.005  0.000  0.016  0.021
   37  0.000  0.002  0.000  0.002
tot    0.126  0.012  0.667  0.805
 
band    12 # energy   -4.97821719 # occ.  2.00000000
 
ion      s      p      d    tot
    1  0.003  0.001  0.010  0.014
    2  0.000  0.000  0.007  0.008
    3  0.000  0.000  0.007  0.008
    4  0.000  0.000  0.007  0.008
    5  0.000  0.000  0.009  0.010
    6  0.000  0.000  0.007  0.008
    7  0.000  0.000  0.007  0.008
    8  0.000  0.000  0.007  0.008
    9  0.004  0.001  0.000  0.005
   10  0.009  0.000  0.041  0.050
   11  0.000  0.000  0.086  0.086
   12  0.009  0.000  0.041  0.050
   13  0.000  0.000  0.086  0.086
   14  0.000  0.000  0.085  0.086
   15  0.006  0.000  0.012  0.018
   16  0.009  0.000  0.041  0.050
   17  0.006  0.000  0.012  0.018
   18  0.006  0.000  0.012  0.018
   19  0.001  0.000  0.009  0.010
   20  0.001  0.000  0.038  0.039
   21  0.001  0.000  0.038  0.039
   22  0.000  0.000  0.025  0.025
   23  0.001  0.000  0.038  0.039
   24  0.000  0.000  0.025  0.025
   25  0.001  0.000  0.009  0.010
   26  0.001  0.000  0.009  0.010
   27  0.000  0.000  0.025  0.025
   28  0.003  0.000  0.000  0.003
   29  0.000  0.000  0.010  0.010
   30  0.000  0.000  0.010  0.010
   31  0.000  0.000  0.010  0.010
   32  0.000  0.000  0.010  0.010
   33  0.000  0.000  0.010  0.010
   34  0.000  0.000  0.010  0.010
   35  0.001  0.000  0.004  0.004
   36  0.007  0.001  0.002  0.010
   37  0.000  0.000  0.000  0.000
tot    0.070  0.009  0.761  0.840
 
band    13 # energy   -4.96447129 # occ.  2.00000000
 
ion      s      p      d    tot
    1  0.000  0.000  0.014  0.014
    2  0.000  0.000  0.008  0.009
    3  0.000  0.000  0.008  0.008
    4  0.002  0.001  0.004  0.007
    5  0.000  0.000  0.004  0.004
    6  0.002  0.001  0.004  0.007
    7  0.001  0.001  0.009  0.011
    8  0.001  0.001  0.010  0.011
    9  0.000  0.000  0.007  0.008
   10  0.005  0.000  0.056  0.061
   11  0.000  0.000  0.045  0.045
   12  0.004  0.000  0.058  0.062
   13  0.000  0.001  0.022  0.022
   14  0.000  0.001  0.024  0.024
   15  0.013  0.000  0.005  0.019
   16  0.018  0.000  0.033  0.051
   17  0.003  0.000  0.103  0.106
   18  0.004  0.000  0.094  0.098
   19  0.000  0.000  0.022  0.022
   20  0.000  0.000  0.023  0.023
   21  0.000  0.000  0.024  0.025
   22  0.000  0.000  0.014  0.014
   23  0.001  0.001  0.009  0.010
   24  0.000  0.000  0.016  0.016
   25  0.000  0.000  0.035  0.035
   26  0.000  0.000  0.036  0.037
   27  0.000  0.000  0.033  0.033
   28  0.000  0.000  0.014  0.014
   29  0.002  0.000  0.005  0.007
   30  0.002  0.000  0.005  0.007
   31  0.000  0.000  0.004  0.004
   32  0.000  0.000  0.004  0.005
   33  0.001  0.000  0.004  0.006
   34  0.002  0.000  0.004  0.006
   35  0.000  0.000  0.006  0.006
   36  0.000  0.000  0.002  0.003
   37  0.000  0.000  0.000  0.000
tot    0.063  0.009  0.767  0.838
 
band    14 # energy   -4.96446042 # occ.  2.00000000
 
ion      s      p      d    tot
    1  0.000  0.000  0.014  0.014
    2  0.002  0.001  0.006  0.009
    3  0.002  0.001  0.007  0.009
    4  0.000  0.000  0.010  0.011
    5  0.000  0.000  0.004  0.004
    6  0.000  0.000  0.010  0.011
    7  0.001  0.000  0.005  0.007
    8  0.002  0.000  0.005  0.007
    9  0.000  0.000  0.007  0.008
   10  0.012  0.000  0.042  0.055
   11  0.000  0.001  0.015  0.016
   12  0.014  0.000  0.040  0.054
   13  0.000  0.000  0.038  0.039
   14  0.000  0.000  0.036  0.037
   15  0.000  0.000  0.129  0.129
   16  0.000  0.000  0.065  0.065
   17  0.011  0.000  0.031  0.042
   18  0.010  0.000  0.041  0.051
   19  0.000  0.000  0.040  0.040
   20  0.001  0.000  0.014  0.015
   21  0.001  0.000  0.013  0.014
   22  0.000  0.000  0.028  0.028
   23  0.000  0.000  0.029  0.029
   24  0.000  0.000  0.026  0.026
   25  0.000  0.000  0.027  0.027
   26  0.000  0.000  0.026  0.026
   27  0.000  0.000  0.009  0.009
   28  0.000  0.000  0.014  0.014
   29  0.000  0.000  0.004  0.004
   30  0.001  0.000  0.004  0.005
   31  0.002  0.000  0.005  0.007
   32  0.002  0.000  0.004  0.007
   33  0.001  0.000  0.005  0.006
   34  0.001  0.000  0.005  0.006
   35  0.000  0.000  0.006  0.006
   36  0.000  0.000  0.002  0.003
   37  0.000  0.000  0.000  0.000
tot    0.063  0.009  0.767  0.838
 
band    15 # energy   -4.95854299 # occ.  2.00000000
 
ion      s      p      d    tot
    1  0.000  0.000  0.006  0.006
    2  0.003  0.000  0.005  0.009
    3  0.000  0.000  0.010  0.010
    4  0.003  0.000  0.006  0.009
    5  0.000  0.000  0.010  0.011
    6  0.002  0.001  0.007  0.010
    7  0.000  0.000  0.010  0.010
    8  0.002  0.001  0.007  0.010
    9  0.000  0.000  0.014  0.014
   10  0.006  0.000  0.017  0.024
   11  0.004  0.000  0.056  0.060
   12  0.001  0.000  0.047  0.048
   13  0.003  0.000  0.062  0.065
   14  0.013  0.000  0.011  0.024
   15  0.000  0.000  0.023  0.023
   16  0.002  0.000  0.043  0.045
   17  0.000  0.000  0.020  0.020
   18  0.001  0.000  0.044  0.045
   19  0.002  0.000  0.043  0.045
   20  0.000  0.000  0.045  0.045
   21  0.000  0.000  0.027  0.027
   22  0.001  0.000  0.047  0.049
   23  0.000  0.000  0.029  0.029
   24  0.007  0.000  0.020  0.027
   25  0.006  0.000  0.009  0.016
   26  0.001  0.000  0.048  0.049
   27  0.002  0.000  0.044  0.046
   28  0.000  0.000  0.003  0.003
   29  0.000  0.000  0.008  0.008
   30  0.003  0.000  0.003  0.006
   31  0.000  0.000  0.007  0.008
   32  0.001  0.001  0.007  0.009
   33  0.002  0.000  0.003  0.006
   34  0.001  0.000  0.008  0.009
   35  0.000  0.000  0.010  0.010
   36  0.000  0.000  0.005  0.005
   37  0.000  0.000  0.000  0.000
tot    0.068  0.008  0.762  0.839
 
band    16 # energy   -4.95851654 # occ.  2.00000000
 
ion      s      p      d    tot
    1  0.000  0.000  0.006  0.006
    2  0.000  0.000  0.009  0.010
    3  0.003  0.001  0.005  0.009
    4  0.001  0.000  0.009  0.010
    5  0.000  0.000  0.010  0.011
    6  0.002  0.000  0.007  0.009
    7  0.003  0.001  0.005  0.009
    8  0.001  0.000  0.008  0.009
    9  0.000  0.000  0.014  0.014
   10  0.000  0.000  0.053  0.053
   11  0.009  0.000  0.030  0.039
   12  0.005  0.000  0.025  0.030
   13  0.010  0.000  0.024  0.034
   14  0.000  0.000  0.075  0.075
   15  0.001  0.000  0.035  0.036
   16  0.004  0.000  0.028  0.033
   17  0.001  0.000  0.038  0.039
   18  0.000  0.000  0.014  0.015
   19  0.004  0.000  0.024  0.028
   20  0.000  0.000  0.022  0.022
   21  0.000  0.000  0.040  0.041
   22  0.006  0.000  0.027  0.033
   23  0.000  0.000  0.038  0.038
   24  0.000  0.000  0.054  0.054
   25  0.000  0.000  0.057  0.057
   26  0.005  0.000  0.019  0.024
   27  0.005  0.000  0.030  0.035
   28  0.000  0.000  0.003  0.003
   29  0.002  0.001  0.004  0.007
   30  0.000  0.000  0.009  0.010
   31  0.002  0.001  0.005  0.007
   32  0.001  0.000  0.005  0.006
   33  0.000  0.000  0.009  0.010
   34  0.002  0.000  0.004  0.006
   35  0.000  0.000  0.010  0.010
   36  0.000  0.000  0.005  0.005
   37  0.000  0.000  0.000  0.000
tot    0.068  0.008  0.763  0.839
 
band    17 # energy   -4.95630682 # occ.  2.00000000
 
ion      s      p      d    tot
    1  0.008  0.000  0.015  0.024
    2  0.002  0.000  0.012  0.014
    3  0.002  0.000  0.012  0.014
    4  0.002  0.000  0.012  0.014
    5  0.000  0.001  0.011  0.011
    6  0.002  0.000  0.012  0.014
    7  0.002  0.000  0.012  0.014
    8  0.002  0.000  0.012  0.014
    9  0.002  0.000  0.000  0.002
   10  0.000  0.000  0.042  0.042
   11  0.007  0.000  0.010  0.017
   12  0.000  0.000  0.042  0.042
   13  0.007  0.000  0.010  0.017
   14  0.007  0.000  0.010  0.017
   15  0.000  0.000  0.034  0.035
   16  0.000  0.000  0.042  0.042
   17  0.000  0.000  0.034  0.035
   18  0.000  0.000  0.034  0.034
   19  0.001  0.000  0.047  0.049
   20  0.000  0.001  0.007  0.009
   21  0.000  0.001  0.007  0.008
   22  0.002  0.000  0.027  0.029
   23  0.000  0.001  0.007  0.008
   24  0.002  0.000  0.027  0.029
   25  0.001  0.000  0.047  0.049
   26  0.001  0.000  0.047  0.049
   27  0.002  0.000  0.027  0.029
   28  0.007  0.000  0.027  0.034
   29  0.004  0.000  0.014  0.019
   30  0.004  0.000  0.014  0.019
   31  0.004  0.000  0.014  0.019
   32  0.004  0.000  0.014  0.019
   33  0.004  0.000  0.014  0.019
   34  0.004  0.000  0.014  0.019
   35  0.000  0.000  0.007  0.008
   36  0.008  0.001  0.002  0.011
   37  0.000  0.000  0.000  0.000
tot    0.097  0.008  0.719  0.824
 
band    18 # energy   -4.84251178 # occ.  2.00000000
 
ion      s      p      d    tot
    1  0.000  0.000  0.003  0.003
    2  0.001  0.000  0.007  0.008
    3  0.000  0.000  0.006  0.006
    4  0.001  0.001  0.007  0.008
    5  0.000  0.000  0.010  0.010
    6  0.002  0.001  0.004  0.006
    7  0.000  0.000  0.005  0.006
    8  0.002  0.000  0.004  0.006
    9  0.000  0.000  0.009  0.009
   10  0.000  0.001  0.024  0.025
   11  0.000  0.000  0.053  0.053
   12  0.000  0.000  0.009  0.010
   13  0.001  0.000  0.049  0.050
   14  0.002  0.000  0.039  0.040
   15  0.000  0.000  0.030  0.030
   16  0.000  0.000  0.004  0.004
   17  0.001  0.000  0.030  0.030
   18  0.001  0.000  0.029  0.031
   19  0.000  0.000  0.005  0.005
   20  0.001  0.000  0.074  0.075
   21  0.000  0.000  0.082  0.082
   22  0.000  0.000  0.047  0.047
   23  0.000  0.000  0.085  0.085
   24  0.000  0.000  0.025  0.026
   25  0.000  0.001  0.024  0.025
   26  0.000  0.000  0.010  0.010
   27  0.000  0.000  0.054  0.054
   28  0.000  0.000  0.001  0.001
   29  0.000  0.000  0.008  0.009
   30  0.001  0.000  0.009  0.011
   31  0.000  0.000  0.008  0.009
   32  0.001  0.001  0.009  0.011
   33  0.001  0.001  0.010  0.011
   34  0.001  0.001  0.010  0.011
   35  0.000  0.000  0.002  0.002
   36  0.000  0.000  0.052  0.052
   37  0.000  0.011  0.000  0.011
tot    0.017  0.022  0.835  0.874
 
band    19 # energy   -4.84250373 # occ.  2.00000000
 
ion      s      p      d    tot
    1  0.000  0.000  0.003  0.003
    2  0.001  0.000  0.004  0.006
    3  0.002  0.001  0.005  0.007
    4  0.001  0.000  0.004  0.006
    5  0.000  0.000  0.010  0.010
    6  0.000  0.000  0.007  0.007
    7  0.001  0.001  0.006  0.008
    8  0.000  0.000  0.007  0.008
    9  0.000  0.000  0.009  0.009
   10  0.000  0.000  0.001  0.001
   11  0.001  0.000  0.041  0.043
   12  0.000  0.001  0.016  0.016
   13  0.001  0.000  0.045  0.046
   14  0.000  0.000  0.055  0.055
   15  0.001  0.000  0.029  0.031
   16  0.000  0.001  0.020  0.021
   17  0.001  0.000  0.030  0.031
   18  0.000  0.000  0.030  0.030
   19  0.000  0.001  0.021  0.022
   20  0.000  0.000  0.087  0.087
   21  0.001  0.000  0.078  0.079
   22  0.000  0.000  0.037  0.038
   23  0.001  0.000  0.075  0.076
   24  0.000  0.000  0.058  0.058
   25  0.000  0.000  0.002  0.002
   26  0.000  0.000  0.016  0.017
   27  0.000  0.000  0.030  0.031
   28  0.000  0.000  0.001  0.001
   29  0.001  0.001  0.010  0.012
   30  0.000  0.000  0.009  0.010
   31  0.001  0.001  0.010  0.012
   32  0.001  0.000  0.009  0.010
   33  0.000  0.000  0.009  0.009
   34  0.000  0.000  0.009  0.009
   35  0.000  0.000  0.002  0.002
   36  0.000  0.000  0.052  0.052
   37  0.000  0.011  0.000  0.011
tot    0.017  0.022  0.835  0.874
 
band    20 # energy   -4.83348213 # occ.  2.00000000
 
ion      s      p      d    tot
    1  0.000  0.000  0.000  0.001
    2  0.000  0.000  0.005  0.005
    3  0.000  0.000  0.005  0.005
    4  0.000  0.000  0.005  0.005
    5  0.001  0.000  0.006  0.007
    6  0.000  0.000  0.005  0.005
    7  0.000  0.000  0.005  0.005
    8  0.000  0.000  0.005  0.005
    9  0.001  0.001  0.011  0.012
   10  0.000  0.000  0.009  0.009
   11  0.001  0.001  0.058  0.060
   12  0.000  0.000  0.009  0.009
   13  0.001  0.001  0.059  0.060
   14  0.001  0.001  0.059  0.060
   15  0.000  0.001  0.044  0.045
   16  0.000  0.000  0.009  0.009
   17  0.000  0.001  0.044  0.045
   18  0.000  0.001  0.044  0.045
   19  0.001  0.000  0.013  0.014
   20  0.002  0.001  0.062  0.064
   21  0.002  0.001  0.062  0.064
   22  0.003  0.000  0.031  0.034
   23  0.002  0.001  0.062  0.064
   24  0.003  0.000  0.031  0.035
   25  0.001  0.000  0.013  0.014
   26  0.001  0.000  0.013  0.014
   27  0.003  0.000  0.031  0.034
   28  0.002  0.001  0.001  0.003
   29  0.000  0.001  0.015  0.016
   30  0.000  0.001  0.015  0.016
   31  0.000  0.001  0.015  0.016
   32  0.000  0.001  0.015  0.016
   33  0.000  0.001  0.015  0.016
   34  0.000  0.001  0.015  0.016
   35  0.005  0.000  0.006  0.011
   36  0.002  0.001  0.012  0.015
   37  0.002  0.006  0.000  0.008
tot    0.033  0.020  0.807  0.860
 
band    21 # energy   -4.79342345 # occ.  2.00000000
 
ion      s      p      d    tot
    1  0.000  0.000  0.007  0.007
    2  0.000  0.000  0.011  0.011
    3  0.000  0.000  0.010  0.011
    4  0.000  0.000  0.010  0.011
    5  0.004  0.001  0.001  0.006
    6  0.000  0.000  0.010  0.011
    7  0.000  0.000  0.010  0.011
    8  0.000  0.000  0.010  0.011
    9  0.001  0.000  0.003  0.005
   10  0.002  0.001  0.049  0.051
   11  0.000  0.000  0.029  0.030
   12  0.002  0.001  0.049  0.051
   13  0.000  0.000  0.029  0.030
   14  0.000  0.000  0.029  0.029
   15  0.002  0.000  0.025  0.028
   16  0.002  0.001  0.049  0.051
   17  0.002  0.000  0.026  0.028
   18  0.002  0.000  0.026  0.028
   19  0.001  0.000  0.051  0.052
   20  0.001  0.000  0.015  0.016
   21  0.001  0.000  0.015  0.016
   22  0.000  0.001  0.049  0.050
   23  0.001  0.000  0.015  0.016
   24  0.000  0.001  0.049  0.050
   25  0.002  0.000  0.051  0.053
   26  0.002  0.000  0.051  0.053
   27  0.000  0.001  0.050  0.051
   28  0.000  0.000  0.012  0.012
   29  0.000  0.000  0.010  0.011
   30  0.000  0.000  0.010  0.011
   31  0.000  0.000  0.010  0.011
   32  0.000  0.000  0.010  0.011
   33  0.000  0.000  0.010  0.011
   34  0.000  0.000  0.010  0.011
   35  0.005  0.001  0.003  0.009
   36  0.003  0.001  0.001  0.004