PROCAR new format
# of k-points:   10         # of bands:  252         # of ions:   38

 k-point     1 :    0.00000000 0.00000000 0.00000000     weight = 0.01562500

band     1 # energy  -22.02181143 # occ.  2.00000000
 
ion      s      p      d    tot
    1  0.000  0.000  0.000  0.000
    2  0.000  0.000  0.000  0.000
    3  0.000  0.000  0.000  0.000
    4  0.000  0.000  0.000  0.000
    5  0.000  0.000  0.000  0.000
    6  0.000  0.000  0.000  0.000
    7  0.000  0.000  0.000  0.000
    8  0.000  0.000  0.000  0.000
    9  0.000  0.000  0.000  0.000
   10  0.000  0.000  0.000  0.000
   11  0.000  0.000  0.000  0.000
   12  0.000  0.000  0.000  0.000
   13  0.000  0.000  0.000  0.000
   14  0.000  0.000  0.000  0.000
   15  0.000  0.000  0.000  0.000
   16  0.000  0.000  0.000  0.000
   17  0.000  0.000  0.000  0.000
   18  0.000  0.000  0.000  0.000
   19  0.000  0.000  0.000  0.000
   20  0.000  0.000  0.000  0.000
   21  0.000  0.000  0.000  0.000
   22  0.000  0.000  0.000  0.000
   23  0.000  0.000  0.000  0.000
   24  0.000  0.000  0.000  0.000
   25  0.000  0.000  0.000  0.000
   26  0.000  0.000  0.000  0.000
   27  0.000  0.000  0.000  0.000
   28  0.000  0.000  0.000  0.000
   29  0.000  0.000  0.000  0.000
   30  0.000  0.000  0.000  0.000
   31  0.000  0.000  0.000  0.000
   32  0.000  0.000  0.000  0.000
   33  0.000  0.000  0.000  0.000
   34  0.000  0.000  0.000  0.000
   35  0.000  0.000  0.000  0.000
   36  0.000  0.000  0.000  0.000
   37  0.157  0.114  0.000  0.271
   38  0.637  0.094  0.000  0.730
tot    0.794  0.207  0.000  1.001
 
band     2 # energy   -8.22638746 # occ.  2.00000000
 
ion      s      p      d    tot
    1  0.005  0.000  0.000  0.005
    2  0.005  0.000  0.000  0.005
    3  0.005  0.000  0.000  0.005
    4  0.005  0.000  0.000  0.005
    5  0.005  0.000  0.000  0.005
    6  0.005  0.000  0.000  0.005
    7  0.005  0.000  0.000  0.005
    8  0.005  0.000  0.000  0.005
    9  0.005  0.000  0.000  0.005
   10  0.020  0.000  0.000  0.020
   11  0.020  0.000  0.000  0.021
   12  0.020  0.000  0.000  0.020
   13  0.020  0.000  0.000  0.021
   14  0.020  0.000  0.000  0.021
   15  0.020  0.000  0.000  0.020
   16  0.020  0.000  0.000  0.020
   17  0.020  0.000  0.000  0.020
   18  0.020  0.000  0.000  0.020
   19  0.020  0.000  0.000  0.020
   20  0.025  0.000  0.000  0.025
   21  0.025  0.000  0.000  0.025
   22  0.021  0.000  0.000  0.021
   23  0.025  0.000  0.000  0.025
   24  0.021  0.000  0.000  0.021
   25  0.020  0.000  0.000  0.020
   26  0.020  0.000  0.000  0.020
   27  0.021  0.000  0.000  0.021
   28  0.005  0.000  0.000  0.005
   29  0.007  0.000  0.000  0.007
   30  0.007  0.000  0.000  0.007
   31  0.007  0.000  0.000  0.007
   32  0.007  0.000  0.000  0.007
   33  0.007  0.000  0.000  0.007
   34  0.007  0.000  0.000  0.007
   35  0.005  0.000  0.000  0.005
   36  0.019  0.002  0.007  0.028
   37  0.046  0.003  0.000  0.050
   38  0.020  0.023  0.000  0.044
tot    0.554  0.037  0.011  0.601
 
band     3 # energy   -7.88971808 # occ.  2.00000000
 
ion      s      p      d    tot
    1  0.003  0.000  0.000  0.003
    2  0.003  0.000  0.000  0.003
    3  0.003  0.000  0.000  0.003
    4  0.003  0.000  0.000  0.003
    5  0.003  0.000  0.000  0.003
    6  0.003  0.000  0.000  0.003
    7  0.003  0.000  0.000  0.003
    8  0.003  0.000  0.000  0.003
    9  0.003  0.000  0.000  0.003
   10  0.008  0.000  0.000  0.008
   11  0.008  0.000  0.000  0.008
   12  0.008  0.000  0.000  0.008
   13  0.008  0.000  0.000  0.008
   14  0.008  0.000  0.000  0.008
   15  0.008  0.000  0.000  0.009
   16  0.008  0.000  0.000  0.008
   17  0.008  0.000  0.000  0.009
   18  0.008  0.000  0.000  0.009
   19  0.003  0.000  0.000  0.003
   20  0.001  0.001  0.001  0.003
   21  0.001  0.001  0.001  0.003
   22  0.003  0.000  0.000  0.004
   23  0.001  0.001  0.001  0.003
   24  0.003  0.000  0.000  0.004
   25  0.003  0.000  0.000  0.003
   26  0.003  0.000  0.000  0.003
   27  0.003  0.000  0.000  0.004
   28  0.000  0.000  0.000  0.000
   29  0.000  0.000  0.001  0.002
   30  0.000  0.000  0.001  0.002
   31  0.000  0.000  0.001  0.002
   32  0.000  0.000  0.001  0.002
   33  0.000  0.000  0.001  0.002
   34  0.000  0.000  0.001  0.002
   35  0.000  0.000  0.000  0.000
   36  0.028  0.018  0.028  0.074
   37  0.222  0.006  0.000  0.228
   38  0.109  0.158  0.000  0.267
tot    0.481  0.188  0.041  0.710
 
band     4 # energy   -6.94590748 # occ.  2.00000000
 
ion      s      p      d    tot
    1  0.017  0.000  0.001  0.018
    2  0.016  0.000  0.001  0.018
    3  0.016  0.000  0.001  0.018
    4  0.016  0.000  0.001  0.018
    5  0.016  0.000  0.001  0.018
    6  0.016  0.000  0.001  0.018
    7  0.016  0.000  0.001  0.018
    8  0.016  0.000  0.001  0.018
    9  0.016  0.000  0.001  0.018
   10  0.010  0.002  0.002  0.013
   11  0.009  0.002  0.003  0.013
   12  0.010  0.002  0.002  0.013
   13  0.009  0.002  0.003  0.013
   14  0.009  0.002  0.003  0.013
   15  0.009  0.002  0.002  0.013
   16  0.010  0.002  0.002  0.013
   17  0.009  0.002  0.002  0.013
   18  0.009  0.002  0.002  0.013
   19  0.015  0.001  0.004  0.020
   20  0.015  0.001  0.005  0.021
   21  0.015  0.001  0.005  0.021
   22  0.016  0.001  0.004  0.021
   23  0.015  0.001  0.005  0.021
   24  0.016  0.001  0.004  0.021
   25  0.015  0.001  0.004  0.020
   26  0.015  0.001  0.004  0.020
   27  0.016  0.001  0.004  0.021
   28  0.012  0.001  0.000  0.013
   29  0.011  0.001  0.000  0.012
   30  0.011  0.001  0.000  0.012
   31  0.011  0.001  0.000  0.012
   32  0.011  0.001  0.000  0.012
   33  0.011  0.001  0.000  0.012
   34  0.011  0.001  0.000  0.012
   35  0.012  0.001  0.000  0.013
   36  0.003  0.001  0.001  0.005
   37  0.010  0.001  0.000  0.011
   38  0.009  0.025  0.000  0.034
tot    0.478  0.058  0.075  0.612
 
band     5 # energy   -6.04611469 # occ.  2.00000000
 
ion      s      p      d    tot
    1  0.002  0.001  0.005  0.007
    2  0.001  0.001  0.006  0.007
    3  0.001  0.001  0.006  0.007
    4  0.001  0.001  0.006  0.007
    5  0.000  0.000  0.001  0.001
    6  0.001  0.001  0.005  0.007
    7  0.001  0.001  0.006  0.007
    8  0.001  0.001  0.005  0.007
    9  0.020  0.002  0.000  0.021
   10  0.010  0.000  0.025  0.035
   11  0.010  0.003  0.010  0.023
   12  0.010  0.000  0.025  0.035
   13  0.010  0.003  0.010  0.023
   14  0.010  0.003  0.010  0.023
   15  0.021  0.002  0.011  0.034
   16  0.010  0.000  0.025  0.035
   17  0.021  0.002  0.011  0.034
   18  0.021  0.002  0.011  0.034
   19  0.000  0.001  0.022  0.023
   20  0.023  0.001  0.020  0.045
   21  0.023  0.001  0.020  0.045
   22  0.020  0.003  0.003  0.026
   23  0.023  0.001  0.021  0.045
   24  0.020  0.003  0.003  0.026
   25  0.000  0.001  0.022  0.023
   26  0.000  0.001  0.022  0.023
   27  0.020  0.003  0.003  0.026
   28  0.002  0.000  0.000  0.002
   29  0.000  0.000  0.005  0.005
   30  0.000  0.000  0.005  0.005
   31  0.000  0.000  0.005  0.005
   32  0.000  0.000  0.005  0.005
   33  0.000  0.000  0.005  0.005
   34  0.000  0.000  0.005  0.005
   35  0.008  0.001  0.000  0.009
   36  0.007  0.001  0.003  0.011
   37  0.000  0.004  0.000  0.004
   38  0.002  0.010  0.000  0.012
tot    0.302  0.053  0.345  0.701
 
band     6 # energy   -6.03349047 # occ.  2.00000000
 
ion      s      p      d    tot
    1  0.028  0.000  0.017  0.045
    2  0.020  0.000  0.020  0.040
    3  0.020  0.000  0.020  0.040
    4  0.020  0.000  0.020  0.040
    5  0.019  0.000  0.021  0.040
    6  0.020  0.000  0.020  0.040
    7  0.020  0.000  0.020  0.040
    8  0.020  0.000  0.020  0.040
    9  0.015  0.000  0.021  0.036
   10  0.003  0.000  0.027  0.031
   11  0.008  0.001  0.023  0.031
   12  0.003  0.000  0.027  0.031
   13  0.008  0.001  0.023  0.031
   14  0.008  0.001  0.023  0.031
   15  0.015  0.001  0.020  0.036
   16  0.003  0.000  0.027  0.031
   17  0.015  0.001  0.020  0.036
   18  0.015  0.001  0.020  0.036
   19  0.001  0.000  0.003  0.004
   20  0.001  0.000  0.004  0.006
   21  0.001  0.000  0.004  0.006
   22  0.001  0.001  0.003  0.005
   23  0.001  0.000  0.004  0.006
   24  0.001  0.001  0.003  0.005
   25  0.001  0.000  0.003  0.004
   26  0.001  0.000  0.003  0.004
   27  0.001  0.001  0.003  0.005
   28  0.002  0.000  0.000  0.002
   29  0.001  0.000  0.000  0.002
   30  0.001  0.000  0.000  0.002
   31  0.001  0.000  0.000  0.002
   32  0.001  0.000  0.000  0.002
   33  0.001  0.000  0.000  0.002
   34  0.001  0.000  0.000  0.002
   35  0.000  0.000  0.001  0.001
   36  0.002  0.000  0.000  0.002
   37  0.000  0.002  0.000  0.002
   38  0.001  0.007  0.000  0.008
tot    0.279  0.021  0.423  0.723
 
band     7 # energy   -6.01595916 # occ.  2.00000000
 
ion      s      p      d    tot
    1  0.000  0.000  0.006  0.007
    2  0.002  0.000  0.003  0.005
    3  0.002  0.001  0.003  0.006
    4  0.002  0.001  0.003  0.005
    5  0.000  0.001  0.009  0.010
    6  0.007  0.001  0.003  0.012
    7  0.002  0.001  0.003  0.006
    8  0.007  0.001  0.003  0.012
    9  0.000  0.000  0.001  0.002
   10  0.022  0.002  0.005  0.029
   11  0.014  0.002  0.027  0.043
   12  0.006  0.001  0.025  0.031
   13  0.016  0.002  0.027  0.044
   14  0.059  0.001  0.008  0.069
   15  0.002  0.003  0.005  0.010
   16  0.005  0.001  0.025  0.031
   17  0.002  0.003  0.005  0.011
   18  0.009  0.000  0.015  0.024
   19  0.001  0.003  0.006  0.009
   20  0.054  0.001  0.011  0.066
   21  0.014  0.003  0.023  0.040
   22  0.008  0.001  0.027  0.035
   23  0.013  0.003  0.023  0.039
   24  0.029  0.002  0.003  0.034
   25  0.003  0.000  0.013  0.016
   26  0.001  0.003  0.006  0.009
   27  0.007  0.000  0.027  0.035
   28  0.000  0.000  0.001  0.001
   29  0.007  0.001  0.003  0.011
   30  0.001  0.000  0.003  0.004
   31  0.007  0.001  0.003  0.011
   32  0.003  0.001  0.002  0.006
   33  0.001  0.000  0.003  0.004
   34  0.003  0.001  0.002  0.006
   35  0.000  0.000  0.006  0.006
   36  0.000  0.001  0.001  0.003
   37  0.000  0.000  0.000  0.000
   38  0.000  0.000  0.000  0.000
tot    0.308  0.043  0.342  0.692
 
band     8 # energy   -6.01594788 # occ.  2.00000000
 
ion      s      p      d    tot
    1  0.000  0.000  0.006  0.007
    2  0.006  0.001  0.004  0.010
    3  0.005  0.001  0.003  0.009
    4  0.006  0.001  0.004  0.010
    5  0.000  0.001  0.009  0.010
    6  0.000  0.000  0.003  0.003
    7  0.005  0.001  0.003  0.009
    8  0.000  0.000  0.003  0.003
    9  0.000  0.000  0.001  0.002
   10  0.000  0.000  0.032  0.032
   11  0.045  0.001  0.014  0.061
   12  0.016  0.001  0.012  0.030
   13  0.044  0.002  0.015  0.060
   14  0.000  0.002  0.033  0.035
   15  0.007  0.001  0.012  0.020
   16  0.017  0.001  0.012  0.030
   17  0.006  0.001  0.012  0.019
   18  0.000  0.004  0.002  0.006
   19  0.002  0.001  0.011  0.014
   20  0.000  0.003  0.027  0.030
   21  0.040  0.002  0.015  0.057
   22  0.022  0.001  0.012  0.035
   23  0.041  0.002  0.015  0.057
   24  0.000  0.000  0.035  0.035
   25  0.000  0.004  0.003  0.007
   26  0.002  0.001  0.010  0.013
   27  0.022  0.001  0.011  0.035
   28  0.000  0.000  0.001  0.001
   29  0.000  0.000  0.002  0.003
   30  0.006  0.001  0.002  0.010
   31  0.000  0.000  0.002  0.003
   32  0.004  0.001  0.004  0.008
   33  0.007  0.001  0.003  0.010
   34  0.004  0.001  0.004  0.009
   35  0.000  0.000  0.006  0.006
   36  0.000  0.001  0.001  0.003
   37  0.000  0.000  0.000  0.000
   38  0.000  0.000  0.000  0.000
tot    0.308  0.043  0.342  0.692
 
band     9 # energy   -5.99812802 # occ.  2.00000000
 
ion      s      p      d    tot
    1  0.007  0.001  0.001  0.009
    2  0.000  0.001  0.006  0.007
    3  0.000  0.001  0.006  0.007
    4  0.000  0.001  0.006  0.007
    5  0.017  0.002  0.001  0.020
    6  0.000  0.001  0.006  0.007
    7  0.000  0.001  0.006  0.007
    8  0.000  0.001  0.006  0.007
    9  0.000  0.000  0.002  0.002
   10  0.025  0.003  0.002  0.030
   11  0.021  0.001  0.022  0.044
   12  0.025  0.003  0.002  0.030
   13  0.021  0.001  0.022  0.044
   14  0.021  0.001  0.022  0.044
   15  0.000  0.001  0.024  0.025
   16  0.025  0.003  0.002  0.030
   17  0.000  0.001  0.024  0.025
   18  0.000  0.001  0.024  0.025
   19  0.026  0.002  0.006  0.034
   20  0.006  0.002  0.016  0.024
   21  0.006  0.002  0.016  0.024
   22  0.009  0.000  0.026  0.035
   23  0.006  0.002  0.016  0.024
   24  0.009  0.000  0.026  0.035
   25  0.025  0.002  0.006  0.034
   26  0.026  0.002  0.006  0.034
   27  0.009  0.000  0.026  0.035
   28  0.011  0.001  0.001  0.013
   29  0.000  0.000  0.004  0.004
   30  0.000  0.000  0.004  0.004
   31  0.000  0.000  0.004  0.004
   32  0.000  0.000  0.004  0.004
   33  0.000  0.000  0.004  0.004
   34  0.000  0.000  0.004  0.004
   35  0.004  0.001  0.002  0.007
   36  0.000  0.000  0.000  0.000
   37  0.000  0.000  0.000  0.000
   38  0.000  0.000  0.000  0.000
tot    0.299  0.041  0.355  0.695
 
band    10 # energy   -5.97705299 # occ.  2.00000000
 
ion      s      p      d    tot
    1  0.000  0.001  0.005  0.007
    2  0.006  0.001  0.004  0.011
    3  0.006  0.001  0.003  0.010
    4  0.007  0.001  0.004  0.012
    5  0.000  0.000  0.003  0.003
    6  0.000  0.000  0.003  0.004
    7  0.007  0.001  0.004  0.012
    8  0.000  0.000  0.003  0.004
    9  0.000  0.001  0.011  0.012
   10  0.041  0.000  0.015  0.056
   11  0.000  0.002  0.013  0.016
   12  0.008  0.004  0.012  0.023
   13  0.000  0.002  0.013  0.016
   14  0.001  0.001  0.011  0.013
   15  0.017  0.001  0.034  0.051
   16  0.013  0.003  0.012  0.028
   17  0.011  0.001  0.038  0.050
   18  0.055  0.002  0.004  0.061
   19  0.015  0.001  0.026  0.042
   20  0.005  0.001  0.009  0.015
   21  0.001  0.001  0.017  0.019
   22  0.005  0.003  0.010  0.018
   23  0.002  0.001  0.016  0.018
   24  0.024  0.000  0.014  0.038
   25  0.048  0.002  0.004  0.054
   26  0.009  0.001  0.030  0.040
   27  0.007  0.003  0.011  0.021
   28  0.000  0.001  0.006  0.007
   29  0.000  0.000  0.002  0.002
   30  0.003  0.001  0.002  0.006
   31  0.000  0.000  0.002  0.002
   32  0.003  0.001  0.003  0.007
   33  0.003  0.001  0.002  0.005
   34  0.003  0.001  0.003  0.006
   35  0.000  0.001  0.002  0.003
   36  0.000  0.000  0.001  0.001
   37  0.000  0.000  0.000  0.000
   38  0.000  0.000  0.000  0.000
tot    0.299  0.042  0.352  0.693
 
band    11 # energy   -5.97704835 # occ.  2.00000000
 
ion      s      p      d    tot
    1  0.000  0.001  0.005  0.007
    2  0.003  0.001  0.003  0.006
    3  0.003  0.001  0.004  0.007
    4  0.002  0.001  0.003  0.005
    5  0.000  0.000  0.003  0.003
    6  0.008  0.001  0.004  0.014
    7  0.002  0.001  0.004  0.006
    8  0.008  0.001  0.004  0.014
    9  0.000  0.001  0.011  0.012
   10  0.000  0.004  0.011  0.016
   11  0.001  0.001  0.012  0.014
   12  0.033  0.001  0.014  0.049
   13  0.001  0.001  0.012  0.014
   14  0.000  0.003  0.014  0.017
   15  0.038  0.001  0.017  0.056
   16  0.028  0.002  0.014  0.044
   17  0.044  0.002  0.012  0.058
   18  0.000  0.000  0.047  0.047
   19  0.033  0.002  0.014  0.049
   20  0.000  0.001  0.018  0.020
   21  0.004  0.001  0.011  0.016
   22  0.019  0.001  0.013  0.033
   23  0.004  0.001  0.012  0.017
   24  0.000  0.004  0.009  0.014
   25  0.000  0.001  0.036  0.037
   26  0.038  0.002  0.010  0.050
   27  0.016  0.001  0.012  0.030
   28  0.000  0.001  0.006  0.007
   29  0.004  0.001  0.002  0.007
   30  0.001  0.000  0.002  0.003
   31  0.004  0.001  0.003  0.007
   32  0.001  0.000  0.002  0.003
   33  0.001  0.000  0.003  0.004
   34  0.001  0.000  0.002  0.003
   35  0.000  0.001  0.002  0.003
   36  0.000  0.000  0.001  0.001
   37  0.000  0.000  0.000  0.000
   38  0.000  0.000  0.000  0.000
tot    0.299  0.042  0.352  0.693
 
band    12 # energy   -5.88824748 # occ.  2.00000000
 
ion      s      p      d    tot
    1  0.000  0.000  0.000  0.000
    2  0.000  0.000  0.000  0.000
    3  0.000  0.000  0.000  0.000
    4  0.000  0.000  0.000  0.000
    5  0.001  0.000  0.000  0.001
    6  0.000  0.000  0.000  0.000
    7  0.000  0.000  0.000  0.000
    8  0.000  0.000  0.000  0.000
    9  0.000  0.000  0.000  0.000
   10  0.000  0.000  0.003  0.003
   11  0.000  0.000  0.003  0.004
   12  0.000  0.000  0.003  0.003
   13  0.000  0.000  0.003  0.004
   14  0.000  0.000  0.003  0.004
   15  0.000  0.000  0.003  0.003
   16  0.000  0.000  0.003  0.003
   17  0.000  0.000  0.003  0.003
   18  0.000  0.000  0.003  0.003
   19  0.007  0.001  0.020  0.027
   20  0.005  0.001  0.024  0.030
   21  0.005  0.001  0.024  0.030
   22  0.005  0.001  0.026  0.032
   23  0.005  0.001  0.024  0.030
   24  0.005  0.001  0.026  0.032
   25  0.007  0.001  0.020  0.027
   26  0.007  0.001  0.020  0.027
   27  0.005  0.001  0.026  0.032
   28  0.021  0.000  0.019  0.040
   29  0.023  0.000  0.020  0.043
   30  0.023  0.000  0.020  0.043
   31  0.023  0.000  0.020  0.043
   32  0.023  0.000  0.020  0.043
   33  0.023  0.000  0.020  0.043
   34  0.023  0.000  0.020  0.043
   35  0.027  0.000  0.019  0.046
   36  0.012  0.001  0.000  0.013
   37  0.001  0.017  0.000  0.018
   38  0.007  0.049  0.000  0.056
tot    0.259  0.076  0.395  0.730
 
band    13 # energy   -5.55044601 # occ.  2.00000000
 
ion      s      p      d    tot
    1  0.010  0.001  0.000  0.011
    2  0.000  0.001  0.006  0.007
    3  0.000  0.001  0.006  0.007
    4  0.000  0.001  0.006  0.007
    5  0.011  0.001  0.001  0.014
    6  0.000  0.001  0.006  0.007
    7  0.000  0.001  0.006  0.007
    8  0.000  0.001  0.006  0.007
    9  0.000  0.000  0.002  0.002
   10  0.001  0.001  0.025  0.026
   11  0.009  0.001  0.005  0.015
   12  0.001  0.001  0.024  0.026
   13  0.009  0.001  0.005  0.015
   14  0.009  0.001  0.005  0.015
   15  0.004  0.000  0.034  0.039
   16  0.001  0.001  0.024  0.026
   17  0.004  0.000  0.034  0.039
   18  0.004  0.000  0.034  0.039
   19  0.012  0.001  0.014  0.027
   20  0.004  0.002  0.022  0.028
   21  0.004  0.002  0.022  0.027
   22  0.002  0.000  0.041  0.043
   23  0.004  0.002  0.022  0.027
   24  0.002  0.000  0.040  0.042
   25  0.012  0.001  0.014  0.027
   26  0.012  0.001  0.014  0.027
   27  0.002  0.000  0.041  0.043
   28  0.013  0.001  0.001  0.015
   29  0.000  0.001  0.007  0.008
   30  0.000  0.001  0.007  0.008
   31  0.000  0.001  0.007  0.008
   32  0.000  0.001  0.007  0.008
   33  0.000  0.001  0.007  0.008
   34  0.000  0.001  0.007  0.008
   35  0.001  0.000  0.002  0.003
   36  0.018  0.000  0.007  0.025
   37  0.000  0.021  0.000  0.021
   38  0.004  0.036  0.000  0.040
tot    0.155  0.086  0.513  0.754
 
band    14 # energy   -5.53923734 # occ.  2.00000000
 
ion      s      p      d    tot
    1  0.007  0.001  0.003  0.011
    2  0.000  0.001  0.009  0.010
    3  0.000  0.001  0.009  0.010
    4  0.000  0.001  0.009  0.010
    5  0.005  0.000  0.001  0.006
    6  0.000  0.001  0.009  0.010
    7  0.000  0.001  0.009  0.010
    8  0.000  0.001  0.009  0.010
    9  0.022  0.002  0.001  0.025
   10  0.009  0.001  0.026  0.037
   11  0.000  0.000  0.044  0.044
   12  0.009  0.001  0.026  0.037
   13  0.000  0.000  0.044  0.044
   14  0.000  0.000  0.044  0.044
   15  0.009  0.002  0.011  0.022
   16  0.009  0.001  0.026  0.037
   17  0.009  0.002  0.011  0.022
   18  0.009  0.002  0.011  0.022
   19  0.000  0.000  0.024  0.025
   20  0.005  0.001  0.043  0.049
   21  0.005  0.001  0.043  0.049
   22  0.009  0.001  0.009  0.019
   23  0.005  0.001  0.043  0.049
   24  0.009  0.001  0.009  0.020
   25  0.000  0.000  0.024  0.025
   26  0.000  0.000  0.024  0.025
   27  0.009  0.001  0.009  0.019
   28  0.003  0.000  0.000  0.004
   29  0.000  0.000  0.004  0.005
   30  0.000  0.000  0.004  0.005
   31  0.000  0.000  0.004  0.005
   32  0.000  0.000  0.004  0.005
   33  0.000  0.000  0.004  0.005
   34  0.000  0.000  0.004  0.005
   35  0.014  0.002  0.001  0.017
   36  0.002  0.000  0.004  0.006
   37  0.000  0.004  0.000  0.004
   38  0.001  0.006  0.000  0.006
tot    0.155  0.038  0.561  0.754
 
band    15 # energy   -5.53205881 # occ.  2.00000000
 
ion      s      p      d    tot
    1  0.000  0.001  0.004  0.005
    2  0.000  0.001  0.005  0.006
    3  0.008  0.001  0.004  0.014
    4  0.000  0.001  0.005  0.006
    5  0.000  0.001  0.011  0.012
    6  0.005  0.001  0.004  0.010
    7  0.008  0.001  0.004  0.014
    8  0.005  0.001  0.004  0.010
    9  0.000  0.000  0.008  0.008
   10  0.000  0.001  0.051  0.052
   11  0.016  0.001  0.020  0.037
   12  0.007  0.002  0.019  0.027
   13  0.016  0.001  0.020  0.037
   14  0.000  0.000  0.049  0.049
   15  0.002  0.001  0.019  0.022
   16  0.007  0.002  0.019  0.027
   17  0.002  0.001  0.019  0.022
   18  0.000  0.001  0.010  0.011
   19  0.007  0.000  0.019  0.026
   20  0.000  0.000  0.070  0.070
   21  0.017  0.001  0.022  0.040
   22  0.002  0.001  0.019  0.022
   23  0.017  0.001  0.022  0.040
   24  0.000  0.001  0.031  0.032
   25  0.000  0.001  0.014  0.015
   26  0.007  0.000  0.019  0.026
   27  0.002  0.001  0.019  0.022
   28  0.000  0.001  0.009  0.009
   29  0.002  0.001  0.004  0.007
   30  0.011  0.001  0.003  0.016
   31  0.002  0.001  0.004  0.007
   32  0.004  0.001  0.004  0.009
   33  0.011  0.001  0.003  0.016
   34  0.004  0.001  0.004  0.009
   35  0.000  0.000  0.004  0.004
   36  0.000  0.002  0.001  0.003
   37  0.000  0.001  0.000  0.001
   38  0.000  0.003  0.000  0.003
tot    0.162  0.036  0.546  0.743
 
band    16 # energy   -5.53204228 # occ.  2.00000000
 
ion      s      p      d    tot
    1  0.000  0.001  0.004  0.005
    2  0.009  0.001  0.004  0.014
    3  0.001  0.000  0.004  0.006
    4  0.009  0.001  0.004  0.014
    5  0.000  0.001  0.011  0.012
    6  0.004  0.001  0.005  0.010
    7  0.001  0.000  0.004  0.006
    8  0.004  0.001  0.005  0.010
    9  0.000  0.000  0.008  0.008
   10  0.010  0.002  0.008  0.019
   11  0.005  0.000  0.039  0.045
   12  0.002  0.001  0.040  0.044
   13  0.005  0.000  0.039  0.045
   14  0.021  0.001  0.011  0.033
   15  0.001  0.001  0.013  0.015
   16  0.002  0.001  0.040  0.044
   17  0.001  0.001  0.013  0.015
   18  0.002  0.000  0.023  0.025
   19  0.002  0.001  0.016  0.019
   20  0.022  0.002  0.006  0.030
   21  0.006  0.000  0.054  0.060
   22  0.001  0.001  0.027  0.029
   23  0.006  0.000  0.054  0.060
   24  0.003  0.001  0.014  0.018
   25  0.009  0.000  0.020  0.030
   26  0.002  0.001  0.016  0.019
   27  0.001  0.001  0.027  0.029
   28  0.000  0.001  0.009  0.009
   29  0.009  0.001  0.003  0.014
   30  0.000  0.001  0.004  0.005
   31  0.009  0.001  0.003  0.014
   32  0.007  0.001  0.004  0.012
   33  0.000  0.001  0.004  0.005
   34  0.007  0.001  0.004  0.012
   35  0.000  0.000  0.004  0.004
   36  0.000  0.002  0.001  0.003
   37  0.000  0.001  0.000  0.001
   38  0.000  0.003  0.000  0.003
tot    0.162  0.036  0.546  0.743
 
band    17 # energy   -5.48327377 # occ.  2.00000000
 
ion      s      p      d    tot
    1  0.000  0.001  0.015  0.016
    2  0.010  0.001  0.005  0.016
    3  0.002  0.000  0.005  0.008
    4  0.010  0.001  0.005  0.016
    5  0.000  0.000  0.005  0.005
    6  0.003  0.001  0.006  0.010
    7  0.002  0.000  0.005  0.008
    8  0.003  0.001  0.006  0.010
    9  0.000  0.001  0.008  0.009
   10  0.000  0.001  0.028  0.028
   11  0.001  0.001  0.020  0.022
   12  0.007  0.000  0.023  0.030
   13  0.001  0.001  0.020  0.022
   14  0.000  0.001  0.021  0.022
   15  0.011  0.002  0.021  0.035
   16  0.006  0.000  0.023  0.030
   17  0.012  0.002  0.021  0.034
   18  0.000  0.000  0.065  0.065
   19  0.012  0.001  0.020  0.034
   20  0.000  0.002  0.018  0.020
   21  0.000  0.001  0.022  0.023
   22  0.018  0.001  0.021  0.040
   23  0.000  0.001  0.022  0.023
   24  0.000  0.000  0.035  0.035
   25  0.000  0.000  0.066  0.066
   26  0.013  0.001  0.020  0.033
   27  0.018  0.001  0.021  0.039
   28  0.000  0.001  0.004  0.005
   29  0.005  0.001  0.004  0.010
   30  0.000  0.000  0.004  0.005
   31  0.005  0.001  0.004  0.010
   32  0.003  0.001  0.002  0.006
   33  0.000  0.000  0.004  0.005
   34  0.003  0.001  0.002  0.006
   35  0.000  0.001  0.007  0.008
   36  0.000  0.000  0.000  0.001
   37  0.000  0.000  0.000  0.000
   38  0.000  0.000  0.000  0.000
tot    0.148  0.029  0.575  0.752
 
band    18 # energy   -5.48326360 # occ.  2.00000000
 
ion      s      p      d    tot
    1  0.000  0.001  0.015  0.016
    2  0.000  0.000  0.006  0.006
    3  0.008  0.001  0.005  0.015
    4  0.000  0.000  0.006  0.006
    5  0.000  0.000  0.005  0.005
    6  0.007  0.001  0.005  0.013
    7  0.008  0.001  0.005  0.015
    8  0.007  0.001  0.005  0.013
    9  0.000  0.001  0.008  0.009
   10  0.009  0.000  0.021  0.030
   11  0.000  0.001  0.020  0.022
   12  0.002  0.001  0.026  0.029
   13  0.000  0.001  0.021  0.022
   14  0.001  0.001  0.019  0.022
   15  0.004  0.001  0.050  0.055
   16  0.002  0.001  0.026  0.029
   17  0.004  0.001  0.051  0.055
   18  0.015  0.002  0.006  0.024
   19  0.004  0.001  0.050  0.055
   20  0.000  0.000  0.023  0.023
   21  0.000  0.001  0.019  0.021
   22  0.006  0.001  0.030  0.037
   23  0.000  0.001  0.019  0.021
   24  0.024  0.001  0.016  0.041
   25  0.017  0.001  0.004  0.022
   26  0.004  0.001  0.051  0.056
   27  0.006  0.001  0.030  0.037
   28  0.000  0.001  0.004  0.005
   29  0.000  0.000  0.003  0.004
   30  0.006  0.001  0.003  0.009
   31  0.000  0.000  0.003  0.004
   32  0.003  0.001  0.005  0.008
   33  0.006  0.001  0.002  0.009
   34  0.003  0.001  0.005  0.008
   35  0.000  0.001  0.007  0.008
   36  0.000  0.000  0.000  0.001
   37  0.000  0.000  0.000  0.000
   38  0.000  0.000  0.000  0.000
tot    0.148  0.029  0.575  0.752
 
band    19 # energy   -5.25462046 # occ.  2.00000000
 
ion      s      p      d    tot
    1  0.012  0.000  0.002  0.014
    2  0.000  0.000  0.010  0.010
    3  0.000  0.000  0.010  0.010
    4  0.000  0.000  0.010  0.010
    5  0.002  0.000  0.001  0.003
    6  0.000  0.000  0.010  0.010
    7  0.000  0.000  0.010  0.010
    8  0.000  0.000  0.010  0.010
    9  0.004  0.000  0.002  0.007
   10  0.001  0.001  0.008  0.009
   11  0.000  0.000  0.012  0.013
   12  0.001  0.001  0.008  0.009
   13  0.000  0.000  0.012  0.013
   14  0.000  0.000  0.012  0.013
   15  0.000  0.000  0.014  0.015
   16  0.001  0.001  0.008  0.009
   17  0.000  0.000  0.014  0.015
   18  0.000  0.000  0.014  0.015
   19  0.000  0.000  0.022  0.023
   20  0.001  0.000  0.021  0.023
   21  0.001  0.000  0.021  0.023
   22  0.000  0.000  0.011  0.012
   23  0.001  0.000  0.021  0.023
   24  0.000  0.000  0.011  0.012
   25  0.000  0.000  0.022  0.023
   26  0.000  0.000  0.022  0.023
   27  0.000  0.000  0.011  0.012
   28  0.012  0.000  0.009  0.021
   29  0.001  0.001  0.017  0.018
   30  0.001  0.001  0.017  0.018
   31  0.001  0.001  0.017  0.018
   32  0.001  0.001  0.017  0.018
   33  0.001  0.001  0.017  0.018
   34  0.001  0.001  0.017  0.018
   35  0.003  0.000  0.001  0.003
   36  0.029  0.007  0.033  0.069
   37  0.006  0.093  0.000  0.098
   38  0.012  0.133  0.000  0.145
tot    0.095  0.244  0.472  0.811
 
band    20 # energy   -5.18043915 # occ.  2.00000000
 
ion      s      p      d    tot
    1  0.000  0.000  0.009  0.010
    2  0.000  0.000  0.007  0.008
    3  0.006  0.000  0.010  0.016
    4  0.000  0.000  0.007  0.008
    5  0.000  0.000  0.023  0.023
    6  0.004  0.000  0.007  0.011
    7  0.006  0.000  0.010  0.016
    8  0.004  0.000  0.007  0.011
    9  0.000  0.001  0.006  0.007
   10  0.000  0.000  0.006  0.006
   11  0.000  0.000  0.022  0.022
   12  0.000  0.000  0.007  0.007
   13  0.000  0.000  0.022  0.022
   14  0.000  0.000  0.026  0.026
   15  0.000  0.000  0.009  0.010
   16  0.000  0.000  0.007  0.007
   17  0.000  0.000  0.009  0.010
   18  0.001  0.000  0.024  0.025
   19  0.000  0.000  0.011  0.012
   20  0.000  0.000  0.033  0.033
   21  0.000  0.000  0.025  0.026
   22  0.000  0.000  0.023  0.024
   23  0.000  0.000  0.025  0.026
   24  0.000  0.001  0.019  0.020
   25  0.000  0.000  0.009  0.009
   26  0.000  0.000  0.011  0.012
   27  0.000  0.000  0.023  0.024
   28  0.000  0.000  0.017  0.017
   29  0.014  0.001  0.011  0.026
   30  0.000  0.001  0.011  0.012
   31  0.014  0.001  0.011  0.026
   32  0.014  0.001  0.005  0.020
   33  0.000  0.001  0.011  0.012
   34  0.014  0.001  0.005  0.020
   35  0.000  0.000  0.022  0.022
   36  0.000  0.004  0.004  0.008
   37  0.000  0.051  0.000  0.051
   38  0.000  0.113  0.000  0.113
tot    0.077  0.180  0.501  0.757
 
band    21 # energy   -5.18040420 # occ.  2.00000000
 
ion      s      p      d    tot
    1  0.000  0.000  0.009  0.010
    2  0.006  0.000  0.009  0.015
    3  0.001  0.000  0.006  0.007
    4  0.006  0.000  0.009  0.015
    5  0.000  0.000  0.023  0.023
    6  0.003  0.000  0.009  0.012
    7  0.001  0.000  0.006  0.007
    8  0.003  0.000  0.009  0.012
    9  0.000  0.001  0.006  0.007
   10  0.000  0.000  0.007  0.008
   11  0.000  0.000  0.025  0.025
   12  0.000  0.000  0.006  0.007
   13  0.000  0.000  0.025  0.025
   14  0.000  0.000  0.021  0.021
   15  0.001  0.000  0.019  0.020
   16  0.000  0.000  0.006  0.007