PROCAR new format
# of k-points:   10         # of bands:  252         # of ions:   37

 k-point     1 :    0.00000000 0.00000000 0.00000000     weight = 0.01562500

band     1 # energy  -11.62787090 # occ.  2.00000000
 
ion      s      p      d    tot
    1  0.000  0.000  0.000  0.000
    2  0.000  0.000  0.000  0.000
    3  0.000  0.000  0.000  0.000
    4  0.000  0.000  0.000  0.000
    5  0.000  0.000  0.000  0.000
    6  0.000  0.000  0.000  0.000
    7  0.000  0.000  0.000  0.000
    8  0.000  0.000  0.000  0.000
    9  0.000  0.000  0.000  0.000
   10  0.000  0.000  0.000  0.000
   11  0.000  0.000  0.000  0.000
   12  0.000  0.000  0.000  0.000
   13  0.000  0.000  0.000  0.000
   14  0.000  0.000  0.000  0.000
   15  0.000  0.000  0.000  0.000
   16  0.000  0.000  0.000  0.000
   17  0.000  0.000  0.000  0.000
   18  0.000  0.000  0.000  0.000
   19  0.000  0.000  0.000  0.000
   20  0.001  0.000  0.001  0.002
   21  0.001  0.000  0.001  0.002
   22  0.000  0.000  0.000  0.000
   23  0.001  0.000  0.001  0.002
   24  0.000  0.000  0.000  0.000
   25  0.000  0.000  0.000  0.000
   26  0.000  0.000  0.000  0.000
   27  0.000  0.000  0.000  0.000
   28  0.000  0.000  0.000  0.000
   29  0.000  0.000  0.000  0.001
   30  0.000  0.000  0.000  0.001
   31  0.000  0.000  0.000  0.001
   32  0.000  0.000  0.000  0.001
   33  0.000  0.000  0.000  0.001
   34  0.000  0.000  0.000  0.001
   35  0.000  0.000  0.000  0.000
   36  0.092  0.071  0.164  0.328
   37  0.613  0.014  0.000  0.627
tot    0.710  0.088  0.169  0.966
 
band     2 # energy   -8.20115251 # occ.  2.00000000
 
ion      s      p      d    tot
    1  0.006  0.001  0.000  0.007
    2  0.006  0.001  0.000  0.007
    3  0.006  0.001  0.000  0.007
    4  0.006  0.001  0.000  0.007
    5  0.006  0.001  0.000  0.007
    6  0.006  0.001  0.000  0.007
    7  0.006  0.001  0.000  0.007
    8  0.006  0.001  0.000  0.007
    9  0.006  0.001  0.000  0.007
   10  0.026  0.000  0.000  0.026
   11  0.027  0.000  0.000  0.028
   12  0.026  0.000  0.000  0.026
   13  0.027  0.000  0.000  0.028
   14  0.027  0.000  0.000  0.028
   15  0.025  0.000  0.000  0.026
   16  0.026  0.000  0.000  0.026
   17  0.025  0.000  0.000  0.026
   18  0.025  0.000  0.000  0.026
   19  0.022  0.000  0.000  0.023
   20  0.029  0.000  0.000  0.029
   21  0.029  0.000  0.000  0.029
   22  0.024  0.000  0.000  0.024
   23  0.029  0.000  0.000  0.029
   24  0.024  0.000  0.000  0.024
   25  0.022  0.000  0.000  0.023
   26  0.022  0.000  0.000  0.023
   27  0.024  0.000  0.000  0.024
   28  0.004  0.000  0.000  0.005
   29  0.005  0.000  0.000  0.005
   30  0.005  0.000  0.000  0.005
   31  0.005  0.000  0.000  0.005
   32  0.005  0.000  0.000  0.005
   33  0.005  0.000  0.000  0.005
   34  0.005  0.000  0.000  0.005
   35  0.005  0.000  0.000  0.005
   36  0.007  0.004  0.001  0.012
   37  0.003  0.000  0.000  0.003
tot    0.565  0.015  0.005  0.585
 
band     3 # energy   -7.04112395 # occ.  2.00000000
 
ion      s      p      d    tot
    1  0.017  0.000  0.001  0.018
    2  0.016  0.000  0.001  0.018
    3  0.016  0.000  0.001  0.018
    4  0.016  0.000  0.001  0.018
    5  0.016  0.000  0.001  0.018
    6  0.016  0.000  0.001  0.018
    7  0.016  0.000  0.001  0.018
    8  0.016  0.000  0.001  0.018
    9  0.017  0.000  0.001  0.018
   10  0.011  0.001  0.002  0.015
   11  0.010  0.002  0.003  0.014
   12  0.011  0.001  0.002  0.015
   13  0.010  0.002  0.003  0.014
   14  0.010  0.002  0.003  0.014
   15  0.011  0.001  0.002  0.015
   16  0.011  0.001  0.002  0.015
   17  0.011  0.001  0.002  0.015
   18  0.011  0.001  0.002  0.015
   19  0.011  0.001  0.003  0.016
   20  0.016  0.001  0.003  0.021
   21  0.016  0.001  0.003  0.021
   22  0.012  0.001  0.003  0.017
   23  0.016  0.001  0.003  0.021
   24  0.012  0.001  0.003  0.017
   25  0.011  0.001  0.003  0.016
   26  0.011  0.001  0.003  0.016
   27  0.012  0.001  0.003  0.017
   28  0.013  0.000  0.001  0.014
   29  0.014  0.001  0.001  0.016
   30  0.014  0.001  0.001  0.016
   31  0.014  0.001  0.001  0.016
   32  0.014  0.001  0.001  0.016
   33  0.014  0.001  0.001  0.016
   34  0.014  0.001  0.001  0.016
   35  0.013  0.000  0.001  0.014
   36  0.018  0.004  0.004  0.027
   37  0.004  0.000  0.000  0.004
tot    0.499  0.035  0.073  0.608
 
band     4 # energy   -6.11275491 # occ.  2.00000000
 
ion      s      p      d    tot
    1  0.000  0.000  0.006  0.006
    2  0.004  0.000  0.005  0.008
    3  0.004  0.000  0.005  0.008
    4  0.004  0.000  0.005  0.008
    5  0.002  0.000  0.002  0.004
    6  0.004  0.000  0.005  0.008
    7  0.004  0.000  0.005  0.008
    8  0.004  0.000  0.005  0.008
    9  0.018  0.001  0.001  0.020
   10  0.008  0.001  0.012  0.020
   11  0.005  0.002  0.006  0.013
   12  0.008  0.001  0.012  0.020
   13  0.005  0.002  0.006  0.013
   14  0.005  0.002  0.006  0.013
   15  0.009  0.001  0.005  0.015
   16  0.008  0.001  0.012  0.020
   17  0.009  0.001  0.005  0.015
   18  0.009  0.001  0.005  0.015
   19  0.001  0.001  0.019  0.021
   20  0.026  0.002  0.026  0.053
   21  0.026  0.002  0.026  0.054
   22  0.006  0.002  0.007  0.015
   23  0.026  0.002  0.026  0.054
   24  0.006  0.002  0.007  0.015
   25  0.001  0.001  0.019  0.021
   26  0.001  0.001  0.019  0.021
   27  0.006  0.002  0.007  0.015
   28  0.013  0.000  0.004  0.016
   29  0.012  0.000  0.010  0.022
   30  0.012  0.000  0.010  0.022
   31  0.012  0.000  0.010  0.022
   32  0.012  0.000  0.010  0.022
   33  0.012  0.000  0.010  0.022
   34  0.012  0.000  0.010  0.022
   35  0.027  0.000  0.005  0.032
   36  0.000  0.006  0.018  0.024
   37  0.000  0.001  0.000  0.001
tot    0.318  0.035  0.348  0.701
 
band     5 # energy   -6.10413214 # occ.  2.00000000
 
ion      s      p      d    tot
    1  0.000  0.000  0.007  0.008
    2  0.001  0.000  0.003  0.004
    3  0.003  0.001  0.002  0.006
    4  0.005  0.001  0.003  0.009
    5  0.000  0.001  0.006  0.007
    6  0.002  0.001  0.002  0.005
    7  0.006  0.001  0.003  0.010
    8  0.000  0.000  0.003  0.003
    9  0.000  0.000  0.001  0.001
   10  0.007  0.000  0.026  0.033
   11  0.014  0.003  0.020  0.037
   12  0.034  0.002  0.006  0.043
   13  0.047  0.001  0.011  0.059
   14  0.009  0.003  0.022  0.034
   15  0.000  0.002  0.006  0.009
   16  0.011  0.001  0.023  0.034
   17  0.001  0.000  0.010  0.011
   18  0.000  0.002  0.006  0.008
   19  0.003  0.003  0.006  0.012
   20  0.014  0.002  0.035  0.051
   21  0.070  0.001  0.013  0.084
   22  0.016  0.002  0.005  0.022
   23  0.022  0.002  0.032  0.056
   24  0.003  0.001  0.022  0.026
   25  0.002  0.003  0.005  0.010
   26  0.010  0.000  0.013  0.024
   27  0.005  0.001  0.020  0.026
   28  0.000  0.000  0.001  0.001
   29  0.001  0.000  0.003  0.005
   30  0.007  0.001  0.005  0.013
   31  0.001  0.000  0.003  0.004
   32  0.007  0.001  0.005  0.013
   33  0.002  0.001  0.003  0.005
   34  0.002  0.001  0.003  0.006
   35  0.000  0.000  0.004  0.004
   36  0.000  0.005  0.011  0.017
   37  0.000  0.000  0.000  0.000
tot    0.305  0.045  0.348  0.699
 
band     6 # energy   -6.10412110 # occ.  2.00000000
 
ion      s      p      d    tot
    1  0.000  0.000  0.007  0.008
    2  0.005  0.001  0.002  0.009
    3  0.003  0.001  0.003  0.007
    4  0.000  0.000  0.002  0.003
    5  0.000  0.001  0.006  0.007
    6  0.004  0.001  0.003  0.007
    7  0.000  0.000  0.002  0.003
    8  0.006  0.001  0.003  0.009
    9  0.000  0.000  0.001  0.001
   10  0.028  0.002  0.010  0.040
   11  0.032  0.002  0.015  0.049
   12  0.000  0.000  0.030  0.030
   13  0.000  0.004  0.024  0.028
   14  0.038  0.001  0.014  0.053
   15  0.001  0.001  0.008  0.010
   16  0.024  0.002  0.013  0.039
   17  0.000  0.003  0.005  0.008
   18  0.001  0.001  0.009  0.011
   19  0.007  0.001  0.010  0.018
   20  0.057  0.001  0.018  0.076
   21  0.000  0.002  0.040  0.043
   22  0.000  0.000  0.027  0.027
   23  0.048  0.001  0.021  0.071
   24  0.013  0.001  0.009  0.023
   25  0.008  0.001  0.011  0.020
   26  0.000  0.004  0.003  0.007
   27  0.011  0.001  0.012  0.024
   28  0.000  0.000  0.001  0.001
   29  0.005  0.001  0.004  0.011
   30  0.000  0.000  0.002  0.003
   31  0.005  0.001  0.005  0.011
   32  0.000  0.000  0.002  0.002
   33  0.005  0.001  0.004  0.010
   34  0.005  0.001  0.004  0.009
   35  0.000  0.000  0.004  0.004
   36  0.000  0.005  0.011  0.017
   37  0.000  0.000  0.000  0.000
tot    0.305  0.045  0.348  0.699
 
band     7 # energy   -6.08436332 # occ.  2.00000000
 
ion      s      p      d    tot
    1  0.010  0.000  0.001  0.011
    2  0.004  0.000  0.005  0.009
    3  0.004  0.000  0.005  0.009
    4  0.004  0.000  0.005  0.009
    5  0.011  0.000  0.003  0.013
    6  0.004  0.000  0.005  0.009
    7  0.004  0.000  0.005  0.009
    8  0.004  0.000  0.005  0.009
    9  0.000  0.001  0.006  0.007
   10  0.000  0.001  0.015  0.016
   11  0.003  0.001  0.004  0.009
   12  0.000  0.001  0.015  0.016
   13  0.003  0.001  0.004  0.009
   14  0.003  0.001  0.004  0.009
   15  0.018  0.001  0.004  0.024
   16  0.000  0.001  0.015  0.016
   17  0.018  0.001  0.004  0.024
   18  0.018  0.002  0.004  0.024
   19  0.009  0.001  0.014  0.024
   20  0.004  0.001  0.026  0.030
   21  0.004  0.001  0.026  0.030
   22  0.018  0.002  0.007  0.027
   23  0.004  0.001  0.026  0.030
   24  0.018  0.002  0.007  0.027
   25  0.009  0.001  0.014  0.024
   26  0.009  0.001  0.014  0.024
   27  0.018  0.002  0.007  0.027
   28  0.003  0.000  0.012  0.016
   29  0.013  0.001  0.013  0.027
   30  0.013  0.001  0.013  0.027
   31  0.013  0.001  0.013  0.027
   32  0.013  0.001  0.013  0.027
   33  0.013  0.001  0.013  0.027
   34  0.013  0.001  0.013  0.027
   35  0.003  0.000  0.009  0.013
   36  0.038  0.003  0.014  0.054
   37  0.004  0.000  0.000  0.004
tot    0.326  0.032  0.366  0.725
 
band     8 # energy   -6.05979556 # occ.  2.00000000
 
ion      s      p      d    tot
    1  0.020  0.000  0.016  0.035
    2  0.015  0.000  0.016  0.031
    3  0.015  0.000  0.016  0.031
    4  0.015  0.000  0.016  0.031
    5  0.010  0.000  0.017  0.028
    6  0.015  0.000  0.016  0.031
    7  0.015  0.000  0.016  0.031
    8  0.015  0.000  0.016  0.031
    9  0.015  0.000  0.014  0.030
   10  0.003  0.000  0.029  0.033
   11  0.013  0.000  0.024  0.036
   12  0.003  0.000  0.029  0.033
   13  0.013  0.000  0.024  0.036
   14  0.013  0.000  0.023  0.036
   15  0.007  0.000  0.024  0.032
   16  0.003  0.000  0.029  0.033
   17  0.007  0.000  0.024  0.032
   18  0.007  0.000  0.024  0.032
   19  0.005  0.000  0.008  0.014
   20  0.002  0.000  0.021  0.023
   21  0.002  0.000  0.021  0.023
   22  0.000  0.000  0.011  0.012
   23  0.002  0.000  0.021  0.023
   24  0.000  0.000  0.011  0.012
   25  0.005  0.000  0.008  0.014
   26  0.005  0.000  0.008  0.014
   27  0.000  0.000  0.011  0.012
   28  0.000  0.000  0.002  0.002
   29  0.001  0.000  0.002  0.003
   30  0.001  0.000  0.002  0.003
   31  0.001  0.000  0.002  0.003
   32  0.001  0.000  0.002  0.003
   33  0.001  0.000  0.002  0.003
   34  0.001  0.000  0.002  0.003
   35  0.002  0.000  0.001  0.003
   36  0.001  0.000  0.004  0.005
   37  0.000  0.000  0.000  0.000
tot    0.233  0.005  0.515  0.753
 
band     9 # energy   -6.01106355 # occ.  2.00000000
 
ion      s      p      d    tot
    1  0.008  0.001  0.001  0.011
    2  0.000  0.001  0.006  0.007
    3  0.000  0.001  0.006  0.007
    4  0.000  0.001  0.006  0.007
    5  0.016  0.002  0.001  0.018
    6  0.000  0.001  0.006  0.007
    7  0.000  0.001  0.006  0.007
    8  0.000  0.001  0.006  0.007
    9  0.000  0.000  0.002  0.002
   10  0.026  0.003  0.001  0.029
   11  0.018  0.001  0.025  0.043
   12  0.026  0.003  0.001  0.029
   13  0.018  0.001  0.024  0.043
   14  0.018  0.001  0.024  0.043
   15  0.000  0.001  0.021  0.022
   16  0.026  0.003  0.001  0.029
   17  0.000  0.001  0.021  0.022
   18  0.000  0.001  0.021  0.022
   19  0.019  0.002  0.006  0.027
   20  0.005  0.002  0.021  0.029
   21  0.005  0.002  0.021  0.029
   22  0.012  0.000  0.025  0.037
   23  0.005  0.002  0.021  0.029
   24  0.012  0.000  0.025  0.037
   25  0.019  0.002  0.006  0.027
   26  0.019  0.002  0.006  0.027
   27  0.012  0.000  0.025  0.037
   28  0.017  0.001  0.000  0.018
   29  0.001  0.000  0.004  0.006
   30  0.001  0.000  0.004  0.006
   31  0.001  0.000  0.004  0.006
   32  0.001  0.000  0.004  0.006
   33  0.001  0.000  0.004  0.006
   34  0.001  0.000  0.004  0.006
   35  0.001  0.001  0.006  0.008
   36  0.000  0.000  0.000  0.000
   37  0.000  0.000  0.000  0.000
tot    0.291  0.037  0.369  0.698
 
band    10 # energy   -5.98814107 # occ.  2.00000000
 
ion      s      p      d    tot
    1  0.000  0.001  0.003  0.004
    2  0.007  0.001  0.004  0.013
    3  0.009  0.001  0.004  0.014
    4  0.001  0.001  0.004  0.006
    5  0.000  0.000  0.005  0.005
    6  0.000  0.000  0.004  0.004
    7  0.006  0.001  0.003  0.010
    8  0.003  0.001  0.003  0.007
    9  0.000  0.001  0.011  0.012
   10  0.021  0.001  0.015  0.037
   11  0.000  0.001  0.027  0.028
   12  0.015  0.002  0.011  0.028
   13  0.006  0.001  0.015  0.022
   14  0.008  0.001  0.010  0.020
   15  0.002  0.001  0.041  0.044
   16  0.001  0.005  0.003  0.009
   17  0.039  0.001  0.020  0.060
   18  0.055  0.002  0.011  0.068
   19  0.001  0.000  0.034  0.036
   20  0.000  0.001  0.015  0.017
   21  0.000  0.001  0.014  0.016
   22  0.021  0.002  0.013  0.036
   23  0.000  0.002  0.012  0.015
   24  0.030  0.001  0.012  0.043
   25  0.033  0.002  0.007  0.042
   26  0.023  0.001  0.016  0.040
   27  0.001  0.004  0.017  0.021
   28  0.000  0.000  0.006  0.006
   29  0.000  0.000  0.001  0.002
   30  0.001  0.000  0.001  0.002
   31  0.001  0.000  0.002  0.004
   32  0.003  0.000  0.002  0.006
   33  0.003  0.001  0.002  0.006
   34  0.004  0.001  0.002  0.007
   35  0.000  0.001  0.004  0.004
   36  0.000  0.000  0.001  0.001
   37  0.000  0.000  0.000  0.000
tot    0.295  0.041  0.358  0.694
 
band    11 # energy   -5.98811733 # occ.  2.00000000
 
ion      s      p      d    tot
    1  0.000  0.001  0.003  0.004
    2  0.002  0.001  0.003  0.005
    3  0.000  0.000  0.003  0.004
    4  0.007  0.001  0.004  0.012
    5  0.000  0.000  0.005  0.005
    6  0.009  0.001  0.004  0.014
    7  0.003  0.001  0.004  0.008
    8  0.005  0.001  0.004  0.011
    9  0.000  0.001  0.011  0.012
   10  0.003  0.004  0.005  0.012
   11  0.009  0.001  0.008  0.018
   12  0.010  0.003  0.008  0.021
   13  0.004  0.001  0.019  0.024
   14  0.001  0.001  0.024  0.027
   15  0.062  0.002  0.007  0.071
   16  0.024  0.000  0.016  0.040
   17  0.025  0.001  0.028  0.054
   18  0.008  0.001  0.037  0.047
   19  0.037  0.002  0.004  0.043
   20  0.000  0.002  0.013  0.015
   21  0.000  0.002  0.014  0.015
   22  0.014  0.003  0.015  0.031
   23  0.000  0.001  0.016  0.017
   24  0.005  0.003  0.016  0.024
   25  0.005  0.000  0.031  0.036
   26  0.015  0.001  0.023  0.039
   27  0.034  0.001  0.011  0.046
   28  0.000  0.000  0.006  0.006
   29  0.004  0.001  0.002  0.007
   30  0.003  0.001  0.002  0.006
   31  0.003  0.001  0.002  0.005
   32  0.001  0.000  0.001  0.003
   33  0.001  0.000  0.002  0.003
   34  0.000  0.000  0.002  0.002
   35  0.000  0.001  0.004  0.004
   36  0.000  0.000  0.001  0.001
   37  0.000  0.000  0.000  0.000
tot    0.295  0.041  0.358  0.694
 
band    12 # energy   -5.61825603 # occ.  2.00000000
 
ion      s      p      d    tot
    1  0.000  0.001  0.004  0.005
    2  0.001  0.001  0.005  0.007
    3  0.009  0.001  0.004  0.014
    4  0.001  0.001  0.005  0.006
    5  0.000  0.001  0.009  0.011
    6  0.004  0.001  0.004  0.008
    7  0.009  0.001  0.004  0.015
    8  0.005  0.001  0.003  0.009
    9  0.000  0.000  0.008  0.008
   10  0.000  0.001  0.050  0.050
   11  0.019  0.001  0.018  0.038
   12  0.007  0.001  0.020  0.029
   13  0.017  0.001  0.022  0.039
   14  0.000  0.000  0.046  0.046
   15  0.002  0.000  0.019  0.021
   16  0.008  0.001  0.016  0.026
   17  0.001  0.000  0.018  0.020
   18  0.000  0.001  0.011  0.013
   19  0.003  0.000  0.017  0.021
   20  0.000  0.000  0.092  0.092
   21  0.013  0.001  0.033  0.047
   22  0.003  0.001  0.020  0.024
   23  0.015  0.001  0.024  0.040
   24  0.000  0.001  0.030  0.031
   25  0.000  0.001  0.010  0.010
   26  0.003  0.000  0.016  0.019
   27  0.004  0.001  0.018  0.023
   28  0.000  0.000  0.007  0.007
   29  0.005  0.001  0.006  0.012
   30  0.009  0.001  0.006  0.016
   31  0.004  0.001  0.006  0.010
   32  0.000  0.000  0.003  0.004
   33  0.008  0.001  0.005  0.015
   34  0.001  0.000  0.003  0.005
   35  0.000  0.000  0.002  0.002
   36  0.000  0.005  0.010  0.015
   37  0.000  0.000  0.000  0.000
tot    0.150  0.032  0.574  0.756
 
band    13 # energy   -5.61825136 # occ.  2.00000000
 
ion      s      p      d    tot
    1  0.000  0.001  0.004  0.005
    2  0.008  0.001  0.004  0.013
    3  0.001  0.000  0.004  0.005
    4  0.009  0.001  0.004  0.014
    5  0.000  0.001  0.009  0.011
    6  0.006  0.001  0.005  0.012
    7  0.000  0.000  0.004  0.005
    8  0.005  0.001  0.005  0.011
    9  0.000  0.000  0.008  0.008
   10  0.010  0.002  0.008  0.020
   11  0.005  0.000  0.039  0.044
   12  0.003  0.001  0.037  0.041
   13  0.007  0.000  0.035  0.043
   14  0.024  0.001  0.011  0.036
   15  0.000  0.001  0.013  0.015
   16  0.002  0.001  0.042  0.044
   17  0.001  0.001  0.014  0.016
   18  0.002  0.000  0.021  0.023
   19  0.001  0.001  0.011  0.013
   20  0.018  0.001  0.008  0.027
   21  0.006  0.000  0.066  0.072
   22  0.002  0.001  0.026  0.028
   23  0.004  0.000  0.075  0.079
   24  0.005  0.001  0.015  0.021
   25  0.004  0.000  0.019  0.023
   26  0.001  0.000  0.013  0.014
   27  0.001  0.001  0.027  0.029
   28  0.000  0.000  0.007  0.007
   29  0.004  0.001  0.004  0.009
   30  0.000  0.000  0.004  0.005
   31  0.005  0.001  0.004  0.010
   32  0.009  0.001  0.006  0.016
   33  0.001  0.000  0.004  0.006
   34  0.008  0.001  0.006  0.016
   35  0.000  0.000  0.002  0.002
   36  0.000  0.005  0.010  0.015
   37  0.000  0.000  0.000  0.000
tot    0.150  0.032  0.574  0.756
 
band    14 # energy   -5.60306087 # occ.  2.00000000
 
ion      s      p      d    tot
    1  0.015  0.002  0.001  0.018
    2  0.000  0.001  0.006  0.006
    3  0.000  0.001  0.006  0.006
    4  0.000  0.001  0.006  0.006
    5  0.002  0.000  0.002  0.004
    6  0.000  0.001  0.006  0.007
    7  0.000  0.001  0.006  0.006
    8  0.000  0.001  0.006  0.007
    9  0.006  0.000  0.000  0.007
   10  0.007  0.001  0.010  0.018
   11  0.006  0.001  0.032  0.039
   12  0.007  0.001  0.010  0.018
   13  0.006  0.001  0.032  0.039
   14  0.006  0.001  0.032  0.039
   15  0.000  0.000  0.029  0.029
   16  0.007  0.001  0.010  0.018
   17  0.000  0.000  0.029  0.029
   18  0.000  0.000  0.029  0.029
   19  0.008  0.001  0.005  0.014
   20  0.000  0.000  0.057  0.057
   21  0.000  0.000  0.057  0.057
   22  0.009  0.001  0.031  0.041
   23  0.000  0.000  0.057  0.057
   24  0.009  0.001  0.031  0.041
   25  0.008  0.001  0.005  0.014
   26  0.008  0.001  0.005  0.014
   27  0.009  0.001  0.031  0.041
   28  0.019  0.001  0.000  0.020
   29  0.000  0.001  0.010  0.010
   30  0.000  0.001  0.010  0.010
   31  0.000  0.001  0.010  0.010
   32  0.000  0.001  0.010  0.010
   33  0.000  0.001  0.010  0.010
   34  0.000  0.001  0.010  0.010
   35  0.001  0.000  0.004  0.005
   36  0.007  0.001  0.001  0.010
   37  0.000  0.000  0.000  0.000
tot    0.143  0.027  0.591  0.761
 
band    15 # energy   -5.56250545 # occ.  2.00000000
 
ion      s      p      d    tot
    1  0.000  0.000  0.002  0.002
    2  0.000  0.001  0.009  0.010
    3  0.000  0.001  0.009  0.010
    4  0.000  0.001  0.009  0.010
    5  0.016  0.001  0.000  0.018
    6  0.000  0.001  0.009  0.010
    7  0.000  0.001  0.009  0.010
    8  0.000  0.001  0.009  0.010
    9  0.014  0.002  0.002  0.018
   10  0.003  0.000  0.044  0.047
   11  0.004  0.001  0.020  0.025
   12  0.003  0.000  0.044  0.047
   13  0.004  0.001  0.020  0.025
   14  0.004  0.001  0.020  0.025
   15  0.015  0.002  0.012  0.029
   16  0.003  0.000  0.044  0.047
   17  0.015  0.002  0.012  0.029
   18  0.015  0.002  0.012  0.029
   19  0.006  0.000  0.032  0.039
   20  0.008  0.002  0.020  0.030
   21  0.008  0.002  0.020  0.030
   22  0.002  0.001  0.023  0.026
   23  0.008  0.002  0.020  0.030
   24  0.002  0.001  0.023  0.026
   25  0.006  0.000  0.033  0.039
   26  0.006  0.000  0.033  0.039
   27  0.002  0.001  0.023  0.026
   28  0.000  0.000  0.002  0.003
   29  0.000  0.000  0.006  0.007
   30  0.000  0.000  0.006  0.007
   31  0.000  0.000  0.006  0.007
   32  0.000  0.000  0.006  0.007
   33  0.000  0.000  0.006  0.007
   34  0.000  0.000  0.006  0.007
   35  0.007  0.001  0.000  0.009
   36  0.020  0.007  0.000  0.027
   37  0.002  0.001  0.000  0.003
tot    0.172  0.040  0.549  0.761
 
band    16 # energy   -5.51048065 # occ.  2.00000000
 
ion      s      p      d    tot
    1  0.000  0.001  0.014  0.015
    2  0.002  0.000  0.005  0.008
    3  0.008  0.001  0.004  0.013
    4  0.006  0.001  0.005  0.012
    5  0.000  0.000  0.006  0.006
    6  0.009  0.001  0.004  0.015
    7  0.002  0.001  0.005  0.008
    8  0.000  0.000  0.005  0.006
    9  0.000  0.001  0.006  0.007
   10  0.006  0.000  0.024  0.031
   11  0.000  0.001  0.021  0.022
   12  0.000  0.001  0.032  0.032
   13  0.000  0.001  0.016  0.017
   14  0.000  0.001  0.019  0.020
   15  0.011  0.002  0.012  0.026
   16  0.010  0.000  0.019  0.029
   17  0.000  0.000  0.059  0.060
   18  0.007  0.001  0.029  0.038
   19  0.017  0.001  0.011  0.029
   20  0.000  0.001  0.026  0.027
   21  0.000  0.002  0.025  0.026
   22  0.001  0.001  0.028  0.029
   23  0.000  0.000  0.027  0.028
   24  0.013  0.001  0.022  0.036
   25  0.011  0.001  0.031  0.043
   26  0.001  0.000  0.066  0.067
   27  0.020  0.001  0.019  0.039
   28  0.000  0.001  0.005  0.006
   29  0.000  0.001  0.006  0.006
   30  0.004  0.001  0.004  0.009
   31  0.005  0.001  0.002  0.008
   32  0.006  0.001  0.003  0.009
   33  0.003  0.001  0.003  0.007
   34  0.000  0.000  0.005  0.006
   35  0.000  0.001  0.008  0.009
   36  0.000  0.000  0.003  0.003
   37  0.000  0.000  0.000  0.000
tot    0.145  0.028  0.580  0.752
 
band    17 # energy   -5.51047599 # occ.  2.00000000
 
ion      s      p      d    tot
    1  0.000  0.001  0.014  0.015
    2  0.007  0.001  0.005  0.013
    3  0.001  0.001  0.005  0.007
    4  0.004  0.001  0.005  0.009
    5  0.000  0.000  0.006  0.006
    6  0.000  0.000  0.005  0.006
    7  0.007  0.001  0.004  0.012
    8  0.009  0.001  0.004  0.015
    9  0.000  0.001  0.006  0.007
   10  0.005  0.000  0.026  0.031
   11  0.000  0.001  0.017  0.018
   12  0.011  0.000  0.018  0.029
   13  0.000  0.001  0.022  0.023
   14  0.000  0.001  0.018  0.020
   15  0.001  0.000  0.055  0.056
   16  0.001  0.001  0.030  0.032
   17  0.012  0.002  0.008  0.022
   18  0.005  0.001  0.038  0.044
   19  0.002  0.000  0.061  0.064
   20  0.000  0.001  0.026  0.027
   21  0.000  0.000  0.027  0.028
   22  0.022  0.001  0.018  0.040
   23  0.000  0.002  0.025  0.026
   24  0.009  0.001  0.024  0.034
   25  0.008  0.001  0.041  0.050
   26  0.018  0.001  0.006  0.025
   27  0.003  0.001  0.027  0.030
   28  0.000  0.001  0.005  0.006
   29  0.006  0.001  0.002  0.009
   30  0.002  0.000  0.004  0.007
   31  0.001  0.001  0.005  0.007
   32  0.001  0.000  0.005  0.006
   33  0.003  0.001  0.005  0.008
   34  0.006  0.001  0.002  0.009
   35  0.000  0.001  0.008  0.009
   36  0.000  0.000  0.003  0.003
   37  0.000  0.000  0.000  0.000
tot    0.145  0.028  0.580  0.752
 
band    18 # energy   -5.24423873 # occ.  2.00000000
 
ion      s      p      d    tot
    1  0.000  0.000  0.017  0.017
    2  0.000  0.000  0.009  0.009
    3  0.001  0.001  0.007  0.009
    4  0.008  0.001  0.006  0.015
    5  0.000  0.001  0.014  0.015
    6  0.006  0.001  0.006  0.012
    7  0.007  0.000  0.008  0.016
    8  0.004  0.000  0.009  0.013
    9  0.000  0.001  0.004  0.005
   10  0.000  0.000  0.016  0.017
   11  0.000  0.000  0.052  0.052
   12  0.000  0.001  0.022  0.022
   13  0.001  0.000  0.047  0.048
   14  0.001  0.000  0.049  0.050
   15  0.000  0.000  0.007  0.007
   16  0.000  0.000  0.008  0.008
   17  0.000  0.000  0.015  0.016
   18  0.000  0.000  0.012  0.012
   19  0.000  0.000  0.006  0.006
   20  0.001  0.000  0.081  0.082
   21  0.001  0.000  0.100  0.102
   22  0.002  0.000  0.016  0.018
   23  0.000  0.001  0.052  0.053
   24  0.001  0.000  0.019  0.021
   25  0.000  0.000  0.011  0.011
   26  0.000  0.000  0.014  0.014
   27  0.000  0.000  0.024  0.024
   28  0.000  0.001  0.003  0.004
   29  0.005  0.001  0.017  0.022
   30  0.009  0.001  0.021  0.031
   31  0.006  0.001  0.012  0.019
   32  0.010  0.001  0.018  0.029
   33  0.001  0.000  0.006  0.007
   34  0.000  0.000  0.008  0.008
   35  0.000  0.000  0.019  0.019
   36  0.000  0.005  0.015  0.021
   37  0.000  0.000  0.000  0.000
tot    0.063  0.020  0.752  0.835
 
band    19 # energy   -5.24422881 # occ.  2.00000000
 
ion      s      p      d    tot
    1  0.000  0.000  0.017  0.017
    2  0.008  0.001  0.006  0.015
    3  0.007  0.000  0.008  0.016
    4  0.000  0.000  0.009  0.010
    5  0.000  0.001  0.014  0.015
    6  0.003  0.000  0.009  0.012
    7  0.001  0.001  0.007  0.009
    8  0.005  0.001  0.006  0.011
    9  0.000  0.001  0.004  0.005
   10  0.000  0.000  0.015  0.015
   11  0.001  0.000  0.046  0.048
   12  0.000  0.000  0.009  0.009
   13  0.000  0.000  0.051  0.052
   14  0.001  0.000  0.049  0.050
   15  0.000  0.000  0.016  0.016
   16  0.000  0.001  0.022  0.023
   17  0.000  0.000  0.008  0.008
   18  0.000  0.000  0.011  0.011
   19  0.000  0.000  0.015  0.015
   20  0.001  0.001  0.075  0.076
   21  0.000  0.001  0.055  0.056
   22  0.000  0.000  0.023  0.024
   23  0.002  0.000  0.103  0.105
   24  0.001  0.000  0.020  0.021
   25  0.000  0.000  0.010  0.010
   26  0.000  0.000  0.006  0.006
   27  0.002  0.000  0.016  0.018
   28  0.000  0.001  0.003  0.004
   29  0.005  0.001  0.011  0.017
   30  0.001  0.000  0.006  0.008
   31  0.004  0.001  0.015  0.019
   32  0.001  0.000  0.009  0.010
   33  0.010  0.001  0.021  0.032
   34  0.010  0.001  0.019  0.031
   35  0.000  0.000  0.019  0.019
   36  0.000  0.005  0.015  0.021
   37  0.000  0.000  0.000  0.000
tot    0.063  0.020  0.752  0.835
 
band    20 # energy   -5.24113580 # occ.  2.00000000
 
ion      s      p      d    tot
    1  0.009  0.000  0.005  0.015
    2  0.000  0.001  0.015  0.016
    3  0.000  0.001  0.015  0.016
    4  0.000  0.001  0.015  0.016
    5  0.003  0.000  0.002  0.006
    6  0.000  0.001  0.015  0.016
    7  0.000  0.001  0.015  0.016
    8  0.000  0.001  0.015  0.016
    9  0.023  0.001  0.002  0.026
   10  0.001  0.000  0.017  0.019
   11  0.000  0.000  0.023  0.024
   12  0.001  0.000  0.017  0.019
   13  0.000  0.000  0.023  0.024
   14  0.000  0.000  0.023  0.024
   15  0.000  0.000  0.030  0.030
   16  0.001  0.000  0.017  0.019
   17  0.000  0.000  0.030  0.030
   18  0.000  0.000  0.030  0.031
   19  0.000  0.000  0.026  0.026
   20  0.001  0.000  0.040  0.041
   21  0.001  0.000  0.040  0.041
   22  0.000  0.000  0.027  0.028
   23  0.001  0.000  0.040  0.041
   24  0.000  0.000  0.027  0.028
   25  0.000  0.000  0.026  0.026
   26  0.000  0.000  0.026  0.026
   27  0.000  0.000  0.027  0.028
   28  0.000  0.000  0.010  0.010
   29  0.000  0.001  0.021  0.022
   30  0.000  0.001  0.021  0.022
   31  0.000  0.001  0.021  0.022
   32  0.000  0.001  0.021  0.022
   33  0.000  0.001  0.021  0.022
   34  0.000  0.001  0.021  0.022
   35  0.017  0.001  0.000  0.018
   36  0.012  0.000  0.010  0.022
   37  0.000  0.000  0.000  0.000
tot    0.071  0.017  0.739  0.827
 
band    21 # energy   -5.18568822 # occ.  2.00000000
 
ion      s      p      d    tot
    1  0.003  0.000  0.000  0.003
    2  0.000  0.000  0.010  0.011
    3  0.000  0.000  0.010  0.011
    4  0.000  0.000  0.010  0.011
    5  0.007  0.000  0.009  0.016
    6  0.000  0.000  0.010  0.011
    7  0.000  0.000  0.010  0.011
    8  0.000  0.000  0.010  0.011
    9  0.002  0.000  0.009  0.011
   10  0.000  0.000  0.020  0.020
   11  0.000  0.000  0.031  0.031
   12  0.000  0.000  0.020  0.020
   13  0.000  0.000  0.031  0.031
   14  0.000  0.000  0.031  0.031
   15  0.000  0.000  0.033  0.033
   16  0.000  0.000  0.020  0.020
   17  0.000  0.000  0.033  0.033
   18  0.000  0.000  0.033  0.033
   19  0.000  0.000  0.025  0.025
   20  0.000  0.000  0.040  0.040
   21  0.000  0.000  0.040  0.040
   22  0.001  0.000  0.028  0.029
   23  0.000  0.000  0.040  0.040
   24  0.001  0.000  0.028  0.029
   25  0.000  0.000  0.025  0.025
   26  0.000  0.000  0.025  0.025
   27  0.001  0.000  0.028  0.029
   28  0.022  0.000  0.005  0.028
   29  0.000  0.000  0.024  0.025
   30  0.000  0.000  0.024  0.025
   31  0.000  0.000  0.024  0.025
   32  0.000  0.000  0.024  0.025
   33  0.000  0.000  0.024  0.025
   34  0.000  0.000  0.024  0.025
   35  0.011  0.000  0.007  0.018
   36  0.005  0.003  0.001  0.009