PROCAR new format
# of k-points:   10         # of bands:  252         # of ions:   37

 k-point     1 :    0.00000000 0.00000000 0.00000000     weight = 0.01562500

band     1 # energy   -9.98321598 # occ.  2.00000000
 
ion      s      p      d    tot
    1  0.000  0.000  0.000  0.000
    2  0.000  0.000  0.000  0.000
    3  0.000  0.000  0.000  0.000
    4  0.000  0.000  0.000  0.000
    5  0.000  0.000  0.000  0.000
    6  0.000  0.000  0.000  0.000
    7  0.000  0.000  0.000  0.000
    8  0.000  0.000  0.000  0.000
    9  0.000  0.000  0.000  0.000
   10  0.000  0.000  0.000  0.000
   11  0.000  0.000  0.000  0.000
   12  0.000  0.000  0.000  0.000
   13  0.000  0.000  0.000  0.000
   14  0.000  0.000  0.000  0.000
   15  0.000  0.000  0.000  0.000
   16  0.000  0.000  0.000  0.000
   17  0.000  0.000  0.000  0.000
   18  0.000  0.000  0.000  0.000
   19  0.000  0.000  0.000  0.000
   20  0.002  0.000  0.001  0.003
   21  0.002  0.000  0.001  0.003
   22  0.000  0.000  0.000  0.000
   23  0.002  0.000  0.001  0.003
   24  0.000  0.000  0.000  0.000
   25  0.000  0.000  0.000  0.000
   26  0.000  0.000  0.000  0.000
   27  0.000  0.000  0.000  0.000
   28  0.000  0.000  0.000  0.000
   29  0.002  0.000  0.001  0.004
   30  0.002  0.000  0.001  0.004
   31  0.002  0.000  0.001  0.004
   32  0.002  0.000  0.001  0.004
   33  0.002  0.000  0.001  0.004
   34  0.002  0.000  0.001  0.004
   35  0.000  0.000  0.000  0.000
   36  0.110  0.065  0.114  0.289
   37  0.414  0.026  0.000  0.439
tot    0.547  0.094  0.124  0.765
 
band     2 # energy   -8.61338907 # occ.  2.00000000
 
ion      s      p      d    tot
    1  0.007  0.001  0.000  0.007
    2  0.007  0.001  0.000  0.007
    3  0.007  0.001  0.000  0.007
    4  0.007  0.001  0.000  0.007
    5  0.007  0.001  0.000  0.007
    6  0.007  0.001  0.000  0.007
    7  0.007  0.001  0.000  0.007
    8  0.007  0.001  0.000  0.007
    9  0.007  0.001  0.000  0.007
   10  0.027  0.000  0.000  0.027
   11  0.028  0.000  0.000  0.028
   12  0.027  0.000  0.000  0.027
   13  0.028  0.000  0.000  0.028
   14  0.028  0.000  0.000  0.028
   15  0.027  0.000  0.000  0.027
   16  0.027  0.000  0.000  0.027
   17  0.027  0.000  0.000  0.027
   18  0.027  0.000  0.000  0.027
   19  0.023  0.000  0.000  0.024
   20  0.024  0.000  0.000  0.025
   21  0.024  0.000  0.000  0.025
   22  0.024  0.000  0.000  0.025
   23  0.024  0.000  0.000  0.025
   24  0.024  0.000  0.000  0.025
   25  0.023  0.000  0.000  0.024
   26  0.023  0.000  0.000  0.024
   27  0.024  0.000  0.000  0.025
   28  0.004  0.000  0.000  0.005
   29  0.004  0.001  0.000  0.004
   30  0.004  0.001  0.000  0.004
   31  0.004  0.001  0.000  0.004
   32  0.004  0.001  0.000  0.004
   33  0.004  0.001  0.000  0.004
   34  0.004  0.001  0.000  0.004
   35  0.004  0.000  0.000  0.005
   36  0.000  0.004  0.003  0.007
   37  0.009  0.000  0.000  0.010
tot    0.561  0.016  0.007  0.585
 
band     3 # energy   -7.42010433 # occ.  2.00000000
 
ion      s      p      d    tot
    1  0.017  0.000  0.001  0.019
    2  0.017  0.000  0.001  0.019
    3  0.017  0.000  0.001  0.019
    4  0.017  0.000  0.001  0.019
    5  0.017  0.000  0.001  0.019
    6  0.017  0.000  0.001  0.019
    7  0.017  0.000  0.001  0.019
    8  0.017  0.000  0.001  0.019
    9  0.017  0.000  0.001  0.019
   10  0.010  0.002  0.002  0.014
   11  0.009  0.002  0.003  0.014
   12  0.010  0.002  0.002  0.014
   13  0.009  0.002  0.003  0.014
   14  0.009  0.002  0.003  0.014
   15  0.009  0.002  0.003  0.013
   16  0.010  0.002  0.002  0.014
   17  0.009  0.002  0.003  0.013
   18  0.009  0.002  0.003  0.013
   19  0.016  0.001  0.004  0.021
   20  0.015  0.001  0.005  0.021
   21  0.015  0.001  0.005  0.021
   22  0.017  0.001  0.004  0.022
   23  0.015  0.001  0.005  0.021
   24  0.017  0.001  0.004  0.022
   25  0.016  0.001  0.004  0.021
   26  0.016  0.001  0.004  0.021
   27  0.017  0.001  0.004  0.022
   28  0.013  0.001  0.000  0.014
   29  0.011  0.001  0.001  0.012
   30  0.011  0.001  0.001  0.012
   31  0.011  0.001  0.001  0.012
   32  0.011  0.001  0.001  0.012
   33  0.011  0.001  0.001  0.012
   34  0.011  0.001  0.001  0.012
   35  0.013  0.001  0.000  0.014
   36  0.002  0.004  0.004  0.009
   37  0.007  0.000  0.000  0.007
tot    0.487  0.036  0.081  0.603
 
band     4 # energy   -6.50702261 # occ.  2.00000000
 
ion      s      p      d    tot
    1  0.003  0.000  0.014  0.017
    2  0.009  0.000  0.011  0.021
    3  0.009  0.000  0.011  0.021
    4  0.009  0.000  0.011  0.021
    5  0.003  0.000  0.009  0.012
    6  0.009  0.000  0.011  0.021
    7  0.009  0.000  0.011  0.021
    8  0.009  0.000  0.011  0.021
    9  0.033  0.001  0.004  0.038
   10  0.011  0.001  0.020  0.031
   11  0.018  0.002  0.011  0.031
   12  0.011  0.001  0.020  0.031
   13  0.018  0.002  0.011  0.031
   14  0.018  0.002  0.011  0.031
   15  0.005  0.001  0.020  0.026
   16  0.011  0.001  0.020  0.031
   17  0.005  0.001  0.020  0.026
   18  0.005  0.001  0.020  0.026
   19  0.001  0.001  0.015  0.016
   20  0.017  0.002  0.011  0.029
   21  0.017  0.002  0.011  0.029
   22  0.009  0.002  0.003  0.013
   23  0.017  0.002  0.011  0.029
   24  0.009  0.002  0.003  0.013
   25  0.001  0.001  0.015  0.016
   26  0.001  0.001  0.015  0.016
   27  0.009  0.002  0.003  0.013
   28  0.006  0.000  0.000  0.006
   29  0.002  0.000  0.004  0.007
   30  0.002  0.000  0.004  0.007
   31  0.002  0.000  0.004  0.007
   32  0.002  0.000  0.004  0.007
   33  0.002  0.000  0.004  0.007
   34  0.002  0.000  0.004  0.007
   35  0.010  0.000  0.001  0.011
   36  0.002  0.002  0.002  0.006
   37  0.000  0.000  0.000  0.000
tot    0.308  0.031  0.359  0.698
 
band     5 # energy   -6.49295789 # occ.  2.00000000
 
ion      s      p      d    tot
    1  0.023  0.000  0.007  0.031
    2  0.011  0.000  0.014  0.025
    3  0.011  0.000  0.014  0.025
    4  0.011  0.000  0.014  0.025
    5  0.016  0.000  0.013  0.029
    6  0.011  0.000  0.014  0.025
    7  0.011  0.000  0.014  0.025
    8  0.011  0.000  0.014  0.025
    9  0.001  0.001  0.016  0.018
   10  0.000  0.000  0.032  0.032
   11  0.001  0.001  0.024  0.025
   12  0.000  0.000  0.032  0.032
   13  0.001  0.001  0.024  0.025
   14  0.001  0.001  0.024  0.025
   15  0.031  0.001  0.012  0.044
   16  0.000  0.000  0.032  0.032
   17  0.031  0.001  0.012  0.044
   18  0.031  0.001  0.012  0.044
   19  0.001  0.000  0.015  0.016
   20  0.015  0.000  0.011  0.026
   21  0.015  0.000  0.011  0.026
   22  0.004  0.002  0.009  0.014
   23  0.015  0.000  0.011  0.026
   24  0.004  0.002  0.009  0.014
   25  0.001  0.000  0.015  0.016
   26  0.001  0.000  0.015  0.016
   27  0.004  0.002  0.009  0.014
   28  0.000  0.000  0.000  0.000
   29  0.000  0.000  0.002  0.002
   30  0.000  0.000  0.002  0.002
   31  0.000  0.000  0.002  0.002
   32  0.000  0.000  0.002  0.002
   33  0.000  0.000  0.002  0.002
   34  0.000  0.000  0.002  0.002
   35  0.003  0.000  0.000  0.003
   36  0.002  0.002  0.000  0.005
   37  0.001  0.000  0.000  0.001
tot    0.268  0.021  0.438  0.726
 
band     6 # energy   -6.48774773 # occ.  2.00000000
 
ion      s      p      d    tot
    1  0.000  0.000  0.006  0.006
    2  0.006  0.001  0.004  0.011
    3  0.005  0.001  0.003  0.009
    4  0.006  0.001  0.004  0.011
    5  0.000  0.001  0.009  0.010
    6  0.000  0.000  0.003  0.003
    7  0.005  0.001  0.003  0.009
    8  0.000  0.000  0.003  0.003
    9  0.000  0.000  0.001  0.002
   10  0.000  0.000  0.028  0.029
   11  0.044  0.001  0.015  0.060
   12  0.014  0.001  0.011  0.026
   13  0.044  0.001  0.014  0.060
   14  0.000  0.002  0.034  0.036
   15  0.008  0.001  0.012  0.021
   16  0.013  0.001  0.011  0.026
   17  0.009  0.001  0.012  0.021
   18  0.000  0.004  0.002  0.007
   19  0.001  0.001  0.011  0.013
   20  0.000  0.003  0.025  0.028
   21  0.040  0.001  0.014  0.056
   22  0.025  0.002  0.011  0.038
   23  0.039  0.001  0.015  0.055
   24  0.000  0.000  0.037  0.037
   25  0.000  0.003  0.004  0.007
   26  0.001  0.001  0.011  0.013
   27  0.025  0.001  0.012  0.038
   28  0.000  0.000  0.001  0.001
   29  0.000  0.000  0.002  0.003
   30  0.007  0.001  0.003  0.011
   31  0.000  0.000  0.002  0.003
   32  0.004  0.001  0.004  0.009
   33  0.007  0.001  0.003  0.011
   34  0.004  0.001  0.004  0.008
   35  0.000  0.000  0.006  0.007
   36  0.000  0.002  0.002  0.004
   37  0.000  0.000  0.000  0.000
tot    0.308  0.043  0.342  0.693
 
band     7 # energy   -6.48772430 # occ.  2.00000000
 
ion      s      p      d    tot
    1  0.000  0.000  0.006  0.006
    2  0.001  0.000  0.003  0.004
    3  0.002  0.001  0.003  0.007
    4  0.001  0.000  0.003  0.004
    5  0.000  0.001  0.009  0.010
    6  0.007  0.001  0.003  0.012
    7  0.002  0.001  0.003  0.006
    8  0.007  0.001  0.003  0.012
    9  0.000  0.000  0.001  0.002
   10  0.018  0.002  0.006  0.025
   11  0.015  0.002  0.027  0.044
   12  0.004  0.001  0.023  0.028
   13  0.014  0.002  0.028  0.044
   14  0.059  0.001  0.008  0.068
   15  0.003  0.003  0.005  0.011
   16  0.005  0.001  0.022  0.028
   17  0.003  0.003  0.005  0.011
   18  0.011  0.000  0.015  0.026
   19  0.000  0.003  0.006  0.009
   20  0.053  0.001  0.011  0.065
   21  0.013  0.003  0.022  0.037
   22  0.008  0.000  0.029  0.038
   23  0.014  0.003  0.021  0.038
   24  0.033  0.002  0.003  0.038
   25  0.002  0.000  0.013  0.015
   26  0.000  0.003  0.006  0.009
   27  0.009  0.001  0.028  0.038
   28  0.000  0.000  0.001  0.001
   29  0.007  0.001  0.003  0.012
   30  0.001  0.000  0.003  0.004
   31  0.007  0.001  0.004  0.012
   32  0.004  0.001  0.002  0.006
   33  0.001  0.000  0.003  0.004
   34  0.004  0.001  0.002  0.007
   35  0.000  0.000  0.006  0.007
   36  0.000  0.002  0.002  0.004
   37  0.000  0.000  0.000  0.000
tot    0.308  0.043  0.342  0.693
 
band     8 # energy   -6.46989416 # occ.  2.00000000
 
ion      s      p      d    tot
    1  0.008  0.001  0.001  0.010
    2  0.000  0.001  0.006  0.007
    3  0.000  0.001  0.006  0.007
    4  0.000  0.001  0.006  0.007
    5  0.016  0.002  0.001  0.018
    6  0.000  0.001  0.006  0.007
    7  0.000  0.001  0.006  0.007
    8  0.000  0.001  0.006  0.007
    9  0.000  0.000  0.001  0.002
   10  0.027  0.003  0.002  0.032
   11  0.019  0.001  0.023  0.043
   12  0.026  0.003  0.002  0.031
   13  0.019  0.001  0.023  0.043
   14  0.019  0.001  0.023  0.043
   15  0.000  0.001  0.022  0.024
   16  0.026  0.003  0.002  0.031
   17  0.000  0.001  0.022  0.024
   18  0.000  0.001  0.022  0.023
   19  0.027  0.003  0.005  0.034
   20  0.004  0.002  0.017  0.023
   21  0.004  0.002  0.017  0.023
   22  0.010  0.000  0.026  0.036
   23  0.004  0.002  0.017  0.023
   24  0.010  0.000  0.026  0.036
   25  0.027  0.003  0.005  0.034
   26  0.027  0.003  0.005  0.034
   27  0.010  0.000  0.026  0.036
   28  0.010  0.001  0.001  0.012
   29  0.000  0.000  0.004  0.005
   30  0.000  0.000  0.004  0.005
   31  0.000  0.000  0.004  0.005
   32  0.000  0.000  0.004  0.005
   33  0.000  0.000  0.004  0.005
   34  0.000  0.000  0.004  0.005
   35  0.006  0.001  0.002  0.008
   36  0.000  0.000  0.000  0.001
   37  0.000  0.000  0.000  0.000
tot    0.301  0.041  0.352  0.694
 
band     9 # energy   -6.45355105 # occ.  2.00000000
 
ion      s      p      d    tot
    1  0.000  0.001  0.006  0.007
    2  0.006  0.001  0.004  0.012
    3  0.005  0.001  0.003  0.010
    4  0.007  0.001  0.004  0.012
    5  0.000  0.000  0.002  0.002
    6  0.000  0.000  0.003  0.004
    7  0.006  0.001  0.003  0.010
    8  0.000  0.000  0.003  0.004
    9  0.000  0.001  0.010  0.011
   10  0.043  0.000  0.014  0.057
   11  0.000  0.002  0.012  0.014
   12  0.010  0.003  0.013  0.027
   13  0.000  0.002  0.012  0.014
   14  0.000  0.001  0.012  0.013
   15  0.013  0.001  0.034  0.047
   16  0.011  0.003  0.013  0.028
   17  0.012  0.001  0.034  0.047
   18  0.050  0.002  0.003  0.056
   19  0.013  0.001  0.029  0.043
   20  0.007  0.001  0.008  0.017
   21  0.002  0.001  0.019  0.021
   22  0.005  0.003  0.009  0.018
   23  0.002  0.001  0.018  0.021
   24  0.022  0.000  0.015  0.037
   25  0.052  0.002  0.004  0.058
   26  0.012  0.001  0.029  0.043
   27  0.006  0.003  0.009  0.018
   28  0.000  0.001  0.007  0.008
   29  0.000  0.000  0.002  0.002
   30  0.004  0.001  0.002  0.007
   31  0.000  0.000  0.002  0.002
   32  0.003  0.001  0.003  0.007
   33  0.004  0.001  0.002  0.007
   34  0.003  0.001  0.003  0.007
   35  0.000  0.001  0.002  0.003
   36  0.000  0.000  0.001  0.001
   37  0.000  0.000  0.000  0.000
tot    0.301  0.042  0.351  0.694
 
band    10 # energy   -6.45351584 # occ.  2.00000000
 
ion      s      p      d    tot
    1  0.000  0.001  0.006  0.007
    2  0.002  0.001  0.003  0.005
    3  0.003  0.001  0.004  0.007
    4  0.001  0.001  0.003  0.005
    5  0.000  0.000  0.002  0.002
    6  0.008  0.001  0.004  0.013
    7  0.002  0.001  0.004  0.007
    8  0.008  0.001  0.004  0.013
    9  0.000  0.001  0.010  0.011
   10  0.000  0.004  0.013  0.017
   11  0.000  0.001  0.012  0.013
   12  0.033  0.001  0.014  0.048
   13  0.000  0.001  0.012  0.013
   14  0.000  0.003  0.011  0.014
   15  0.037  0.001  0.014  0.053
   16  0.032  0.001  0.014  0.047
   17  0.038  0.001  0.013  0.053
   18  0.000  0.000  0.044  0.044
   19  0.038  0.002  0.013  0.053
   20  0.000  0.001  0.022  0.023
   21  0.006  0.001  0.012  0.018
   22  0.017  0.001  0.013  0.031
   23  0.006  0.001  0.012  0.019
   24  0.000  0.004  0.007  0.011
   25  0.000  0.001  0.037  0.039
   26  0.039  0.002  0.012  0.053
   27  0.016  0.001  0.013  0.030
   28  0.000  0.001  0.007  0.008
   29  0.005  0.001  0.003  0.009
   30  0.001  0.000  0.003  0.004
   31  0.005  0.001  0.003  0.009
   32  0.002  0.000  0.002  0.004
   33  0.001  0.000  0.003  0.004
   34  0.002  0.001  0.002  0.004
   35  0.000  0.001  0.002  0.003
   36  0.000  0.000  0.001  0.001
   37  0.000  0.000  0.000  0.000
tot    0.301  0.042  0.351  0.694
 
band    11 # energy   -6.30759273 # occ.  2.00000000
 
ion      s      p      d    tot
    1  0.002  0.000  0.000  0.002
    2  0.001  0.000  0.001  0.002
    3  0.001  0.000  0.001  0.002
    4  0.001  0.000  0.001  0.002
    5  0.003  0.000  0.000  0.003
    6  0.001  0.000  0.001  0.002
    7  0.001  0.000  0.001  0.002
    8  0.001  0.000  0.001  0.002
    9  0.000  0.000  0.001  0.002
   10  0.000  0.000  0.005  0.005
   11  0.001  0.001  0.001  0.003
   12  0.000  0.000  0.004  0.005
   13  0.001  0.001  0.001  0.003
   14  0.001  0.001  0.001  0.003
   15  0.004  0.001  0.004  0.008
   16  0.000  0.000  0.004  0.005
   17  0.004  0.001  0.004  0.008
   18  0.004  0.001  0.004  0.008
   19  0.003  0.001  0.018  0.022
   20  0.002  0.000  0.027  0.029
   21  0.002  0.000  0.027  0.029
   22  0.010  0.002  0.023  0.034
   23  0.002  0.000  0.027  0.029
   24  0.010  0.002  0.023  0.034
   25  0.003  0.001  0.018  0.022
   26  0.003  0.001  0.018  0.022
   27  0.010  0.002  0.023  0.034
   28  0.031  0.000  0.021  0.052
   29  0.024  0.000  0.021  0.045
   30  0.024  0.000  0.021  0.045
   31  0.024  0.000  0.021  0.045
   32  0.024  0.000  0.021  0.045
   33  0.024  0.000  0.021  0.045
   34  0.024  0.000  0.021  0.045
   35  0.028  0.000  0.023  0.051
   36  0.002  0.000  0.021  0.023
   37  0.004  0.000  0.000  0.005
tot    0.274  0.015  0.432  0.721
 
band    12 # energy   -6.00322911 # occ.  2.00000000
 
ion      s      p      d    tot
    1  0.000  0.001  0.004  0.005
    2  0.001  0.001  0.005  0.006
    3  0.009  0.001  0.005  0.015
    4  0.001  0.001  0.005  0.006
    5  0.000  0.001  0.011  0.013
    6  0.005  0.001  0.004  0.010
    7  0.009  0.001  0.005  0.015
    8  0.005  0.001  0.004  0.010
    9  0.000  0.000  0.009  0.009
   10  0.000  0.001  0.050  0.051
   11  0.017  0.001  0.021  0.038
   12  0.008  0.002  0.018  0.028
   13  0.017  0.001  0.021  0.038
   14  0.000  0.000  0.050  0.051
   15  0.002  0.001  0.020  0.022
   16  0.008  0.002  0.018  0.028
   17  0.002  0.001  0.019  0.022
   18  0.000  0.002  0.010  0.012
   19  0.007  0.000  0.019  0.026
   20  0.000  0.000  0.067  0.067
   21  0.017  0.001  0.021  0.039
   22  0.002  0.001  0.019  0.022
   23  0.017  0.001  0.021  0.039
   24  0.000  0.001  0.031  0.032
   25  0.000  0.001  0.015  0.016
   26  0.007  0.000  0.019  0.026
   27  0.002  0.001  0.019  0.022
   28  0.000  0.001  0.009  0.009
   29  0.002  0.001  0.004  0.006
   30  0.010  0.001  0.004  0.015
   31  0.002  0.001  0.004  0.006
   32  0.004  0.001  0.004  0.009
   33  0.010  0.001  0.004  0.015
   34  0.004  0.001  0.004  0.009
   35  0.000  0.000  0.004  0.004
   36  0.000  0.002  0.002  0.005
   37  0.000  0.000  0.000  0.000
tot    0.164  0.033  0.548  0.745
 
band    13 # energy   -6.00321992 # occ.  2.00000000
 
ion      s      p      d    tot
    1  0.000  0.001  0.004  0.005
    2  0.009  0.001  0.004  0.015
    3  0.001  0.000  0.005  0.006
    4  0.009  0.001  0.004  0.015
    5  0.000  0.001  0.011  0.013
    6  0.005  0.001  0.005  0.011
    7  0.001  0.000  0.005  0.006
    8  0.005  0.001  0.005  0.011
    9  0.000  0.000  0.009  0.009
   10  0.010  0.002  0.008  0.020
   11  0.006  0.000  0.041  0.047
   12  0.003  0.001  0.039  0.043
   13  0.006  0.000  0.040  0.046
   14  0.022  0.001  0.011  0.034
   15  0.001  0.001  0.013  0.015
   16  0.003  0.001  0.040  0.043
   17  0.001  0.001  0.013  0.015
   18  0.002  0.000  0.023  0.025
   19  0.002  0.001  0.017  0.019
   20  0.022  0.002  0.006  0.030
   21  0.006  0.000  0.051  0.057
   22  0.001  0.001  0.027  0.029
   23  0.005  0.000  0.052  0.058
   24  0.003  0.001  0.014  0.018
   25  0.009  0.000  0.020  0.029
   26  0.002  0.001  0.017  0.020
   27  0.001  0.001  0.027  0.029
   28  0.000  0.001  0.009  0.009
   29  0.009  0.001  0.004  0.014
   30  0.000  0.001  0.004  0.005
   31  0.009  0.001  0.004  0.014
   32  0.007  0.001  0.004  0.011
   33  0.000  0.001  0.004  0.005
   34  0.007  0.001  0.004  0.011
   35  0.000  0.000  0.004  0.004
   36  0.000  0.002  0.002  0.005
   37  0.000  0.000  0.000  0.000
tot    0.164  0.033  0.548  0.745
 
band    14 # energy   -6.00166970 # occ.  2.00000000
 
ion      s      p      d    tot
    1  0.013  0.002  0.002  0.017
    2  0.000  0.001  0.009  0.009
    3  0.000  0.001  0.009  0.009
    4  0.000  0.001  0.009  0.009
    5  0.001  0.000  0.002  0.002
    6  0.000  0.001  0.009  0.009
    7  0.000  0.001  0.009  0.009
    8  0.000  0.001  0.009  0.009
    9  0.019  0.002  0.000  0.020
   10  0.011  0.001  0.014  0.027
   11  0.002  0.000  0.045  0.047
   12  0.011  0.001  0.014  0.026
   13  0.002  0.000  0.045  0.047
   14  0.002  0.000  0.045  0.047
   15  0.004  0.001  0.021  0.026
   16  0.011  0.001  0.014  0.026
   17  0.004  0.001  0.021  0.026
   18  0.004  0.001  0.021  0.026
   19  0.003  0.001  0.016  0.021
   20  0.002  0.000  0.048  0.050
   21  0.002  0.000  0.048  0.050
   22  0.011  0.001  0.015  0.027
   23  0.002  0.000  0.048  0.050
   24  0.011  0.001  0.015  0.027
   25  0.003  0.001  0.016  0.020
   26  0.003  0.001  0.016  0.021
   27  0.011  0.001  0.015  0.027
   28  0.010  0.001  0.000  0.012
   29  0.000  0.001  0.006  0.006
   30  0.000  0.001  0.006  0.006
   31  0.000  0.001  0.006  0.006
   32  0.000  0.001  0.006  0.006
   33  0.000  0.001  0.006  0.006
   34  0.000  0.001  0.006  0.006
   35  0.009  0.001  0.002  0.013
   36  0.000  0.000  0.002  0.002
   37  0.000  0.000  0.000  0.000
tot    0.150  0.028  0.574  0.753
 
band    15 # energy   -5.97431449 # occ.  2.00000000
 
ion      s      p      d    tot
    1  0.010  0.000  0.000  0.011
    2  0.000  0.001  0.009  0.009
    3  0.000  0.001  0.009  0.009
    4  0.000  0.001  0.009  0.009
    5  0.018  0.002  0.001  0.021
    6  0.000  0.001  0.009  0.009
    7  0.000  0.001  0.009  0.009
    8  0.000  0.001  0.009  0.009
    9  0.002  0.000  0.002  0.004
   10  0.000  0.000  0.039  0.039
   11  0.008  0.002  0.009  0.019
   12  0.000  0.000  0.039  0.040
   13  0.008  0.002  0.009  0.019
   14  0.008  0.002  0.009  0.019
   15  0.006  0.001  0.029  0.036
   16  0.000  0.000  0.039  0.040
   17  0.006  0.001  0.029  0.036
   18  0.006  0.001  0.028  0.036
   19  0.011  0.001  0.037  0.049
   20  0.008  0.002  0.007  0.018
   21  0.008  0.002  0.007  0.018
   22  0.000  0.000  0.038  0.039
   23  0.008  0.002  0.007  0.018
   24  0.000  0.000  0.038  0.039
   25  0.011  0.001  0.038  0.049
   26  0.011  0.001  0.037  0.049
   27  0.000  0.000  0.038  0.039
   28  0.000  0.001  0.007  0.008
   29  0.001  0.000  0.006  0.007
   30  0.001  0.000  0.006  0.007
   31  0.001  0.000  0.006  0.007
   32  0.001  0.000  0.006  0.007
   33  0.001  0.000  0.006  0.007
   34  0.001  0.000  0.006  0.007
   35  0.001  0.000  0.000  0.001
   36  0.009  0.005  0.000  0.014
   37  0.003  0.000  0.000  0.003
tot    0.147  0.031  0.579  0.757
 
band    16 # energy   -5.96332500 # occ.  2.00000000
 
ion      s      p      d    tot
    1  0.000  0.001  0.014  0.015
    2  0.010  0.001  0.005  0.016
    3  0.002  0.000  0.005  0.007
    4  0.010  0.001  0.005  0.016
    5  0.000  0.000  0.005  0.006
    6  0.004  0.001  0.005  0.010
    7  0.002  0.000  0.005  0.007
    8  0.004  0.001  0.005  0.010
    9  0.000  0.001  0.007  0.009
   10  0.000  0.001  0.026  0.027
   11  0.001  0.001  0.020  0.022
   12  0.008  0.000  0.022  0.030
   13  0.001  0.001  0.020  0.022
   14  0.000  0.001  0.022  0.023
   15  0.013  0.002  0.020  0.035
   16  0.008  0.000  0.022  0.030
   17  0.013  0.002  0.020  0.035
   18  0.000  0.000  0.065  0.065
   19  0.012  0.001  0.020  0.033
   20  0.000  0.002  0.017  0.019
   21  0.000  0.001  0.021  0.022
   22  0.017  0.001  0.021  0.039
   23  0.000  0.001  0.021  0.022
   24  0.000  0.000  0.036  0.036
   25  0.000  0.000  0.064  0.065
   26  0.012  0.001  0.020  0.033
   27  0.017  0.001  0.021  0.039
   28  0.000  0.001  0.004  0.005
   29  0.006  0.001  0.004  0.011
   30  0.000  0.000  0.004  0.005
   31  0.006  0.001  0.004  0.011
   32  0.004  0.001  0.002  0.007
   33  0.000  0.000  0.004  0.005
   34  0.004  0.001  0.002  0.007
   35  0.000  0.001  0.008  0.009
   36  0.000  0.000  0.001  0.001
   37  0.000  0.000  0.000  0.000
tot    0.152  0.030  0.569  0.750
 
band    17 # energy   -5.96330518 # occ.  2.00000000
 
ion      s      p      d    tot
    1  0.000  0.001  0.014  0.015
    2  0.000  0.000  0.005  0.006
    3  0.009  0.001  0.005  0.015
    4  0.000  0.000  0.005  0.006
    5  0.000  0.000  0.005  0.006
    6  0.007  0.001  0.005  0.012
    7  0.009  0.001  0.005  0.015
    8  0.007  0.001  0.005  0.012
    9  0.000  0.001  0.007  0.009
   10  0.010  0.000  0.020  0.031
   11  0.000  0.001  0.021  0.023
   12  0.003  0.001  0.025  0.028
   13  0.000  0.001  0.021  0.023
   14  0.001  0.001  0.019  0.021
   15  0.004  0.001  0.050  0.055
   16  0.003  0.001  0.025  0.028
   17  0.004  0.001  0.050  0.055
   18  0.017  0.002  0.006  0.025
   19  0.004  0.001  0.049  0.054
   20  0.001  0.000  0.023  0.023
   21  0.000  0.001  0.019  0.020
   22  0.006  0.000  0.031  0.037
   23  0.000  0.001  0.019  0.020
   24  0.023  0.001  0.016  0.040
   25  0.016  0.001  0.005  0.022
   26  0.004  0.001  0.050  0.054
   27  0.006  0.000  0.031  0.037
   28  0.000  0.001  0.004  0.005
   29  0.001  0.000  0.003  0.004
   30  0.006  0.001  0.003  0.010
   31  0.001  0.000  0.003  0.004
   32  0.003  0.001  0.005  0.008
   33  0.006  0.001  0.003  0.010
   34  0.003  0.001  0.005  0.008
   35  0.000  0.001  0.008  0.009
   36  0.000  0.000  0.001  0.001
   37  0.000  0.000  0.000  0.000
tot    0.152  0.030  0.569  0.750
 
band    18 # energy   -5.61993514 # occ.  2.00000000
 
ion      s      p      d    tot
    1  0.000  0.000  0.014  0.014
    2  0.000  0.000  0.012  0.012
    3  0.007  0.000  0.015  0.023
    4  0.000  0.000  0.012  0.013
    5  0.000  0.000  0.032  0.032
    6  0.007  0.001  0.010  0.017
    7  0.007  0.000  0.015  0.023
    8  0.007  0.001  0.010  0.017
    9  0.000  0.001  0.008  0.010
   10  0.000  0.000  0.015  0.015
   11  0.000  0.000  0.042  0.043
   12  0.000  0.000  0.009  0.009
   13  0.000  0.000  0.042  0.043
   14  0.000  0.000  0.041  0.041
   15  0.000  0.000  0.030  0.030
   16  0.000  0.000  0.009  0.009
   17  0.000  0.000  0.029  0.029
   18  0.000  0.000  0.045  0.046
   19  0.000  0.000  0.012  0.012
   20  0.001  0.000  0.045  0.046
   21  0.000  0.000  0.033  0.033
   22  0.000  0.000  0.036  0.036
   23  0.000  0.000  0.033  0.034
   24  0.000  0.000  0.038  0.038
   25  0.001  0.000  0.011  0.012
   26  0.000  0.000  0.012  0.012
   27  0.000  0.000  0.036  0.036
   28  0.000  0.000  0.015  0.016
   29  0.008  0.001  0.013  0.021
   30  0.000  0.001  0.009  0.010
   31  0.008  0.001  0.013  0.021
   32  0.010  0.001  0.008  0.018
   33  0.000  0.001  0.009  0.010
   34  0.010  0.001  0.008  0.019
   35  0.000  0.000  0.020  0.021
   36  0.000  0.002  0.001  0.003
   37  0.000  0.000  0.000  0.000
tot    0.068  0.016  0.739  0.823
 
band    19 # energy   -5.61993400 # occ.  2.00000000
 
ion      s      p      d    tot
    1  0.000  0.000  0.014  0.014
    2  0.009  0.001  0.013  0.023
    3  0.002  0.001  0.009  0.012
    4  0.009  0.001  0.012  0.022
    5  0.000  0.000  0.032  0.032
    6  0.003  0.000  0.015  0.018
    7  0.002  0.001  0.009  0.012
    8  0.003  0.000  0.015  0.018
    9  0.000  0.001  0.008  0.010
   10  0.000  0.000  0.007  0.007
   11  0.000  0.000  0.041  0.042
   12  0.000  0.000  0.013  0.013
   13  0.000  0.000  0.041  0.042
   14  0.000  0.000  0.042  0.043
   15  0.000  0.000  0.040  0.040
   16  0.000  0.000  0.013  0.013
   17  0.000  0.000  0.040  0.040
   18  0.000  0.000  0.024  0.024
   19  0.000  0.000  0.011  0.012
   20  0.000  0.000  0.029  0.029
   21  0.001  0.000  0.041  0.042
   22  0.000  0.000  0.037  0.038
   23  0.001  0.000  0.041  0.042
   24  0.000  0.000  0.035  0.035
   25  0.000  0.000  0.012  0.012
   26  0.000  0.000  0.011  0.012
   27  0.000  0.000  0.037  0.038
   28  0.000  0.000  0.015  0.016
   29  0.004  0.001  0.007  0.012
   30  0.012  0.001  0.010  0.023
   31  0.004  0.001  0.007  0.012
   32  0.002  0.001  0.012  0.015
   33  0.012  0.001  0.010  0.023
   34  0.002  0.001  0.012  0.014
   35  0.000  0.000  0.020  0.021
   36  0.000  0.002  0.001  0.003
   37  0.000  0.000  0.000  0.000
tot    0.068  0.016  0.739  0.823
 
band    20 # energy   -5.60516310 # occ.  2.00000000
 
ion      s      p      d    tot
    1  0.017  0.001  0.002  0.020
    2  0.000  0.001  0.014  0.015
    3  0.000  0.001  0.014  0.015
    4  0.000  0.001  0.014  0.015
    5  0.006  0.000  0.014  0.020
    6  0.000  0.001  0.014  0.015
    7  0.000  0.001  0.014  0.015
    8  0.000  0.001  0.014  0.015
    9  0.003  0.001  0.004  0.007
   10  0.000  0.000  0.027  0.027
   11  0.000  0.000  0.041  0.042
   12  0.000  0.000  0.026  0.027
   13  0.000  0.000  0.041  0.042
   14  0.000  0.000  0.041  0.042
   15  0.000  0.000  0.034  0.034
   16  0.000  0.000  0.026  0.027
   17  0.000  0.000  0.034  0.034
   18  0.000  0.000  0.034  0.034
   19  0.000  0.000  0.024  0.024
   20  0.001  0.000  0.032  0.033
   21  0.001  0.000  0.032  0.033
   22  0.001  0.000  0.031  0.032
   23  0.001  0.000  0.032  0.033
   24  0.001  0.000  0.031  0.032
   25  0.000  0.000  0.024  0.024
   26  0.000  0.000  0.024  0.024
   27  0.001  0.000  0.031  0.032
   28  0.012  0.001  0.000  0.013
   29  0.000  0.001  0.013  0.014
   30  0.000  0.001  0.013  0.014
   31  0.000  0.001  0.013  0.014
   32  0.000  0.001  0.013  0.014
   33  0.000  0.001  0.013  0.014
   34  0.000  0.001  0.013  0.014
   35  0.012  0.000  0.004  0.017
   36  0.000  0.000  0.004  0.005
   37  0.000  0.000  0.000  0.000
tot    0.055  0.014  0.759  0.829
 
band    21 # energy   -5.59125094 # occ.  2.00000000
 
ion      s      p      d    tot
    1  0.000  0.000  0.010  0.010
    2  0.000  0.001  0.019  0.019
    3  0.000  0.001  0.019  0.020
    4  0.000  0.001  0.019  0.019
    5  0.020  0.001  0.000  0.022
    6  0.000  0.001  0.019  0.020
    7  0.000  0.001  0.019  0.020
    8  0.000  0.001  0.019  0.020
    9  0.020  0.000  0.010  0.031
   10  0.000  0.000  0.043  0.043
   11  0.000  0.001  0.037  0.037
   12  0.000  0.000  0.043  0.043
   13  0.000  0.001  0.037  0.037
   14  0.000  0.001  0.036  0.037
   15  0.000  0.000  0.032  0.032
   16  0.000  0.000  0.043  0.043
   17  0.000  0.000  0.032  0.032
   18  0.000  0.000  0.032  0.032
   19  0.001  0.000  0.025  0.027
   20  0.000  0.000  0.033  0.033
   21  0.000  0.000  0.033  0.033
   22  0.000  0.000  0.016  0.017
   23  0.000  0.000  0.033  0.033
   24  0.000  0.000  0.016  0.016
   25  0.001  0.000  0.025  0.027
   26  0.001  0.000  0.025  0.027
   27  0.000  0.000  0.016  0.017
   28  0.003  0.000  0.005  0.008
   29  0.000  0.000  0.010  0.010
   30  0.000  0.000  0.010  0.010
   31  0.000  0.000  0.010  0.010
   32  0.000  0.000  0.010  0.010
   33  0.000  0.000  0.010  0.010
   34  0.000  0.000  0.010  0.010
   35  0.000  0.000  0.003  0.003
   36  0.004  0.001  0.005  0.009