 vasp.6.2.0 18Jan21 (build Jun 12 2021 23:27:24) complex                        
  
 executed on             LinuxIFC date 2022.05.28  01:42:54
 running on   28 total cores
 distrk:  each k-point on   28 cores,    1 groups
 distr:  one band on NCORE=   1 cores,   28 groups


--------------------------------------------------------------------------------------------------------


 INCAR:
   ISMEAR = -5
   SIGMA = 0.1
   ISPIN = 1
   EDIFF = 1.d-5
   EDIFFG = -0.01
   NSW = 0
   NELM = 150
   ENCUT = 500
   ISIF = 2
   IBRION = 2
   LREAL = Auto
   ALGO = Fast
   ICHARG = 11
   LORBIT = 10
   LCHARG = .F.
   LWAVE = .F.

 POTCAR:    PAW_PBE Ag 02Apr2005                  
 POTCAR:    PAW_PBE Zr_sv 04Jan2005               
 POTCAR:    PAW_PBE H 15Jun2001                   
 POTCAR:    PAW_PBE O 08Apr2002                   
 -----------------------------------------------------------------------------
|                                                                             |
|           W    W    AA    RRRRR   N    N  II  N    N   GGGG   !!!           |
|           W    W   A  A   R    R  NN   N  II  NN   N  G    G  !!!           |
|           W    W  A    A  R    R  N N  N  II  N N  N  G       !!!           |
|           W WW W  AAAAAA  RRRRR   N  N N  II  N  N N  G  GGG   !            |
|           WW  WW  A    A  R   R   N   NN  II  N   NN  G    G                |
|           W    W  A    A  R    R  N    N  II  N    N   GGGG   !!!           |
|                                                                             |
|     For optimal performance we recommend to set                             |
|       NCORE = 2 up to number-of-cores-per-socket                            |
|     NCORE specifies how many cores store one orbital (NPAR=cpu/NCORE).      |
|     This setting can greatly improve the performance of VASP for DFT.       |
|     The default, NCORE=1 might be grossly inefficient on modern             |
|     multi-core architectures or massively parallel machines. Do your        |
|     own testing! More info at https://www.vasp.at/wiki/index.php/NCORE      |
|     Unfortunately you need to use the default for GW and RPA                |
|     calculations (for HF NCORE is supported but not extensively tested      |
|     yet).                                                                   |
|                                                                             |
 -----------------------------------------------------------------------------

 POTCAR:    PAW_PBE Ag 02Apr2005                  
   VRHFIN =Ag : s1 d10                                                                              
   LEXCH  = PE                                                                                      
   EATOM  =  1037.2675 eV,   76.2370 Ry                                                             
                                                                                                    
   TITEL  = PAW_PBE Ag 02Apr2005                                                                    
   LULTRA =        F    use ultrasoft PP ?                                                          
   IUNSCR =        1    unscreen: 0-lin 1-nonlin 2-no                                               
   RPACOR =    2.000    partial core radius                                                         
   POMASS =  107.868; ZVAL   =   11.000    mass and valenz                                          
   RCORE  =    2.500    outmost cutoff radius                                                       
   RWIGS  =    2.840; RWIGS  =    1.503    wigner-seitz radius (au A)                               
   ENMAX  =  249.844; ENMIN  =  187.383 eV                                                          
   ICORE  =        3    local potential                                                             
   LCOR   =        T    correct aug charges                                                         
   LPAW   =        T    paw PP                                                                      
   EAUG   =  412.496                                                                                
   DEXC   =    0.000                                                                                
   RMAX   =    2.560    core radius for proj-oper                                                   
   RAUG   =    1.300    factor for augmentation sphere                                              
   RDEP   =    2.576    radius for radial grids                                                     
   RDEPT  =    2.072    core radius for aug-charge                                                  
                                                                                                    
   Atomic configuration                                                                             
   12 entries                                                                                       
     n  l   j            E        occ.                                                              
     1  0  0.50    -25324.9161   2.0000                                                             
     2  0  0.50     -3728.5341   2.0000                                                             
     2  1  1.50     -3344.0404   6.0000                                                             
     3  0  0.50      -683.5581   2.0000                                                             
     3  1  1.50      -557.3225   6.0000                                                             
     3  2  2.50      -358.3853  10.0000                                                             
     4  0  0.50       -95.0341   2.0000                                                             
     4  1  1.50       -58.5511   6.0000                                                             
     4  2  2.50        -7.4440  10.0000                                                             
     5  0  0.50        -4.4045   1.0000                                                             
     5  1  0.50        -1.3606   0.0000                                                             
     4  3  2.50        -1.3606   0.0000                                                             
   Description                                                                                      
     l       E           TYP  RCUT    TYP  RCUT                                                     
     2     -7.4439781     23  2.400                                                                 
     2     -8.8045607     23  2.400                                                                 
     0     -4.4044681     23  2.400                                                                 
     0      1.9520038     23  2.400                                                                 
     1     -1.3605826     23  2.500                                                                 
     1     27.2116520     23  2.500                                                                 
     3     -4.0817478     23  2.400                                                                 
  local pseudopotential read in
  partial core-charges read in
  partial kinetic energy density read in
  atomic valenz-charges read in
  non local Contribution for L=           2  read in
    real space projection operators read in
  non local Contribution for L=           2  read in
    real space projection operators read in
  non local Contribution for L=           0  read in
    real space projection operators read in
  non local Contribution for L=           0  read in
    real space projection operators read in
  non local Contribution for L=           1  read in
    real space projection operators read in
  non local Contribution for L=           1  read in
    real space projection operators read in
    PAW grid and wavefunctions read in
 
   number of l-projection  operators is LMAX  =           6
   number of lm-projection operators is LMMAX =          18
 
 POTCAR:    PAW_PBE Zr_sv 04Jan2005               
   VRHFIN =Zr: 4s4p5s4d                                                                             
   LEXCH  = PE                                                                                      
   EATOM  =  1284.2219 eV,   94.3876 Ry                                                             
                                                                                                    
   TITEL  = PAW_PBE Zr_sv 04Jan2005                                                                 
   LULTRA =        F    use ultrasoft PP ?                                                          
   IUNSCR =        1    unscreen: 0-lin 1-nonlin 2-no                                               
   RPACOR =    2.200    partial core radius                                                         
   POMASS =   91.224; ZVAL   =   12.000    mass and valenz                                          
   RCORE  =    2.500    outmost cutoff radius                                                       
   RWIGS  =    3.070; RWIGS  =    1.625    wigner-seitz radius (au A)                               
   ENMAX  =  229.898; ENMIN  =  172.424 eV                                                          
   ICORE  =        3    local potential                                                             
   LCOR   =        T    correct aug charges                                                         
   LPAW   =        T    paw PP                                                                      
   EAUG   =  461.257                                                                                
   DEXC   =    0.000                                                                                
   RMAX   =    2.561    core radius for proj-oper                                                   
   RAUG   =    1.300    factor for augmentation sphere                                              
   RDEP   =    2.597    radius for radial grids                                                     
   RDEPT  =    2.007    core radius for aug-charge                                                  
                                                                                                    
   Atomic configuration                                                                             
   11 entries                                                                                       
     n  l   j            E        occ.                                                              
     1  0  0.50    -17820.0161   2.0000                                                             
     2  0  0.50     -2467.0882   2.0000                                                             
     2  1  1.50     -2199.6095   6.0000                                                             
     3  0  0.50      -402.4863   2.0000                                                             
     3  1  1.50      -315.3675   6.0000                                                             
     3  2  2.50      -172.4472  10.0000                                                             
     4  0  0.50       -52.4146   2.0000                                                             
     5  0  0.50        -3.8421   1.0000                                                             
     4  1  1.50       -30.5054   6.0000                                                             
     4  2  2.50        -2.3341   3.0000                                                             
     4  3  2.50        -1.3606   0.0000                                                             
   Description                                                                                      
     l       E           TYP  RCUT    TYP  RCUT                                                     
     0    -52.4145962     23  2.200                                                                 
     0     -3.8421270     23  2.500                                                                 
     1    -30.5053914     23  2.200                                                                 
     1     20.4087390     23  2.200                                                                 
     2     -2.3340816     23  2.500                                                                 
     2     -0.6120942     23  2.500                                                                 
     3     -4.0817478     23  2.500                                                                 
  local pseudopotential read in
  partial core-charges read in
  partial kinetic energy density read in
  atomic valenz-charges read in
  non local Contribution for L=           0  read in
    real space projection operators read in
  non local Contribution for L=           0  read in
    real space projection operators read in
  non local Contribution for L=           1  read in
    real space projection operators read in
  non local Contribution for L=           1  read in
    real space projection operators read in
  non local Contribution for L=           2  read in
    real space projection operators read in
  non local Contribution for L=           2  read in
    real space projection operators read in
    PAW grid and wavefunctions read in
 
   number of l-projection  operators is LMAX  =           6
   number of lm-projection operators is LMMAX =          18
 
 POTCAR:    PAW_PBE H 15Jun2001                   
   VRHFIN =H: ultrasoft test                                                                        
   LEXCH  = PE                                                                                      
   EATOM  =    12.4884 eV,    0.9179 Ry                                                             
                                                                                                    
   TITEL  = PAW_PBE H 15Jun2001                                                                     
   LULTRA =        F    use ultrasoft PP ?                                                          
   IUNSCR =        0    unscreen: 0-lin 1-nonlin 2-no                                               
   RPACOR =    0.000    partial core radius                                                         
   POMASS =    1.000; ZVAL   =    1.000    mass and valenz                                          
   RCORE  =    1.100    outmost cutoff radius                                                       
   RWIGS  =    0.700; RWIGS  =    0.370    wigner-seitz radius (au A)                               
   ENMAX  =  250.000; ENMIN  =  200.000 eV                                                          
   RCLOC  =    0.701    cutoff for local pot                                                        
   LCOR   =        T    correct aug charges                                                         
   LPAW   =        T    paw PP                                                                      
   EAUG   =  400.000                                                                                
   RMAX   =    1.123    core radius for proj-oper                                                   
   RAUG   =    1.200    factor for augmentation sphere                                              
   RDEP   =    1.112    radius for radial grids                                                     
   RDEPT  =    0.926    core radius for aug-charge                                                  
                                                                                                    
   Atomic configuration                                                                             
    2 entries                                                                                       
     n  l   j            E        occ.                                                              
     1  0  0.50        -6.4927   1.0000                                                             
     2  1  0.50        -3.4015   0.0000                                                             
   Description                                                                                      
     l       E           TYP  RCUT    TYP  RCUT                                                     
     0     -6.4927494     23  1.100                                                                 
     0      6.8029130     23  1.100                                                                 
     1     -4.0817478     23  1.100                                                                 
  local pseudopotential read in
  atomic valenz-charges read in
  non local Contribution for L=           0  read in
    real space projection operators read in
  non local Contribution for L=           0  read in
    real space projection operators read in
  non local Contribution for L=           1  read in
    real space projection operators read in
    PAW grid and wavefunctions read in
 
   number of l-projection  operators is LMAX  =           3
   number of lm-projection operators is LMMAX =           5
 
 POTCAR:    PAW_PBE O 08Apr2002                   
   VRHFIN =O: s2p4                                                                                  
   LEXCH  = PE                                                                                      
   EATOM  =   432.3788 eV,   31.7789 Ry                                                             
                                                                                                    
   TITEL  = PAW_PBE O 08Apr2002                                                                     
   LULTRA =        F    use ultrasoft PP ?                                                          
   IUNSCR =        1    unscreen: 0-lin 1-nonlin 2-no                                               
   RPACOR =    1.200    partial core radius                                                         
   POMASS =   16.000; ZVAL   =    6.000    mass and valenz                                          
   RCORE  =    1.520    outmost cutoff radius                                                       
   RWIGS  =    1.550; RWIGS  =    0.820    wigner-seitz radius (au A)                               
   ENMAX  =  400.000; ENMIN  =  300.000 eV                                                          
   ICORE  =        2    local potential                                                             
   LCOR   =        T    correct aug charges                                                         
   LPAW   =        T    paw PP                                                                      
   EAUG   =  605.392                                                                                
   DEXC   =    0.000                                                                                
   RMAX   =    1.553    core radius for proj-oper                                                   
   RAUG   =    1.300    factor for augmentation sphere                                              
   RDEP   =    1.550    radius for radial grids                                                     
   RDEPT  =    1.329    core radius for aug-charge                                                  
                                                                                                    
   Atomic configuration                                                                             
    4 entries                                                                                       
     n  l   j            E        occ.                                                              
     1  0  0.50      -514.6923   2.0000                                                             
     2  0  0.50       -23.9615   2.0000                                                             
     2  1  0.50        -9.0305   4.0000                                                             
     3  2  1.50        -9.5241   0.0000                                                             
   Description                                                                                      
     l       E           TYP  RCUT    TYP  RCUT                                                     
     0    -23.9615318     23  1.200                                                                 
     0     -9.5240782     23  1.200                                                                 
     1     -9.0304911     23  1.520                                                                 
     1      8.1634956     23  1.520                                                                 
     2     -9.5240782      7  1.500                                                                 
  local pseudopotential read in
  partial core-charges read in
  partial kinetic energy density read in
  kinetic energy density of atom read in
  atomic valenz-charges read in
  non local Contribution for L=           0  read in
    real space projection operators read in
  non local Contribution for L=           0  read in
    real space projection operators read in
  non local Contribution for L=           1  read in
    real space projection operators read in
  non local Contribution for L=           1  read in
    real space projection operators read in
    PAW grid and wavefunctions read in
 
   number of l-projection  operators is LMAX  =           4
   number of lm-projection operators is LMMAX =           8
 
 Optimization of the real space projectors (new method)

 maximal supplied QI-value         = 15.12
 optimisation between [QCUT,QGAM] = [ 11.34, 22.83] = [ 36.00,145.93] Ry 
 Optimized for a Real-space Cutoff    1.43 Angstroem

   l    n(q)    QCUT    max X(q) W(low)/X(q) W(high)/X(q)  e(spline) 
   2      9    11.338    53.897    0.16E-03    0.20E-03    0.28E-06
   2      9    11.338    52.416    0.16E-03    0.20E-03    0.29E-06
   0     10    11.338   122.045    0.31E-04    0.76E-04    0.15E-06
   0     10    11.338    73.629    0.30E-04    0.72E-04    0.15E-06
   1      9    11.338    15.255    0.20E-03    0.19E-04    0.17E-06
   1      9    11.338     9.562    0.16E-03    0.15E-04    0.14E-06
 Optimization of the real space projectors (new method)

 maximal supplied QI-value         = 15.12
 optimisation between [QCUT,QGAM] = [ 11.34, 22.83] = [ 36.00,145.93] Ry 
 Optimized for a Real-space Cutoff    1.47 Angstroem

   l    n(q)    QCUT    max X(q) W(low)/X(q) W(high)/X(q)  e(spline) 
   0     10    11.338    12.107    0.38E-04    0.13E-04    0.27E-07
   0     10    11.338     9.948    0.69E-04    0.30E-04    0.38E-07
   1     10    11.338     3.563    0.26E-04    0.18E-04    0.40E-07
   1     10    11.338     4.524    0.25E-03    0.39E-04    0.44E-06
   2      9    11.338    87.261    0.26E-03    0.91E-05    0.26E-06
   2      9    11.338    70.950    0.25E-03    0.91E-05    0.25E-06
 Optimization of the real space projectors (new method)

 maximal supplied QI-value         = 34.20
 optimisation between [QCUT,QGAM] = [ 11.29, 22.57] = [ 35.68,142.71] Ry 
 Optimized for a Real-space Cutoff    1.16 Angstroem

   l    n(q)    QCUT    max X(q) W(low)/X(q) W(high)/X(q)  e(spline) 
   0      8    11.287    19.460    0.40E-03    0.73E-03    0.16E-06
   0      8    11.287    12.209    0.38E-03    0.70E-03    0.15E-06
   1      7    11.287     4.655    0.22E-03    0.25E-04    0.22E-06
 Optimization of the real space projectors (new method)

 maximal supplied QI-value         = 24.76
 optimisation between [QCUT,QGAM] = [ 11.39, 22.77] = [ 36.31,145.25] Ry 
 Optimized for a Real-space Cutoff    1.00 Angstroem

   l    n(q)    QCUT    max X(q) W(low)/X(q) W(high)/X(q)  e(spline) 
   0      7    11.387    20.381    0.39E-03    0.13E-02    0.15E-06
   0      7    11.387    15.268    0.42E-03    0.14E-02    0.17E-06
   1      6    11.387     5.964    0.41E-03    0.11E-02    0.17E-06
   1      6    11.387     5.382    0.39E-03    0.87E-03    0.15E-06
  PAW_PBE Ag 02Apr2005                  :
 energy of atom  1       EATOM=-1037.2675
 kinetic energy error for atom=    0.0052 (will be added to EATOM!!)
  PAW_PBE Zr_sv 04Jan2005               :
 energy of atom  2       EATOM=-1284.2219
 kinetic energy error for atom=    0.0049 (will be added to EATOM!!)
  PAW_PBE H 15Jun2001                   :
 energy of atom  3       EATOM=  -12.4884
 kinetic energy error for atom=    0.0020 (will be added to EATOM!!)
  PAW_PBE O 08Apr2002                   :
 energy of atom  4       EATOM= -432.3788
 kinetic energy error for atom=    0.0224 (will be added to EATOM!!)
 
 
 POSCAR: Ag-Zr-H2O
  positions in direct lattice
  velocities in cartesian coordinates
 exchange correlation table for  LEXCH =        8
   RHO(1)=    0.500       N(1)  =     2000
   RHO(2)=  100.500       N(2)  =     4000

 VTST: version 3.2, (02/03/18)

 CHAIN: initializing optimizer
 
 OPT: Using VASP Conjugate-Gradient optimizer
 CHAIN: Read ICHAIN            0
 
 POSCAR: Ag-Zr-H2O
  positions in direct lattice
  velocities in cartesian coordinates
 


--------------------------------------------------------------------------------------------------------


 ion  position               nearest neighbor table
   1  0.000  0.000  0.212-   2 2.93   8 2.93   7 2.93   6 2.93   4 2.93  12 2.93  16 2.93  10 2.93
                             3 2.93
   2  0.333  0.000  0.212-   1 2.93   8 2.93   9 2.93   3 2.93   4 2.93   5 2.93  10 2.93  17 2.93
                            11 2.93
   3  0.667  0.000  0.212-   9 2.93   2 2.93   5 2.93  11 2.93   7 2.93  18 2.93   1 2.93   6 2.93
                            12 2.93
   4  0.000  0.333  0.212-   5 2.93   6 2.93   2 2.93   1 2.93   7 2.93  13 2.93  15 2.93   9 2.93
                            10 2.93
   5  0.333  0.333  0.212-   4 2.93   3 2.93   7 2.93   2 2.93   8 2.93  14 2.93  13 2.93  11 2.93
                             6 2.93
   6  0.667  0.333  0.212-   4 2.93   9 2.93   1 2.93  15 2.93   8 2.93  12 2.93   3 2.93   5 2.93
                            14 2.93
   7  0.000  0.667  0.212-   8 2.93   1 2.93   5 2.93   3 2.93   4 2.93  16 2.93  18 2.93  13 2.93
                             9 2.93
   8  0.333  0.667  0.212-   7 2.93   1 2.93   2 2.93   9 2.93   5 2.93  16 2.93   6 2.93  17 2.93
                            14 2.93
   9  0.667  0.667  0.212-   3 2.93   2 2.93   8 2.93   6 2.93  17 2.93   4 2.93  15 2.93   7 2.93
                            18 2.93
  10  0.111  0.111  0.308-  20 2.91  19 2.92  26 2.92  12 2.93  16 2.93  15 2.93  17 2.93  13 2.93
                            11 2.93   2 2.93   1 2.93   4 2.93
  11  0.444  0.111  0.308-  21 2.91  20 2.91  14 2.93  17 2.93  18 2.93   3 2.93  12 2.93  13 2.93
                            10 2.93   5 2.93   2 2.93  27 2.93
  12  0.778  0.111  0.308-  21 2.91  25 2.92  19 2.92  10 2.93  16 2.93  18 2.93  15 2.93  11 2.93
                             1 2.93  14 2.93   6 2.93   3 2.93
  13  0.111  0.444  0.308-  20 2.91  23 2.91  15 2.93  14 2.93  18 2.93  10 2.93  11 2.93  16 2.93
                             4 2.93   5 2.93   7 2.93  22 2.93
  14  0.444  0.444  0.308-  23 2.91  21 2.91  13 2.93  11 2.93  16 2.93   5 2.93  12 2.93  17 2.93
                             8 2.93  15 2.93   6 2.93  24 2.93
  15  0.778  0.444  0.308-  19 2.92  13 2.93  10 2.93  12 2.93  17 2.93  18 2.93   4 2.93   6 2.93
                             9 2.93  14 2.93  24 2.93  22 2.93
  16  0.111  0.778  0.308-  23 2.91  26 2.92  25 2.92  18 2.93  12 2.93  10 2.93  14 2.93  17 2.93
                            13 2.93   7 2.93   8 2.93   1 2.93
  17  0.444  0.778  0.308-  26 2.92  11 2.93  10 2.93   9 2.93  18 2.93  15 2.93  16 2.93   2 2.93
                            14 2.93   8 2.93  27 2.93  24 2.93
  18  0.778  0.778  0.308-  25 2.92  16 2.93  12 2.93  13 2.93  11 2.93  17 2.93  15 2.93   7 2.93
                             3 2.93   9 2.93  22 2.93  27 2.93
  19  0.889  0.222  0.403-  10 2.92  12 2.92  15 2.92  26 2.93  25 2.93  20 2.93  21 2.93  24 2.93
                            22 2.93  28 2.93  32 2.97  31 2.97
  20  0.222  0.222  0.402-  13 2.91  11 2.91  10 2.91  36 2.92  21 2.93  23 2.93  27 2.93  22 2.93
                            19 2.93  26 2.93  31 2.97  29 2.97
  21  0.555  0.222  0.402-  11 2.91  14 2.91  12 2.91  36 2.92  20 2.93  23 2.93  27 2.93  24 2.93
                            25 2.93  19 2.93  30 2.97  32 2.97
  22  0.889  0.556  0.404-  24 2.93  27 2.93  23 2.93  20 2.93  18 2.93  15 2.93  13 2.93  25 2.93
                            19 2.93  35 2.94  33 2.95  31 2.95
  23  0.222  0.555  0.402-  14 2.91  13 2.91  16 2.91  36 2.92  21 2.93  20 2.93  22 2.93  24 2.93
                            26 2.93  25 2.93  34 2.97  33 2.97
  24  0.556  0.556  0.404-  27 2.93  22 2.93  23 2.93  21 2.93  15 2.93  17 2.93  14 2.93  19 2.93
                            26 2.93  35 2.94  32 2.95  34 2.95
  25  0.889  0.889  0.403-  16 2.92  12 2.92  18 2.92  26 2.93  19 2.93  23 2.93  21 2.93  22 2.93
                            27 2.93  28 2.93  33 2.97  30 2.97
  26  0.222  0.889  0.403-  16 2.92  10 2.92  17 2.92  25 2.93  19 2.93  23 2.93  20 2.93  27 2.93
                            24 2.93  28 2.93  34 2.97  29 2.97
  27  0.556  0.889  0.404-  24 2.93  22 2.93  20 2.93  21 2.93  17 2.93  18 2.93  11 2.93  26 2.93
                            25 2.93  35 2.94  29 2.95  30 2.95
  28  0.000  0.000  0.499-  29 2.93  34 2.93  33 2.93  32 2.93  31 2.93  30 2.93  26 2.93  25 2.93
                            19 2.93
  29  0.334  0.000  0.500-  30 2.93  36 2.93  35 2.93  31 2.93  28 2.93  34 2.94  27 2.95  26 2.97
                            20 2.97
  30  0.666  0.000  0.500-  29 2.93  36 2.93  35 2.93  32 2.93  28 2.93  33 2.94  27 2.95  25 2.97
                            21 2.97
  31  0.000  0.334  0.500-  33 2.93  36 2.93  35 2.93  29 2.93  28 2.93  32 2.94  22 2.95  19 2.97
                            20 2.97
  32  0.666  0.334  0.500-  34 2.93  36 2.93  35 2.93  30 2.93  28 2.93  31 2.94  24 2.95  19 2.97
                            21 2.97
  33  0.000  0.666  0.500-  31 2.93  36 2.93  35 2.93  34 2.93  28 2.93  30 2.94  22 2.95  25 2.97
                            23 2.97
  34  0.334  0.666  0.500-  32 2.93  36 2.93  35 2.93  33 2.93  28 2.93  29 2.94  24 2.95  26 2.97
                            23 2.97
  35  0.667  0.667  0.500-  30 2.93  29 2.93  32 2.93  34 2.93  31 2.93  33 2.93  24 2.94  27 2.94
                            22 2.94
  36  0.333  0.333  0.498-  39 2.30  21 2.92  20 2.92  23 2.92  31 2.93  33 2.93  30 2.93  29 2.93
                            34 2.93  32 2.93
  37  0.281  0.255  0.601-  39 0.98
  38  0.459  0.259  0.602-  39 0.98
  39  0.336  0.323  0.590-  38 0.98  37 0.98  36 2.30
 
  LATTYP: Found a hexagonal cell.
 ALAT       =     8.7913665772
 C/A-ratio  =     2.8382349142
  
  Lattice vectors:
  
 A1 = (  -4.3956832886,  -7.6135467898,   0.0000000000)
 A2 = (   8.7913665771,   0.0000000000,   0.0000000000)
 A3 = (   0.0000000000,   0.0000000000,  24.9519635625)


Analysis of symmetry for initial positions (statically):
=====================================================================
 Subroutine PRICEL returns:
 Original cell was already a primitive cell.
 

 Routine SETGRP: Setting up the symmetry group for a 
 hexagonal supercell.


 Subroutine GETGRP returns: Found  1 space group operations
 (whereof  1 operations were pure point group operations)
 out of a pool of 24 trial point group operations.


The static configuration has the point symmetry C_1 .


Analysis of symmetry for dynamics (positions and initial velocities):
=====================================================================
 Subroutine PRICEL returns:
 Original cell was already a primitive cell.
 

 Routine SETGRP: Setting up the symmetry group for a 
 hexagonal supercell.


 Subroutine GETGRP returns: Found  1 space group operations
 (whereof  1 operations were pure point group operations)
 out of a pool of 24 trial point group operations.


The dynamic configuration has the point symmetry C_1 .


Analysis of constrained symmetry for selective dynamics:
=====================================================================
 Subroutine PRICEL returns:
 Original cell was already a primitive cell.
 

 Routine SETGRP: Setting up the symmetry group for a 
 hexagonal supercell.


 Subroutine GETGRP returns: Found  1 space group operations
 (whereof  1 operations were pure point group operations)
 out of a pool of 24 trial point group operations.


The constrained configuration has the point symmetry C_1 .


 Subroutine INISYM returns: Found  1 space group operations
 (whereof  1 operations are pure point group operations),
 and found     1 'primitive' translations


----------------------------------------------------------------------------------------

                                     Primitive cell                                     

  volume of cell :    1670.1218

  direct lattice vectors                    reciprocal lattice vectors
     8.791366577  0.000000000  0.000000000     0.113747958 -0.065672414  0.000000000
     4.395683289  7.613546790  0.000000000     0.000000000  0.131344829  0.000000000
     0.000000000  0.000000000 24.951963562     0.000000000  0.000000000  0.040077006

  length of vectors
     8.791366577  8.791366577 24.951963562     0.131344829  0.131344829  0.040077006

  position of ions in fractional coordinates (direct lattice)
     0.000000000  0.000000000  0.211694287
     0.333333313  0.000000000  0.211694287
     0.666666627  0.000000000  0.211694287
     0.000000000  0.333333343  0.211694287
     0.333333313  0.333333343  0.211694287
     0.666666687  0.333333343  0.211694287
     0.000000000  0.666666687  0.211694287
     0.333333313  0.666666687  0.211694287
     0.666666627  0.666666687  0.211694287
     0.111111104  0.111111112  0.307586829
     0.444444448  0.111111112  0.307586829
     0.777777791  0.111111112  0.307586829
     0.111111097  0.444444448  0.307586829
     0.444444418  0.444444448  0.307586829
     0.777777791  0.444444448  0.307586829
     0.111111104  0.777777791  0.307586829
     0.444444448  0.777777791  0.307586829
     0.777777791  0.777777791  0.307586829
     0.888999251  0.222001514  0.402745936
     0.222276674  0.222276689  0.402471580
     0.555446592  0.222276689  0.402471580
     0.888861266  0.555569397  0.403504742
     0.222276689  0.555446652  0.402471580
     0.555569397  0.555569397  0.403504742
     0.888999251  0.888999251  0.402745936
     0.222001484  0.888999251  0.402745936
     0.555569337  0.888861266  0.403504742
     0.000000000  0.000000000  0.498834124
     0.333557519  0.000155156  0.500301963
     0.666287264  0.000155156  0.500301963
     0.000155156  0.333557549  0.500301963
     0.666287324  0.333557549  0.500301963
     0.000155156  0.666287324  0.500301963
     0.333557519  0.666287324  0.500301963
     0.666666627  0.666666687  0.499981272
     0.333333313  0.333333343  0.498010555
     0.281395825  0.254600923  0.601292619
     0.459105472  0.258597818  0.602197941
     0.336475811  0.322899382  0.590166036

  ion indices of the primitive-cell ions
   primitive index   ion index
                 1           1
                 2           2
                 3           3
                 4           4
                 5           5
                 6           6
                 7           7
                 8           8
                 9           9
                10          10
                11          11
                12          12
                13          13
                14          14
                15          15
                16          16
                17          17
                18          18
                19          19
                20          20
                21          21
                22          22
                23          23
                24          24
                25          25
                26          26
                27          27
                28          28
                29          29
                30          30
                31          31
                32          32
                33          33
                34          34
                35          35
                36          36
                37          37
                38          38
                39          39

----------------------------------------------------------------------------------------

 
 
 KPOINTS: Automatic mesh                          

Automatic generation of k-mesh.
 Grid dimensions read from file:
 generate k-points for:    8    8    1

 Generating k-lattice:

  Cartesian coordinates                     Fractional coordinates (reciprocal lattice)
     0.014218495 -0.008209052  0.000000000     0.125000000  0.000000000  0.000000000
     0.000000000  0.016418104  0.000000000     0.000000000  0.125000000  0.000000000
     0.000000000  0.000000000  0.040077006     0.000000000  0.000000000  1.000000000

  Length of vectors
     0.016418104  0.016418104  0.040077006

  Shift w.r.t. Gamma in fractional coordinates (k-lattice)
     0.000000000  0.000000000  0.000000000

 TETIRR: Found    192 inequivalent tetrahedra from      384
 
 Subroutine IBZKPT returns following result:
 ===========================================
 
 Found     34 irreducible k-points:
 
 Following reciprocal coordinates:
            Coordinates               Weight
  0.000000  0.000000  0.000000      1.000000
  0.125000  0.000000  0.000000      2.000000
  0.125000  0.125000  0.000000      2.000000
  0.000000  0.125000  0.000000      2.000000
  0.250000  0.000000  0.000000      2.000000
  0.250000  0.250000  0.000000      2.000000
  0.000000  0.250000  0.000000      2.000000
  0.375000  0.000000  0.000000      2.000000
  0.375000  0.375000  0.000000      2.000000
  0.000000  0.375000  0.000000      2.000000
  0.500000  0.000000  0.000000      1.000000
  0.500000  0.500000  0.000000      1.000000
  0.000000  0.500000  0.000000      1.000000
  0.250000  0.125000  0.000000      2.000000
  0.125000  0.250000  0.000000      2.000000
 -0.125000  0.125000  0.000000      2.000000
  0.375000  0.125000  0.000000      2.000000
  0.250000  0.375000  0.000000      2.000000
 -0.125000  0.250000  0.000000      2.000000
  0.250000 -0.125000  0.000000      2.000000
 -0.125000 -0.375000  0.000000      2.000000
 -0.375000 -0.250000  0.000000      2.000000
  0.500000  0.125000  0.000000      2.000000
  0.375000  0.500000  0.000000      2.000000
 -0.125000  0.375000  0.000000      2.000000
  0.375000 -0.125000  0.000000      2.000000
 -0.125000  0.500000  0.000000      2.000000
  0.500000 -0.375000  0.000000      2.000000
  0.500000  0.250000  0.000000      2.000000
  0.250000  0.500000  0.000000      2.000000
 -0.250000  0.250000  0.000000      2.000000
 -0.375000  0.250000  0.000000      2.000000
  0.375000 -0.375000  0.000000      2.000000
 -0.250000  0.375000  0.000000      2.000000
 
 Following cartesian coordinates:
            Coordinates               Weight
  0.000000  0.000000  0.000000      1.000000
  0.014218 -0.008209  0.000000      2.000000
  0.014218  0.008209  0.000000      2.000000
  0.000000  0.016418  0.000000      2.000000
  0.028437 -0.016418  0.000000      2.000000
  0.028437  0.016418  0.000000      2.000000
  0.000000  0.032836  0.000000      2.000000
  0.042655 -0.024627  0.000000      2.000000
  0.042655  0.024627  0.000000      2.000000
  0.000000  0.049254  0.000000      2.000000
  0.056874 -0.032836  0.000000      1.000000
  0.056874  0.032836  0.000000      1.000000
  0.000000  0.065672  0.000000      1.000000
  0.028437 -0.000000  0.000000      2.000000
  0.014218  0.024627  0.000000      2.000000
 -0.014218  0.024627  0.000000      2.000000
  0.042655 -0.008209  0.000000      2.000000
  0.028437  0.032836  0.000000      2.000000
 -0.014218  0.041045  0.000000      2.000000
  0.028437 -0.032836  0.000000      2.000000
 -0.014218 -0.041045  0.000000      2.000000
 -0.042655 -0.008209  0.000000      2.000000
  0.056874 -0.016418  0.000000      2.000000
  0.042655  0.041045  0.000000      2.000000
 -0.014218  0.057463  0.000000      2.000000
  0.042655 -0.041045  0.000000      2.000000
 -0.014218  0.073881  0.000000      2.000000
  0.056874 -0.082091  0.000000      2.000000
  0.056874 -0.000000  0.000000      2.000000
  0.028437  0.049254  0.000000      2.000000
 -0.028437  0.049254  0.000000      2.000000
 -0.042655  0.057463  0.000000      2.000000
  0.042655 -0.073881  0.000000      2.000000
 -0.028437  0.065672  0.000000      2.000000
 


--------------------------------------------------------------------------------------------------------




 Dimension of arrays:
   k-points           NKPTS =     34   k-points in BZ     NKDIM =     34   number of bands    NBANDS=    252
   number of dos      NEDOS =    301   number of ions     NIONS =     39
   non local maximal  LDIM  =      6   non local SUM 2l+1 LMDIM =     18
   total plane-waves  NPLWV = 322560
   max r-space proj   IRMAX =   2642   max aug-charges    IRDMAX=   9695
   dimension x,y,z NGX =    48 NGY =   48 NGZ =  140
   dimension x,y,z NGXF=    96 NGYF=   96 NGZF=  280
   support grid    NGXF=    96 NGYF=   96 NGZF=  280
   ions per type =              35   1   2   1
   NGX,Y,Z   is equivalent  to a cutoff of   9.08,  9.08,  9.33 a.u.
   NGXF,Y,Z  is equivalent  to a cutoff of  18.15, 18.15, 18.66 a.u.

 SYSTEM =  unknown system                          
 POSCAR =  Ag-Zr-H2O                               

 Startparameter for this run:
   NWRITE =      2    write-flag & timer
   PREC   = normal    normal or accurate (medium, high low for compatibility)
   ISTART =      0    job   : 0-new  1-cont  2-samecut
   ICHARG =     11    charge: 1-file 2-atom 10-const
   ISPIN  =      1    spin polarized calculation?
   LNONCOLLINEAR =      F non collinear calculations
   LSORBIT =      F    spin-orbit coupling
   INIWAV =      1    electr: 0-lowe 1-rand  2-diag
   LASPH  =      F    aspherical Exc in radial PAW
   METAGGA=      F    non-selfconsistent MetaGGA calc.

 Electronic Relaxation 1
   ENCUT  =  500.0 eV  36.75 Ry    6.06 a.u.  16.03 16.03 45.49*2*pi/ulx,y,z
   ENINI  =  500.0     initial cutoff
   ENAUG  =  605.4 eV  augmentation charge cutoff
   NELM   =    150;   NELMIN=  2; NELMDL= -5     # of ELM steps 
   EDIFF  = 0.1E-04   stopping-criterion for ELM
   LREAL  =      T    real-space projection
   NLSPLINE    = F    spline interpolate recip. space projectors
   LCOMPAT=      F    compatible to vasp.4.4
   GGA_COMPAT  = T    GGA compatible to vasp.4.4-vasp.4.6
   LMAXPAW     = -100 max onsite density
   LMAXMIX     =    2 max onsite mixed and CHGCAR
   VOSKOWN=      0    Vosko Wilk Nusair interpolation
   ROPT   =   -0.00050  -0.00050  -0.00050  -0.00050
 Ionic relaxation
   EDIFFG = -.1E-01   stopping-criterion for IOM
   NSW    =      0    number of steps for IOM
   NBLOCK =      1;   KBLOCK =      1    inner block; outer block 
   IBRION =     -1    ionic relax: 0-MD 1-quasi-New 2-CG
   NFREE  =      1    steps in history (QN), initial steepest desc. (CG)
   ISIF   =      2    stress and relaxation
   IWAVPR =     10    prediction:  0-non 1-charg 2-wave 3-comb
   ISYM   =      2    0-nonsym 1-usesym 2-fastsym
   LCORR  =      T    Harris-Foulkes like correction to forces

   POTIM  = 0.5000    time-step for ionic-motion
   TEIN   =    0.0    initial temperature
   TEBEG  =    0.0;   TEEND  =   0.0 temperature during run
   SMASS  =  -3.00    Nose mass-parameter (am)
   estimated Nose-frequenzy (Omega)   =  0.10E-29 period in steps = 0.13E+47 mass=  -0.177E-26a.u.
   SCALEE = 1.0000    scale energy and forces
   NPACO  =    256;   APACO  = 16.0  distance and # of slots for P.C.
   PSTRESS=    0.0 pullay stress

  Mass of Ions in am
   POMASS = 107.87 91.22  1.00 16.00
  Ionic Valenz
   ZVAL   =  11.00 12.00  1.00  6.00
  Atomic Wigner-Seitz radii
   RWIGS  =  -1.00 -1.00 -1.00 -1.00
  virtual crystal weights 
   VCA    =   1.00  1.00  1.00  1.00
   NELECT =     405.0000    total number of electrons
   NUPDOWN=      -1.0000    fix difference up-down

 DOS related values:
   EMIN   =  10.00;   EMAX   =-10.00  energy-range for DOS
   EFERMI =   0.00
   ISMEAR =    -5;   SIGMA  =   0.10  broadening in eV -4-tet -1-fermi 0-gaus

 Electronic relaxation 2 (details)
   IALGO  =     68    algorithm
   LDIAG  =      T    sub-space diagonalisation (order eigenvalues)
   LSUBROT=      F    optimize rotation matrix (better conditioning)
   TURBO    =      0    0=normal 1=particle mesh
   IRESTART =      0    0=no restart 2=restart with 2 vectors
   NREBOOT  =      0    no. of reboots
   NMIN     =      0    reboot dimension
   EREF     =   0.00    reference energy to select bands
   IMIX   =      4    mixing-type and parameters
     AMIX     =   0.40;   BMIX     =  1.00
     AMIX_MAG =   1.60;   BMIX_MAG =  1.00
     AMIN     =   0.10
     WC   =   100.;   INIMIX=   1;  MIXPRE=   1;  MAXMIX= -45

 Intra band minimization:
   WEIMIN = 0.0000     energy-eigenvalue tresh-hold
   EBREAK =  0.99E-08  absolut break condition
   DEPER  =   0.30     relativ break condition  

   TIME   =   0.40     timestep for ELM

  volume/ion in A,a.u.               =      42.82       288.99
  Fermi-wavevector in a.u.,A,eV,Ry     =   1.020886  1.929194 14.180096  1.042208
  Thomas-Fermi vector in A             =   2.154480
 
 Write flags
   LWAVE        =      F    write WAVECAR
   LDOWNSAMPLE  =      F    k-point downsampling of WAVECAR
   LCHARG       =      F    write CHGCAR
   LVTOT        =      F    write LOCPOT, total local potential
   LVHAR        =      F    write LOCPOT, Hartree potential only
   LELF         =      F    write electronic localiz. function (ELF)
   LORBIT       =     10    0 simple, 1 ext, 2 COOP (PROOUT), +10 PAW based schemes


 Dipole corrections
   LMONO  =      F    monopole corrections only (constant potential shift)
   LDIPOL =      F    correct potential (dipole corrections)
   IDIPOL =      0    1-x, 2-y, 3-z, 4-all directions 
   EPSILON=  1.0000000 bulk dielectric constant

 Exchange correlation treatment:
   GGA     =    --    GGA type
   LEXCH   =     8    internal setting for exchange type
   VOSKOWN=      0    Vosko Wilk Nusair interpolation
   LHFCALC =     F    Hartree Fock is set to
   LHFONE  =     F    Hartree Fock one center treatment
   AEXX    =    0.0000 exact exchange contribution

 Linear response parameters
   LEPSILON=     F    determine dielectric tensor
   LRPA    =     F    only Hartree local field effects (RPA)
   LNABLA  =     F    use nabla operator in PAW spheres
   LVEL    =     F    velocity operator in full k-point grid
   LINTERFAST=   F  fast interpolation
   KINTER  =     0    interpolate to denser k-point grid
   CSHIFT  =0.1000    complex shift for real part using Kramers Kronig
   OMEGAMAX=  -1.0    maximum frequency
   DEG_THRESHOLD= 0.2000000E-02 threshold for treating states as degnerate
   RTIME   =   -0.100 relaxation time in fs
  (WPLASMAI=    0.000 imaginary part of plasma frequency in eV, 0.658/RTIME)
   DFIELD  = 0.0000000 0.0000000 0.0000000 field for delta impulse in time
 
 Orbital magnetization related:
   ORBITALMAG=     F  switch on orbital magnetization
   LCHIMAG   =     F  perturbation theory with respect to B field
   DQ        =  0.001000  dq finite difference perturbation B field
   LLRAUG    =     F  two centre corrections for induced B field



--------------------------------------------------------------------------------------------------------


 Static calculation
 charge density and potential remain constant during run
 non-spin polarized calculation
 RMM-DIIS sequential band-by-band and
  variant of blocked Davidson during initial phase
 perform sub-space diagonalisation
    before iterative eigenvector-optimisation
 no mixing
 using additional bands           49
 real space projection scheme for non local part
 use partial core corrections
 calculate Harris-corrections to forces 
   (improved forces if not selfconsistent)
 use gradient corrections 
 WARNING: stress and forces are not correct
  (second derivative of E(xc) not defined)
 use of overlap-Matrix (Vanderbilt PP)
 Fermi weights with tetrahedron method with Bloechl corrections


--------------------------------------------------------------------------------------------------------


  energy-cutoff  :      500.00
  volume of cell :     1670.12
      direct lattice vectors                 reciprocal lattice vectors
     8.791366577  0.000000000  0.000000000     0.113747958 -0.065672414  0.000000000
     4.395683289  7.613546790  0.000000000     0.000000000  0.131344829  0.000000000
     0.000000000  0.000000000 24.951963562     0.000000000  0.000000000  0.040077006

  length of vectors
     8.791366577  8.791366577 24.951963562     0.131344829  0.131344829  0.040077006


 
 k-points in units of 2pi/SCALE and weight: Automatic mesh                          
   0.00000000  0.00000000  0.00000000       0.016
   0.01421849 -0.00820905  0.00000000       0.031
   0.01421849  0.00820905  0.00000000       0.031
   0.00000000  0.01641810  0.00000000       0.031
   0.02843699 -0.01641810  0.00000000       0.031
   0.02843699  0.01641810  0.00000000       0.031
   0.00000000  0.03283621  0.00000000       0.031
   0.04265548 -0.02462716  0.00000000       0.031
   0.04265548  0.02462716  0.00000000       0.031
   0.00000000  0.04925431  0.00000000       0.031
   0.05687398 -0.03283621  0.00000000       0.016
   0.05687398  0.03283621  0.00000000       0.016
   0.00000000  0.06567241  0.00000000       0.016
   0.02843699 -0.00000000  0.00000000       0.031
   0.01421849  0.02462716  0.00000000       0.031
  -0.01421849  0.02462716  0.00000000       0.031
   0.04265548 -0.00820905  0.00000000       0.031
   0.02843699  0.03283621  0.00000000       0.031
  -0.01421849  0.04104526  0.00000000       0.031
   0.02843699 -0.03283621  0.00000000       0.031
  -0.01421849 -0.04104526  0.00000000       0.031
  -0.04265548 -0.00820905  0.00000000       0.031
   0.05687398 -0.01641810  0.00000000       0.031
   0.04265548  0.04104526  0.00000000       0.031
  -0.01421849  0.05746336  0.00000000       0.031
   0.04265548 -0.04104526  0.00000000       0.031
  -0.01421849  0.07388147  0.00000000       0.031
   0.05687398 -0.08209052  0.00000000       0.031
   0.05687398 -0.00000000  0.00000000       0.031
   0.02843699  0.04925431  0.00000000       0.031
  -0.02843699  0.04925431  0.00000000       0.031
  -0.04265548  0.05746336  0.00000000       0.031
   0.04265548 -0.07388147  0.00000000       0.031
  -0.02843699  0.06567241  0.00000000       0.031
 
 k-points in reciprocal lattice and weights: Automatic mesh                          
   0.00000000  0.00000000  0.00000000       0.016
   0.12500000  0.00000000  0.00000000       0.031
   0.12500000  0.12500000  0.00000000       0.031
   0.00000000  0.12500000  0.00000000       0.031
   0.25000000  0.00000000  0.00000000       0.031
   0.25000000  0.25000000  0.00000000       0.031
   0.00000000  0.25000000  0.00000000       0.031
   0.37500000  0.00000000  0.00000000       0.031
   0.37500000  0.37500000  0.00000000       0.031
   0.00000000  0.37500000  0.00000000       0.031
   0.50000000  0.00000000  0.00000000       0.016
   0.50000000  0.50000000  0.00000000       0.016
   0.00000000  0.50000000  0.00000000       0.016
   0.25000000  0.12500000  0.00000000       0.031
   0.12500000  0.25000000  0.00000000       0.031
  -0.12500000  0.12500000  0.00000000       0.031
   0.37500000  0.12500000  0.00000000       0.031
   0.25000000  0.37500000  0.00000000       0.031
  -0.12500000  0.25000000  0.00000000       0.031
   0.25000000 -0.12500000  0.00000000       0.031
  -0.12500000 -0.37500000  0.00000000       0.031
  -0.37500000 -0.25000000  0.00000000       0.031
   0.50000000  0.12500000  0.00000000       0.031
   0.37500000  0.50000000  0.00000000       0.031
  -0.12500000  0.37500000  0.00000000       0.031
   0.37500000 -0.12500000  0.00000000       0.031
  -0.12500000  0.50000000  0.00000000       0.031
   0.50000000 -0.37500000  0.00000000       0.031
   0.50000000  0.25000000  0.00000000       0.031
   0.25000000  0.50000000  0.00000000       0.031
  -0.25000000  0.25000000  0.00000000       0.031
  -0.37500000  0.25000000  0.00000000       0.031
   0.37500000 -0.37500000  0.00000000       0.031
  -0.25000000  0.37500000  0.00000000       0.031
 
 position of ions in fractional coordinates (direct lattice) 
   0.00000000  0.00000000  0.21169429
   0.33333331  0.00000000  0.21169429
   0.66666663  0.00000000  0.21169429
   0.00000000  0.33333334  0.21169429
   0.33333331  0.33333334  0.21169429
   0.66666669  0.33333334  0.21169429
   0.00000000  0.66666669  0.21169429
   0.33333331  0.66666669  0.21169429
   0.66666663  0.66666669  0.21169429
   0.11111110  0.11111111  0.30758683
   0.44444445  0.11111111  0.30758683
   0.77777779  0.11111111  0.30758683
   0.11111110  0.44444445  0.30758683
   0.44444442  0.44444445  0.30758683
   0.77777779  0.44444445  0.30758683
   0.11111110  0.77777779  0.30758683
   0.44444445  0.77777779  0.30758683
   0.77777779  0.77777779  0.30758683
   0.88899925  0.22200151  0.40274594
   0.22227667  0.22227669  0.40247158
   0.55544659  0.22227669  0.40247158
   0.88886127  0.55556940  0.40350474
   0.22227669  0.55544665  0.40247158
   0.55556940  0.55556940  0.40350474
   0.88899925  0.88899925  0.40274594
   0.22200148  0.88899925  0.40274594
   0.55556934  0.88886127  0.40350474
   0.00000000  0.00000000  0.49883412
   0.33355752  0.00015516  0.50030196
   0.66628726  0.00015516  0.50030196
   0.00015516  0.33355755  0.50030196
   0.66628732  0.33355755  0.50030196
   0.00015516  0.66628732  0.50030196
   0.33355752  0.66628732  0.50030196
   0.66666663  0.66666669  0.49998127
   0.33333331  0.33333334  0.49801056
   0.28139583  0.25460092  0.60129262
   0.45910547  0.25859782  0.60219794
   0.33647581  0.32289938  0.59016604
 
 position of ions in cartesian coordinates  (Angst):
   0.00000000  0.00000000  5.28218814
   2.93045535  0.00000000  5.28218814
   5.86091070  0.00000000  5.28218814
   1.46522781  2.53784900  5.28218814
   4.39568315  2.53784900  5.28218814
   7.32613904  2.53784900  5.28218814
   2.93045562  5.07569801  5.28218814
   5.86091096  5.07569801  5.28218814
   8.79136632  5.07569801  5.28218814
   1.46522770  0.84594965  7.67489535
   4.39568332  0.84594965  7.67489535
   7.32613893  0.84594965  7.67489535
   2.93045542  3.38379860  7.67489535
   5.86091083  3.38379860  7.67489535
   8.79136671  3.38379860  7.67489535
   4.39568328  5.92164760  7.67489535
   7.32613890  5.92164760  7.67489535
  10.25659451  5.92164760  7.67489535
   8.79136665  1.69021891 10.04930193
   2.93117365  1.69231397 10.04245621
   5.86019253  1.69231397 10.04245621
  10.25641234  4.22985360 10.06823562
   4.39568342  4.22891908 10.04245621
   7.32632134  4.22985360 10.06823562
  11.72327746  6.76843739 10.04930193
   5.85945558  6.76843739 10.04930193
   8.79136631  6.76738684 10.06823562
   0.00000000  0.00000000 12.44689088
   2.93310845  0.00118129 12.48351635
   5.85825760  0.00118129 12.48351635
   1.46757738  2.53955601 12.48351635
   7.32378946  2.53955601 12.48351635
   2.93015209  5.07280972 12.48351635
   5.86121449  5.07280972 12.48351635
   8.79136632  5.07569801 12.47551447
   4.39568315  2.53784900 12.42634123
   3.59299887  1.93841604 15.00343153
   5.17287861  1.96884659 15.02602109
   4.37744562  2.45840955 14.72580144
 


--------------------------------------------------------------------------------------------------------


 k-point   1 :   0.0000 0.0000 0.0000  plane waves:   42349
 k-point   2 :   0.1250 0.0000 0.0000  plane waves:   42346
 k-point   3 :   0.1250 0.1250 0.0000  plane waves:   42346
 k-point   4 :   0.0000 0.1250 0.0000  plane waves:   42346
 k-point   5 :   0.2500 0.0000 0.0000  plane waves:   42376
 k-point   6 :   0.2500 0.2500 0.0000  plane waves:   42376
 k-point   7 :   0.0000 0.2500 0.0000  plane waves:   42376
 k-point   8 :   0.3750 0.0000 0.0000  plane waves:   42380
 k-point   9 :   0.3750 0.3750 0.0000  plane waves:   42380
 k-point  10 :   0.0000 0.3750 0.0000  plane waves:   42380
 k-point  11 :   0.5000 0.0000 0.0000  plane waves:   42416
 k-point  12 :   0.5000 0.5000 0.0000  plane waves:   42416
 k-point  13 :   0.0000 0.5000 0.0000  plane waves:   42416
 k-point  14 :   0.2500 0.1250 0.0000  plane waves:   42390
 k-point  15 :   0.1250 0.2500 0.0000  plane waves:   42390
 k-point  16 :  -0.1250 0.1250 0.0000  plane waves:   42390
 k-point  17 :   0.3750 0.1250 0.0000  plane waves:   42414
 k-point  18 :   0.2500 0.3750 0.0000  plane waves:   42414
 k-point  19 :  -0.1250 0.2500 0.0000  plane waves:   42414
 k-point  20 :   0.2500-0.1250 0.0000  plane waves:   42414
 k-point  21 :  -0.1250-0.3750 0.0000  plane waves:   42414
 k-point  22 :  -0.3750-0.2500 0.0000  plane waves:   42414
 k-point  23 :   0.5000 0.1250 0.0000  plane waves:   42428
 k-point  24 :   0.3750 0.5000 0.0000  plane waves:   42428
 k-point  25 :  -0.1250 0.3750 0.0000  plane waves:   42428
 k-point  26 :   0.3750-0.1250 0.0000  plane waves:   42428
 k-point  27 :  -0.1250 0.5000 0.0000  plane waves:   42428
 k-point  28 :   0.5000-0.3750 0.0000  plane waves:   42428
 k-point  29 :   0.5000 0.2500 0.0000  plane waves:   42438
 k-point  30 :   0.2500 0.5000 0.0000  plane waves:   42438
 k-point  31 :  -0.2500 0.2500 0.0000  plane waves:   42438
 k-point  32 :  -0.3750 0.2500 0.0000  plane waves:   42416
 k-point  33 :   0.3750-0.3750 0.0000  plane waves:   42416
 k-point  34 :  -0.2500 0.3750 0.0000  plane waves:   42416

 maximum and minimum number of plane-waves per node :     42438    42346

 maximum number of plane-waves:     42438
 maximum index in each direction: 
   IXMAX=   16   IYMAX=   16   IZMAX=   45
   IXMIN=  -16   IYMIN=  -16   IZMIN=  -45


 serial   3D FFT for wavefunctions
 parallel 3D FFT for charge:
    minimum data exchange during FFTs selected (reduces bandwidth)


 total amount of memory used by VASP MPI-rank0   282291. kBytes
=======================================================================

   base      :      30000. kBytes
   nonlr-proj:      15039. kBytes
   fftplans  :       4808. kBytes
   grid      :      20723. kBytes
   one-center:        606. kBytes
   wavefun   :     211115. kBytes
 
     INWAV:  cpu time    0.0000: real time    0.0001
 initial charge density was supplied:
 number of electron     405.0000023 magnetization 
 keeping initial charge density in first step


--------------------------------------------------------------------------------------------------------


 Maximum index for non-local projection operator         2524
 Maximum index for augmentation-charges          702 (set IRDMAX)


--------------------------------------------------------------------------------------------------------


 First call to EWALD:  gamma=   0.149
 Maximum number of real-space cells 4x 4x 2
 Maximum number of reciprocal cells 2x 2x 5

    FEWALD:  cpu time    0.0013: real time    0.0014


--------------------------------------- Iteration      1(   1)  ---------------------------------------


    POTLOK:  cpu time    0.0492: real time    0.0495
    SETDIJ:  cpu time    0.0047: real time    0.0048
     EDDAV:  cpu time   26.7065: real time   26.7098
 BZINTS: Fermi energy:    9.242102;  405.000000 electrons
         Band energy: 0.945074E+03;  BLOECHL correction:   -0.031872
       DOS:  cpu time    0.0598: real time    0.0599
    --------------------------------------------
      LOOP:  cpu time   26.8203: real time   26.8240

 eigenvalue-minimisations  : 17164
 total energy-change (2. order) : 0.2526695E+04  (-0.1842536E+05)
 number of electron     405.0000023 magnetization 
 augmentation part      405.0000023 magnetization 

 Free energy of the ion-electron system (eV)
  ---------------------------------------------------
  alpha Z        PSCENC =       689.93830257
  Ewald energy   TEWEN  =    139551.56223689
  -Hartree energ DENC   =   -177949.67210600
  -exchange      EXHF   =         0.00000000
  -V(xc)+E(xc)   XCENC  =      -306.22086450
  PAW double counting   =     40179.93406544   -38629.64861785
  entropy T*S    EENTRO =         0.00000000
  eigenvalues    EBANDS =       945.07446017
  atomic energy  EATOM  =     38045.72716298
  Solvation  Ediel_sol  =         0.00000000
  ---------------------------------------------------
  free energy    TOTEN  =      2526.69463971 eV

  energy without entropy =     2526.69463971  energy(sigma->0) =     2526.69463971


--------------------------------------------------------------------------------------------------------




--------------------------------------- Iteration      1(   2)  ---------------------------------------


     EDDAV:  cpu time   28.1577: real time   28.1598
 BZINTS: Fermi energy:    1.300086;  405.000000 electrons
         Band energy:-0.158478E+04;  BLOECHL correction:   -0.040445
       DOS:  cpu time    0.0500: real time    0.0499
    --------------------------------------------
      LOOP:  cpu time   28.2077: real time   28.2098

 eigenvalue-minimisations  : 18144
 total energy-change (2. order) :-0.2529850E+04  (-0.2416917E+04)
 number of electron     405.0000023 magnetization 
 augmentation part      405.0000023 magnetization 

 Free energy of the ion-electron system (eV)
  ---------------------------------------------------
  alpha Z        PSCENC =       689.93830257
  Ewald energy   TEWEN  =    139551.56223689
  -Hartree energ DENC   =   -177949.67210600
  -exchange      EXHF   =         0.00000000
  -V(xc)+E(xc)   XCENC  =      -306.22086450
  PAW double counting   =     40179.93406544   -38629.64861785
  entropy T*S    EENTRO =         0.00000000
  eigenvalues    EBANDS =     -1584.77600614
  atomic energy  EATOM  =     38045.72716298
  Solvation  Ediel_sol  =         0.00000000
  ---------------------------------------------------
  free energy    TOTEN  =        -3.15582660 eV

  energy without entropy =       -3.15582660  energy(sigma->0) =       -3.15582660


--------------------------------------------------------------------------------------------------------




--------------------------------------- Iteration      1(   3)  ---------------------------------------


     EDDAV:  cpu time   34.1460: real time   34.1485
 BZINTS: Fermi energy:    0.734842;  405.000000 electrons
         Band energy:-0.169035E+04;  BLOECHL correction:   -0.020312
       DOS:  cpu time    0.0611: real time    0.0611
    --------------------------------------------
      LOOP:  cpu time   34.2071: real time   34.2096

 eigenvalue-minimisations  : 22904
 total energy-change (2. order) :-0.1055699E+03  (-0.1038351E+03)
 number of electron     405.0000023 magnetization 
 augmentation part      405.0000023 magnetization 

 Free energy of the ion-electron system (eV)
  ---------------------------------------------------
  alpha Z        PSCENC =       689.93830257
  Ewald energy   TEWEN  =    139551.56223689
  -Hartree energ DENC   =   -177949.67210600
  -exchange      EXHF   =         0.00000000
  -V(xc)+E(xc)   XCENC  =      -306.22086450
  PAW double counting   =     40179.93406544   -38629.64861785
  entropy T*S    EENTRO =         0.00000000
  eigenvalues    EBANDS =     -1690.34595535
  atomic energy  EATOM  =     38045.72716298
  Solvation  Ediel_sol  =         0.00000000
  ---------------------------------------------------
  free energy    TOTEN  =      -108.72577582 eV

  energy without entropy =     -108.72577582  energy(sigma->0) =     -108.72577582


--------------------------------------------------------------------------------------------------------




--------------------------------------- Iteration      1(   4)  ---------------------------------------


     EDDAV:  cpu time   38.1481: real time   38.1507
 BZINTS: Fermi energy:    0.711606;  405.000000 electrons
         Band energy:-0.169325E+04;  BLOECHL correction:   -0.020365
       DOS:  cpu time    0.0559: real time    0.0559
    --------------------------------------------
      LOOP:  cpu time   38.2040: real time   38.2066

 eigenvalue-minimisations  : 26264
 total energy-change (2. order) :-0.2905439E+01  (-0.2887396E+01)
 number of electron     405.0000023 magnetization 
 augmentation part      405.0000023 magnetization 

 Free energy of the ion-electron system (eV)
  ---------------------------------------------------
  alpha Z        PSCENC =       689.93830257
  Ewald energy   TEWEN  =    139551.56223689
  -Hartree energ DENC   =   -177949.67210600
  -exchange      EXHF   =         0.00000000
  -V(xc)+E(xc)   XCENC  =      -306.22086450
  PAW double counting   =     40179.93406544   -38629.64861785
  entropy T*S    EENTRO =         0.00000000
  eigenvalues    EBANDS =     -1693.25139420
  atomic energy  EATOM  =     38045.72716298
  Solvation  Ediel_sol  =         0.00000000
  ---------------------------------------------------
  free energy    TOTEN  =      -111.63121466 eV

  energy without entropy =     -111.63121466  energy(sigma->0) =     -111.63121466


--------------------------------------------------------------------------------------------------------




--------------------------------------- Iteration      1(   5)  ---------------------------------------


     EDDAV:  cpu time   30.0440: real time   30.0462
 BZINTS: Fermi energy:    0.710696;  405.000000 electrons
         Band energy:-0.169332E+04;  BLOECHL correction:   -0.020512
       DOS:  cpu time    0.0560: real time    0.0589
    --------------------------------------------
      LOOP:  cpu time   30.1000: real time   30.1051

 eigenvalue-minimisations  : 19684
 total energy-change (2. order) :-0.6613656E-01  (-0.6609538E-01)
 number of electron     405.0000023 magnetization 
 augmentation part      405.0000023 magnetization 

 Free energy of the ion-electron system (eV)
  ---------------------------------------------------
  alpha Z        PSCENC =       689.93830257
  Ewald energy   TEWEN  =    139551.56223689
  -Hartree energ DENC   =   -177949.67210600
  -exchange      EXHF   =         0.00000000
  -V(xc)+E(xc)   XCENC  =      -306.22086450
  PAW double counting   =     40179.93406544   -38629.64861785
  entropy T*S    EENTRO =         0.00000000
  eigenvalues    EBANDS =     -1693.31753075
  atomic energy  EATOM  =     38045.72716298
  Solvation  Ediel_sol  =         0.00000000
  ---------------------------------------------------
  free energy    TOTEN  =      -111.69735122 eV

  energy without entropy =     -111.69735122  energy(sigma->0) =     -111.69735122


--------------------------------------------------------------------------------------------------------




--------------------------------------- Iteration      1(   6)  ---------------------------------------


    EDDIAG:  cpu time    5.3794: real time    5.3801
  RMM-DIIS:  cpu time   19.9260: real time   19.9276
    ORTHCH:  cpu time    0.9713: real time    0.9713
 BZINTS: Fermi energy:    0.710686;  405.000000 electrons
         Band energy:-0.169332E+04;  BLOECHL correction:   -0.020515
       DOS:  cpu time    0.0599: real time    0.0599
    --------------------------------------------
      LOOP:  cpu time   26.3367: real time   26.3389

 eigenvalue-minimisations  : 22881
 total energy-change (2. order) :-0.1451788E-02  (-0.1451487E-02)
 number of electron     405.0000023 magnetization 
 augmentation part      405.0000023 magnetization 

 Free energy of the ion-electron system (eV)
  ---------------------------------------------------
  alpha Z        PSCENC =       689.93830257
  Ewald energy   TEWEN  =    139551.56223689
  -Hartree energ DENC   =   -177949.67210600
  -exchange      EXHF   =         0.00000000
  -V(xc)+E(xc)   XCENC  =      -306.22086450
  PAW double counting   =     40179.93406544   -38629.64861785
  entropy T*S    EENTRO =         0.00000000
  eigenvalues    EBANDS =     -1693.31898254
  atomic energy  EATOM  =     38045.72716298
  Solvation  Ediel_sol  =         0.00000000
  ---------------------------------------------------
  free energy    TOTEN  =      -111.69880301 eV

  energy without entropy =     -111.69880301  energy(sigma->0) =     -111.69880301


--------------------------------------------------------------------------------------------------------




--------------------------------------- Iteration      1(   7)  ---------------------------------------


    EDDIAG:  cpu time    5.3766: real time    5.3771
  RMM-DIIS:  cpu time   28.9938: real time   28.9962
    ORTHCH:  cpu time    0.9712: real time    0.9713
 BZINTS: Fermi energy:    0.710682;  405.000000 electrons
         Band energy:-0.169332E+04;  BLOECHL correction:   -0.020515
       DOS:  cpu time    0.0585: real time    0.0585
    --------------------------------------------
      LOOP:  cpu time   35.4001: real time   35.4031

 eigenvalue-minimisations  : 32412
 total energy-change (2. order) :-0.1209829E-02  (-0.1181684E-02)
 number of electron     405.0000023 magnetization 
 augmentation part      405.0000023 magnetization 

 Free energy of the ion-electron system (eV)
  ---------------------------------------------------
  alpha Z        PSCENC =       689.93830257
  Ewald energy   TEWEN  =    139551.56223689
  -Hartree energ DENC   =   -177949.67210600
  -exchange      EXHF   =         0.00000000
  -V(xc)+E(xc)   XCENC  =      -306.22086450
  PAW double counting   =     40179.93406544   -38629.64861785
  entropy T*S    EENTRO =         0.00000000
  eigenvalues    EBANDS =     -1693.32019237
  atomic energy  EATOM  =     38045.72716298
  Solvation  Ediel_sol  =         0.00000000
  ---------------------------------------------------
  free energy    TOTEN  =      -111.70001284 eV

  energy without entropy =     -111.70001284  energy(sigma->0) =     -111.70001284


--------------------------------------------------------------------------------------------------------




--------------------------------------- Iteration      1(   8)  ---------------------------------------


    EDDIAG:  cpu time    5.3883: real time    5.3887
  RMM-DIIS:  cpu time   22.5529: real time   22.5548
    ORTHCH:  cpu time    0.9719: real time    0.9719
 BZINTS: Fermi energy:    0.710681;  405.000000 electrons
         Band energy:-0.169332E+04;  BLOECHL correction:   -0.020516
       DOS:  cpu time    0.0598: real time    0.0598
    --------------------------------------------
      LOOP:  cpu time   28.9728: real time   28.9752

 eigenvalue-minimisations  : 24180
 total energy-change (2. order) :-0.1262956E-03  (-0.1255750E-03)
 number of electron     405.0000023 magnetization 
 augmentation part      405.0000023 magnetization 

 Free energy of the ion-electron system (eV)
  ---------------------------------------------------
  alpha Z        PSCENC =       689.93830257
  Ewald energy   TEWEN  =    139551.56223689
  -Hartree energ DENC   =   -177949.67210600
  -exchange      EXHF   =         0.00000000
  -V(xc)+E(xc)   XCENC  =      -306.22086450
  PAW double counting   =     40179.93406544   -38629.64861785
  entropy T*S    EENTRO =         0.00000000
  eigenvalues    EBANDS =     -1693.32031867
  atomic energy  EATOM  =     38045.72716298
  Solvation  Ediel_sol  =         0.00000000
  ---------------------------------------------------
  free energy    TOTEN  =      -111.70013913 eV

  energy without entropy =     -111.70013913  energy(sigma->0) =     -111.70013913


--------------------------------------------------------------------------------------------------------




--------------------------------------- Iteration      1(   9)  ---------------------------------------


    EDDIAG:  cpu time    5.3854: real time    5.3860
WARNING in EDDRMM: call to ZHEGV failed, returncode =   6  3      2
  RMM-DIIS:  cpu time   20.0148: real time   20.0164
    ORTHCH:  cpu time    0.9719: real time    0.9720
 BZINTS: Fermi energy:    0.710681;  405.000000 electrons
         Band energy:-0.169332E+04;  BLOECHL correction:   -0.020516
       DOS:  cpu time    0.0611: real time    0.0611
    --------------------------------------------
      LOOP:  cpu time   26.4332: real time   26.4355

 eigenvalue-minimisations  : 20659
 total energy-change (2. order) :-0.3873341E-04  (-0.3758884E-04)
 number of electron     405.0000023 magnetization 
 augmentation part      405.0000023 magnetization 

 Free energy of the ion-electron system (eV)
  ---------------------------------------------------
  alpha Z        PSCENC =       689.93830257
  Ewald energy   TEWEN  =    139551.56223689
  -Hartree energ DENC   =   -177949.67210600
  -exchange      EXHF   =         0.00000000
  -V(xc)+E(xc)   XCENC  =      -306.22086450
  PAW double counting   =     40179.93406544   -38629.64861785
  entropy T*S    EENTRO =         0.00000000
  eigenvalues    EBANDS =     -1693.32035740
  atomic energy  EATOM  =     38045.72716298
  Solvation  Ediel_sol  =         0.00000000
  ---------------------------------------------------
  free energy    TOTEN  =      -111.70017786 eV

  energy without entropy =     -111.70017786  energy(sigma->0) =     -111.70017786


--------------------------------------------------------------------------------------------------------




--------------------------------------- Iteration      1(  10)  ---------------------------------------


    EDDIAG:  cpu time    5.3847: real time    5.3853
  RMM-DIIS:  cpu time   18.1915: real time   18.1930
    ORTHCH:  cpu time    0.9717: real time    0.9718
 BZINTS: Fermi energy:    0.710681;  405.000000 electrons
         Band energy:-0.169332E+04;  BLOECHL correction:   -0.020516
       DOS:  cpu time    0.0586: real time    0.0586
    --------------------------------------------
      LOOP:  cpu time   24.6065: real time   24.6087

 eigenvalue-minimisations  : 19244
 total energy-change (2. order) :-0.1665487E-04  (-0.1683251E-04)
 number of electron     405.0000023 magnetization 
 augmentation part      405.0000023 magnetization 

 Free energy of the ion-electron system (eV)
  ---------------------------------------------------
  alpha Z        PSCENC =       689.93830257
  Ewald energy   TEWEN  =    139551.56223689
  -Hartree energ DENC   =   -177949.67210600
  -exchange      EXHF   =         0.00000000
  -V(xc)+E(xc)   XCENC  =      -306.22086450
  PAW double counting   =     40179.93406544   -38629.64861785
  entropy T*S    EENTRO =         0.00000000
  eigenvalues    EBANDS =     -1693.32037406
  atomic energy  EATOM  =     38045.72716298
  Solvation  Ediel_sol  =         0.00000000
  ---------------------------------------------------
  free energy    TOTEN  =      -111.70019452 eV

  energy without entropy =     -111.70019452  energy(sigma->0) =     -111.70019452


--------------------------------------------------------------------------------------------------------




--------------------------------------- Iteration      1(  11)  ---------------------------------------


    EDDIAG:  cpu time    5.3852: real time    5.3857
WARNING in EDDRMM: call to ZHEGV failed, returncode =   6  3      5
  RMM-DIIS:  cpu time   16.2681: real time   16.2694
    ORTHCH:  cpu time    0.9729: real time    0.9729
 BZINTS: Fermi energy:    0.710681;  405.000000 electrons
         Band energy:-0.169332E+04;  BLOECHL correction:   -0.020516
       DOS:  cpu time    0.0598: real time    0.0598
    --------------------------------------------
      LOOP:  cpu time   22.6860: real time   22.6879

 eigenvalue-minimisations  : 16317
 total energy-change (2. order) :-0.6903487E-05  (-0.7730333E-05)
 number of electron     405.0000023 magnetization 
 augmentation part      405.0000023 magnetization 

 Free energy of the ion-electron system (eV)
  ---------------------------------------------------
  alpha Z        PSCENC =       689.93830257
  Ewald energy   TEWEN  =    139551.56223689
  -Hartree energ DENC   =   -177949.67210600
  -exchange      EXHF   =         0.00000000
  -V(xc)+E(xc)   XCENC  =      -306.22086450
  PAW double counting   =     40179.93406544   -38629.64861785
  entropy T*S    EENTRO =         0.00000000
  eigenvalues    EBANDS =     -1693.32038096
  atomic energy  EATOM  =     38045.72716298
  Solvation  Ediel_sol  =         0.00000000
  ---------------------------------------------------
  free energy    TOTEN  =      -111.70020142 eV

  energy without entropy =     -111.70020142  energy(sigma->0) =     -111.70020142


--------------------------------------------------------------------------------------------------------




 average (electrostatic) potential at core
  the test charge radii are     1.1249  1.0638  0.5201  0.7215
  (the norm of the test charge is              1.0000)
       1 -78.2112       2 -78.2026       3 -78.2027       4 -78.2028       5 -78.2014
       6 -78.2024       7 -78.2076       8 -78.2072       9 -78.2079      10 -78.4446
      11 -78.4187      12 -78.4445      13 -78.4215      14 -78.4214      15 -78.4164
      16 -78.4486      17 -78.4208      18 -78.4212      19 -78.4381      20 -78.6363
      21 -78.6370      22 -78.4040      23 -78.6429      24 -78.4039      25 -78.4391
      26 -78.4392      27 -78.4066      28 -78.2470      29 -78.4474      30 -78.4457
      31 -78.4341      32 -78.4332      33 -78.4216      34 -78.4218      35 -78.2216
      36 -84.2971      37 -41.7293      38 -41.7400      39 -78.2786
 
 
 
 E-fermi :   0.7107     XC(G=0):  -5.3907     alpha+bet : -5.1103

 Fermi energy:         0.7106806784

 k-point     1 :       0.0000    0.0000    0.0000
  band No.  band energies     occupation 
      1     -49.3191      2.00000
      2     -27.4655      2.00000
      3     -27.2975      2.00000
      4     -27.2745      2.00000
      5     -22.7576      2.00000
      6     -10.6210      2.00000
      7      -7.3632      2.00000
      8      -6.4475      2.00000
      9      -5.6126      2.00000
     10      -5.4027      2.00000
     11      -5.3241      2.00000
     12      -5.1900      2.00000
     13      -5.1864      2.00000
     14      -5.1841      2.00000
     15      -5.1696      2.00000
     16      -5.1694      2.00000
[...]
  0.000   0.000   0.000   0.000   0.000   0.000   0.000   0.000   0.000   0.000   1.000   0.000   0.000   0.000   0.000   0.000
  0.000   0.000   0.000   0.000   0.000   0.000   0.000   0.000   0.000   0.000   0.000   0.000   0.000   0.000   0.000   0.000
  0.000   0.000   0.000   0.000   0.000   0.000   0.000   0.000   0.000   0.000   0.000   0.000   0.000   0.000   0.000   0.000
  0.000   0.000   0.000   0.000   0.000   0.000   0.000   0.000   0.000   0.000   0.000   0.000   0.000   0.000   0.000   0.000
  0.000   0.000   0.000   0.000   0.000   0.000   0.000   0.000   0.000   0.000   0.000   0.000   0.000   0.000   0.000   0.000
  0.000   0.000   0.000   0.000   0.000   0.000   0.000   0.000   0.000   0.000   0.000   0.000   0.000   0.000   0.000   0.000
  0.000   0.000   0.000   0.000   0.000   0.000   0.000   0.000   0.000   0.000   0.000   0.000   0.000   0.000   0.000   0.000
  0.000   0.000   0.000   0.000   0.000   0.000   0.000   0.000   0.000   0.000   0.000   0.000   0.000   0.000   0.000   0.000


------------------------ aborting loop because EDIFF is reached ----------------------------------------





 total charge

# of ion       s       p       d       tot
------------------------------------------
    1        0.423   0.201   9.178   9.801
    2        0.417   0.204   9.177   9.798
    3        0.417   0.204   9.177   9.798
    4        0.416   0.204   9.178   9.797
    5        0.417   0.203   9.177   9.797
    6        0.416   0.204   9.178   9.797
    7        0.416   0.204   9.178   9.797
    8        0.416   0.204   9.178   9.797
    9        0.417   0.203   9.177   9.797
   10        0.412   0.268   9.163   9.843
   11        0.407   0.266   9.168   9.841
   12        0.412   0.268   9.163   9.843
   13        0.405   0.267   9.168   9.841
   14        0.405   0.267   9.168   9.841
   15        0.403   0.268   9.165   9.836
   16        0.411   0.269   9.163   9.843
   17        0.403   0.268   9.165   9.836
   18        0.403   0.268   9.165   9.836
   19        0.406   0.265   9.165   9.836
   20        0.443   0.294   9.133   9.870
   21        0.443   0.294   9.133   9.870
   22        0.395   0.272   9.164   9.830
   23        0.442   0.294   9.134   9.869
   24        0.395   0.272   9.164   9.831
   25        0.406   0.265   9.166   9.836
   26        0.406   0.265   9.166   9.836
   27        0.396   0.272   9.163   9.830
   28        0.410   0.210   9.169   9.789
   29        0.457   0.230   9.141   9.827
   30        0.457   0.230   9.141   9.827
   31        0.457   0.229   9.141   9.827
   32        0.457   0.229   9.141   9.827
   33        0.455   0.224   9.145   9.824
   34        0.455   0.224   9.145   9.824
   35        0.406   0.212   9.171   9.789
   36        2.198   5.968   1.481   9.647
   37        0.596   0.117   0.000   0.713
   38        0.596   0.117   0.000   0.713
   39        1.563   3.633   0.000   5.197
--------------------------------------------------
tot         19.652  18.356 322.144 360.152
 
    CHARGE:  cpu time    1.2361: real time    1.2363
    FORLOC:  cpu time    0.0125: real time    0.0125
    FORNL :  cpu time    5.4284: real time    5.4289
    STRESS:  cpu time   16.3082: real time   16.3098
    FORCOR:  cpu time    0.0620: real time    0.0620
    FORHAR:  cpu time    0.0198: real time    0.0198
    OFIELD:  cpu time    0.0003: real time    0.0003

  FORCE on cell =-STRESS in cart. coord.  units (eV):
  Direction    XX          YY          ZZ          XY          YZ          ZX
  --------------------------------------------------------------------------------------
  Alpha Z   689.93830   689.93830   689.93830
  Ewald  162659.70969162583.31006************     1.95956   -34.38971     0.93370
  Hartree172879.28191172863.93590************     0.41222    -6.36882    -0.02083
  E(xc)   -2115.71846 -2116.03999 -2121.84016     0.00811    -0.10622     0.00724
  Local  ************************346860.98055    -1.86932    32.30271    -0.40776
  n-local  -351.28068  -352.01698  -349.22598     0.01110    -0.06476    -0.02283
  augment  3227.36305  3228.62299  3240.30323    -0.03157     0.49132    -0.02824
  Kinetic  5126.32258  5146.40138  5171.90467    -0.48700     7.96930    -0.44458
  Fock        0.00000     0.00000     0.00000     0.00000     0.00000     0.00000
  -------------------------------------------------------------------------------------
  Total      -6.90962    -6.81785     0.04988     0.00311    -0.16617     0.01670
  in kB      -6.62852    -6.54049     0.04785     0.00298    -0.15941     0.01602
  external pressure =       -4.37 kB  Pullay stress =        0.00 kB


 VOLUME and BASIS-vectors are now :
 -----------------------------------------------------------------------------
  energy-cutoff  :      500.00
  volume of cell :     1670.12
      direct lattice vectors                 reciprocal lattice vectors
     8.791366577  0.000000000  0.000000000     0.113747958 -0.065672414  0.000000000
     4.395683289  7.613546790  0.000000000     0.000000000  0.131344829  0.000000000
     0.000000000  0.000000000 24.951963562     0.000000000  0.000000000  0.040077006

  length of vectors
     8.791366577  8.791366577 24.951963562     0.131344829  0.131344829  0.040077006


 FORCES acting on ions
    electron-ion (+dipol)            ewald-force                    non-local-force                 convergence-correction
 -----------------------------------------------------------------------------------------------
   0.353E-02 0.125E-01 0.275E+04   -.134E-02 -.110E-01 -.275E+04   -.555E-03 -.826E-02 -.185E+01   -.154E-02 0.105E-01 0.832E-01
   -.110E+00 0.432E+00 0.275E+04   0.164E-01 -.580E+00 -.275E+04   0.183E-01 0.144E+00 -.159E+01   0.795E-01 0.241E-02 0.206E+00
   0.108E+00 0.424E+00 0.275E+04   -.150E-01 -.579E+00 -.275E+04   -.180E-01 0.143E+00 -.159E+01   -.794E-01 0.103E-01 0.209E+00
   0.292E+00 -.347E+00 0.275E+04   -.485E+00 0.318E+00 -.275E+04   0.151E+00 -.467E-01 -.161E+01   0.393E-01 0.744E-01 0.159E+00
   -.117E-01 -.195E-01 0.275E+04   0.217E-02 0.204E-01 -.275E+04   -.416E-02 -.689E-02 -.140E+01   0.141E-01 0.230E-02 0.209E+00
   -.285E+00 -.350E+00 0.275E+04   0.483E+00 0.318E+00 -.275E+04   -.149E+00 -.464E-01 -.161E+01   -.459E-01 0.773E-01 0.161E+00
   0.444E+00 -.967E-01 0.275E+04   -.500E+00 0.262E+00 -.275E+04   0.101E+00 -.895E-01 -.167E+01   -.491E-01 -.750E-01 0.180E+00
   -.451E+00 -.909E-01 0.275E+04   0.500E+00 0.260E+00 -.275E+04   -.102E+00 -.887E-01 -.167E+01   0.552E-01 -.796E-01 0.179E+00
   0.109E-01 0.445E-01 0.275E+04   -.708E-03 -.911E-02 -.274E+04   0.307E-02 -.103E-01 -.167E+01   -.136E-01 -.235E-01 0.223E+00
   0.179E+01 0.104E+01 0.969E+03   -.154E+01 -.869E+00 -.968E+03   -.307E+00 -.188E+00 -.705E+00   0.483E-01 0.191E-01 0.131E+00
   -.252E-01 0.536E+01 0.971E+03   0.128E-01 -.541E+01 -.971E+03   -.236E-02 0.849E-01 -.240E+00   0.151E-01 -.916E-01 0.143E-01
   -.177E+01 0.103E+01 0.969E+03   0.152E+01 -.861E+00 -.968E+03   0.308E+00 -.190E+00 -.703E+00   -.551E-01 0.204E-01 0.129E+00
   0.459E+01 -.277E+01 0.971E+03   -.469E+01 0.283E+01 -.971E+03   0.914E-01 -.550E-01 -.240E+00   -.368E-01 0.266E-01 0.145E-01
   -.462E+01 -.276E+01 0.971E+03   0.470E+01 0.282E+01 -.970E+03   -.953E-01 -.541E-01 -.240E+00   0.551E-01 0.206E-01 0.511E-02
   0.180E-01 -.320E+01 0.964E+03   -.130E-01 0.305E+01 -.964E+03   0.629E-03 0.584E-01 -.722E+00   -.545E-02 0.908E-01 0.486E-01
   0.286E-02 -.195E+01 0.969E+03   0.834E-03 0.163E+01 -.968E+03   -.125E-02 0.366E+00 -.726E+00   -.252E-02 -.397E-01 0.134E+00
   -.267E+01 0.164E+01 0.964E+03   0.254E+01 -.161E+01 -.964E+03   0.325E-01 -.157E-01 -.725E+00   0.943E-01 -.206E-01 0.541E-01
   0.267E+01 0.162E+01 0.964E+03   -.254E+01 -.159E+01 -.964E+03   -.323E-01 -.162E-01 -.726E+00   -.929E-01 -.136E-01 0.596E-01
   0.952E-01 -.208E+01 -.835E+03   -.955E-01 0.216E+01 0.835E+03   -.115E-02 0.188E-01 0.674E+00   0.130E-02 -.103E+00 0.464E-01
   0.205E+02 0.112E+02 -.805E+03   -.192E+02 -.103E+02 0.806E+03   -.110E+01 -.667E+00 -.910E+00   -.243E+00 -.197E+00 -.320E+00
   -.206E+02 0.112E+02 -.805E+03   0.193E+02 -.103E+02 0.806E+03   0.110E+01 -.665E+00 -.905E+00   0.224E+00 -.202E+00 -.319E+00
   0.933E+01 -.574E+01 -.840E+03   -.925E+01 0.561E+01 0.840E+03   0.107E+00 -.304E-01 0.428E+00   -.164E+00 0.141E+00 -.119E+00
   -.594E-01 -.239E+02 -.807E+03   0.753E-01 0.223E+02 0.808E+03   -.521E-03 0.128E+01 -.755E+00   -.156E-01 0.313E+00 -.306E+00
   -.927E+01 -.565E+01 -.840E+03   0.917E+01 0.553E+01 0.840E+03   -.109E+00 -.308E-01 0.423E+00   0.187E+00 0.140E+00 -.118E+00
   0.124E+01 0.163E+01 -.836E+03   -.130E+01 -.162E+01 0.835E+03   0.946E-02 -.418E-01 0.772E+00   0.606E-01 0.375E-01 0.517E-01
   -.121E+01 0.172E+01 -.836E+03   0.127E+01 -.171E+01 0.835E+03   -.144E-01 -.427E-01 0.767E+00   -.479E-01 0.423E-01 0.546E-01
   -.417E-01 0.118E+02 -.839E+03   0.331E-01 -.117E+02 0.839E+03   -.401E-03 0.116E+00 0.398E+00   0.897E-02 -.177E+00 -.119E+00
   0.265E+00 0.242E+01 -.263E+04   -.266E+00 -.246E+01 0.263E+04   0.199E-02 0.527E-01 0.140E+01   -.260E-03 -.109E-01 -.246E+00
   0.363E+02 0.546E+02 -.262E+04   -.352E+02 -.532E+02 0.262E+04   -.886E+00 -.124E+01 0.451E+00   -.194E+00 -.233E+00 -.140E+00
   -.365E+02 0.538E+02 -.262E+04   0.354E+02 -.523E+02 0.262E+04   0.886E+00 -.124E+01 0.470E+00   0.193E+00 -.229E+00 -.140E+00
   0.612E+02 0.171E+00 -.262E+04   -.594E+02 0.945E-01 0.262E+04   -.158E+01 -.178E+00 0.398E+00   -.300E+00 -.876E-01 -.142E+00
   -.601E+02 0.336E+00 -.263E+04   0.583E+02 -.674E-01 0.263E+04   0.159E+01 -.181E+00 0.395E+00   0.298E+00 -.872E-01 -.141E+00
   0.233E+02 -.512E+02 -.263E+04   -.227E+02 0.496E+02 0.263E+04   -.549E+00 0.134E+01 0.835E+00   -.904E-01 0.321E+00 -.140E+00
   -.234E+02 -.506E+02 -.263E+04   0.228E+02 0.489E+02 0.263E+04   0.553E+00 0.135E+01 0.816E+00   0.934E-01 0.322E+00 -.138E+00
   0.158E+00 0.190E+01 -.265E+04   -.148E+00 -.192E+01 0.265E+04   0.111E-04 -.163E-01 0.165E+01   -.107E-01 0.306E-01 -.227E+00
   -.167E+01 -.145E+02 -.267E+04   0.165E+01 0.144E+02 0.267E+04   0.207E-02 0.125E+00 0.129E+01   0.102E-01 -.224E-01 0.175E-01
   0.709E+02 0.437E+02 -.297E+03   -.776E+02 -.479E+02 0.299E+03   0.670E+01 0.417E+01 -.227E+01   -.595E-02 -.607E-02 0.120E-01
   -.718E+02 0.410E+02 -.298E+03   0.786E+02 -.449E+02 0.301E+03   -.679E+01 0.391E+01 -.247E+01   0.578E-02 -.582E-02 0.121E-01
   0.869E+00 -.505E+02 -.169E+04   -.148E+01 0.897E+02 0.168E+04   0.611E+00 -.392E+02 0.119E+02   -.109E-02 -.171E-01 0.133E+00
 -----------------------------------------------------------------------------------------------
   -.558E+00 0.312E+02 0.392E+01   0.708E-13 0.256E-12 0.387E-11   0.515E+00 -.312E+02 -.397E+01   0.283E-01 -.186E-01 -.882E-01
 
 
 POSITION                                       TOTAL-FORCE (eV/Angst)
 -----------------------------------------------------------------------------------
      0.00000      0.00000      5.28219         0.000472      0.003042     -0.023449
      2.93046      0.00000      5.28219         0.004335     -0.002030      0.027010
      5.86091      0.00000      5.28219        -0.003723     -0.001879      0.027005
      1.46523      2.53785      5.28219        -0.002928     -0.001682      0.032682
      4.39568      2.53785      5.28219         0.000746     -0.004423      0.037801
      7.32614      2.53785      5.28219         0.003580     -0.001520      0.032751
      2.93046      5.07570      5.28219        -0.002722      0.000340      0.034530
      5.86091      5.07570      5.28219         0.003575      0.000308      0.034584
      8.79137      5.07570      5.28219         0.000075      0.000855      0.000470
      1.46523      0.84595      7.67490        -0.004627     -0.002710     -0.070455
      4.39568      0.84595      7.67490         0.000760     -0.054267     -0.059589
      7.32614      0.84595      7.67490         0.005374     -0.002712     -0.070896
      2.93046      3.38380      7.67490        -0.041776      0.027368     -0.058528
      5.86091      3.38380      7.67490         0.042895      0.027147     -0.058607
      8.79137      3.38380      7.67490         0.000556      0.001421      0.019006
      4.39568      5.92165      7.67490         0.000305      0.003504     -0.073335
      7.32614      5.92165      7.67490        -0.001257     -0.001652      0.025020
     10.25659      5.92165      7.67490         0.002112     -0.001912      0.025405
      8.79137      1.69022     10.04930         0.000167     -0.005284     -0.006745
      2.93117      1.69231     10.04246        -0.031676     -0.014729     -0.059901
      5.86019      1.69231     10.04246         0.033107     -0.014964     -0.060242
     10.25641      4.22985     10.06824         0.022161     -0.018294      0.004378
      4.39568      4.22892     10.04246         0.000118      0.044406     -0.049829
      7.32632      4.22985     10.06824        -0.021142     -0.018070      0.003841
     11.72328      6.76844     10.04930         0.008210      0.007838     -0.005025
      5.85946      6.76844     10.04930        -0.006784      0.007391     -0.005304
      8.79137      6.76739     10.06824         0.000342      0.025840     -0.002214
      0.00000      0.00000     12.44689         0.000531      0.001532      0.043138
      2.93311      0.00118     12.48352        -0.033024     -0.050284     -0.052242
      5.85826      0.00118     12.48352         0.032871     -0.048808     -0.051534
      1.46758      2.53956     12.48352        -0.033981     -0.001133     -0.037285
      7.32379      2.53956     12.48352         0.029476      0.000163     -0.032525
      2.93015      5.07281     12.48352        -0.051687      0.046157     -0.073000
      5.86121      5.07281     12.48352         0.051778      0.042263     -0.069874
      8.79137      5.07570     12.47551         0.000134     -0.002421      0.035053
      4.39568      2.53785     12.42634        -0.002702      0.022971      0.534983
      3.59300      1.93842     15.00343         0.002872     -0.006499      0.002856
      5.17288      1.96885     15.02602        -0.007691     -0.005704     -0.000600
      4.37745      2.45841     14.72580        -0.000832     -0.001571      0.000666
 -----------------------------------------------------------------------------------
    total drift:                               -0.014803      0.027361     -0.134827


--------------------------------------------------------------------------------------------------------



  FREE ENERGIE OF THE ION-ELECTRON SYSTEM (eV)
  ---------------------------------------------------
  free  energy   TOTEN  =      -111.70020142 eV

  energy  without entropy=     -111.70020142  energy(sigma->0) =     -111.70020142
 


--------------------------------------------------------------------------------------------------------


    POTLOK:  cpu time    0.0577: real time    0.0577


--------------------------------------------------------------------------------------------------------


 stress matrix after NEB project (eV)
     -6.90962      0.00311      0.01670
      0.00311     -6.81785     -0.16617
      0.01670     -0.16617      0.04988
  FORCES: max atom, RMS     0.009594    0.001989
  FORCE total and by dimension    0.012421    0.007691
  Stress total and by dimension    9.710006    6.909617
     LOOP+:  cpu time  345.2156: real time  345.2526
 -----------------------------------------------------------------------------
|                                                                             |
|           W    W    AA    RRRRR   N    N  II  N    N   GGGG   !!!           |
|           W    W   A  A   R    R  NN   N  II  NN   N  G    G  !!!           |
|           W    W  A    A  R    R  N N  N  II  N N  N  G       !!!           |
|           W WW W  AAAAAA  RRRRR   N  N N  II  N  N N  G  GGG   !            |
|           WW  WW  A    A  R   R   N   NN  II  N   NN  G    G                |
|           W    W  A    A  R    R  N    N  II  N    N   GGGG   !!!           |
|                                                                             |
|     Tetrahedron method does not include variations of the Fermi             |
|     occupations, so forces and stress will be inaccurate. We suggest        |
|     using a different smearing scheme ISMEAR = 1 or 2 for metals in         |
|     relaxations.                                                            |
|                                                                             |
 -----------------------------------------------------------------------------

    4ORBIT:  cpu time    0.0000: real time    0.0000



 total charge

# of ion       s       p       d       tot
------------------------------------------
    1        0.423   0.201   9.178   9.801
    2        0.417   0.204   9.177   9.798
    3        0.417   0.204   9.177   9.798
    4        0.416   0.204   9.178   9.797
    5        0.417   0.203   9.177   9.797
    6        0.416   0.204   9.178   9.797
    7        0.416   0.204   9.178   9.797
    8        0.416   0.204   9.178   9.797
    9        0.417   0.203   9.177   9.797
   10        0.412   0.268   9.163   9.843
   11        0.407   0.266   9.168   9.841
   12        0.412   0.268   9.163   9.843
   13        0.405   0.267   9.168   9.841
   14        0.405   0.267   9.168   9.841
   15        0.403   0.268   9.165   9.836
   16        0.411   0.269   9.163   9.843
   17        0.403   0.268   9.165   9.836
   18        0.403   0.268   9.165   9.836
   19        0.406   0.265   9.165   9.836
   20        0.443   0.294   9.133   9.870
   21        0.443   0.294   9.133   9.870
   22        0.395   0.272   9.164   9.830
   23        0.442   0.294   9.134   9.869
   24        0.395   0.272   9.164   9.831
   25        0.406   0.265   9.166   9.836
   26        0.406   0.265   9.166   9.836
   27        0.396   0.272   9.163   9.830
   28        0.410   0.210   9.169   9.789
   29        0.457   0.230   9.141   9.827
   30        0.457   0.230   9.141   9.827
   31        0.457   0.229   9.141   9.827
   32        0.457   0.229   9.141   9.827
   33        0.455   0.224   9.145   9.824
   34        0.455   0.224   9.145   9.824
   35        0.406   0.212   9.171   9.789
   36        2.198   5.968   1.481   9.647
   37        0.596   0.117   0.000   0.713
   38        0.596   0.117   0.000   0.713
   39        1.563   3.633   0.000   5.197
--------------------------------------------------
tot         19.652  18.356 322.144 360.152
 
 BZINTS: Fermi energy:    0.710681;  405.000000 electrons
         Band energy:-0.169332E+04;  BLOECHL correction:   -0.020516

 total amount of memory used by VASP MPI-rank0   282291. kBytes
=======================================================================

   base      :      30000. kBytes
   nonlr-proj:      15039. kBytes
   fftplans  :       4808. kBytes
   grid      :      20723. kBytes
   one-center:        606. kBytes
   wavefun   :     211115. kBytes
 
  
  
 General timing and accounting informations for this job:
 ========================================================
  
                  Total CPU time used (sec):      368.616
                            User time (sec):      357.939
                          System time (sec):       10.676
                         Elapsed time (sec):      369.156
  
                   Maximum memory used (kb):      586112.
                   Average memory used (kb):          N/A
  
                          Minor page faults:       132013
                          Major page faults:            0
                 Voluntary context switches:         7990
