PROCAR new format
# of k-points:   10         # of bands:  252         # of ions:   37

 k-point     1 :    0.00000000 0.00000000 0.00000000     weight = 0.01562500

band     1 # energy   -8.86444842 # occ.  2.00000000
 
ion      s      p      d    tot
    1  0.003  0.000  0.000  0.004
    2  0.003  0.000  0.000  0.003
    3  0.003  0.000  0.000  0.003
    4  0.003  0.000  0.000  0.003
    5  0.003  0.000  0.000  0.003
    6  0.003  0.000  0.000  0.003
    7  0.003  0.000  0.000  0.003
    8  0.003  0.000  0.000  0.003
    9  0.003  0.000  0.000  0.003
   10  0.015  0.000  0.000  0.015
   11  0.016  0.000  0.000  0.016
   12  0.015  0.000  0.000  0.015
   13  0.016  0.000  0.000  0.016
   14  0.016  0.000  0.000  0.016
   15  0.014  0.000  0.000  0.014
   16  0.015  0.000  0.000  0.015
   17  0.014  0.000  0.000  0.014
   18  0.014  0.000  0.000  0.014
   19  0.016  0.000  0.000  0.016
   20  0.029  0.000  0.002  0.031
   21  0.029  0.000  0.002  0.031
   22  0.017  0.000  0.000  0.017
   23  0.029  0.000  0.002  0.031
   24  0.017  0.000  0.000  0.017
   25  0.016  0.000  0.000  0.016
   26  0.016  0.000  0.000  0.016
   27  0.017  0.000  0.000  0.017
   28  0.004  0.000  0.000  0.005
   29  0.008  0.000  0.000  0.009
   30  0.008  0.000  0.000  0.009
   31  0.008  0.000  0.000  0.009
   32  0.008  0.000  0.000  0.009
   33  0.008  0.000  0.000  0.009
   34  0.008  0.000  0.000  0.009
   35  0.004  0.000  0.000  0.005
   36  0.082  0.006  0.032  0.119
   37  0.103  0.005  0.000  0.107
tot    0.590  0.019  0.042  0.650
 
band     2 # energy   -8.37342883 # occ.  2.00000000
 
ion      s      p      d    tot
    1  0.005  0.000  0.000  0.006
    2  0.005  0.000  0.000  0.006
    3  0.005  0.000  0.000  0.006
    4  0.005  0.000  0.000  0.006
    5  0.006  0.000  0.000  0.006
    6  0.005  0.000  0.000  0.006
    7  0.005  0.000  0.000  0.006
    8  0.005  0.000  0.000  0.006
    9  0.006  0.000  0.000  0.006
   10  0.014  0.000  0.001  0.014
   11  0.015  0.000  0.000  0.015
   12  0.014  0.000  0.001  0.014
   13  0.015  0.000  0.000  0.015
   14  0.015  0.000  0.000  0.015
   15  0.016  0.000  0.000  0.016
   16  0.014  0.000  0.001  0.014
   17  0.016  0.000  0.000  0.016
   18  0.016  0.000  0.000  0.016
   19  0.005  0.000  0.000  0.005
   20  0.001  0.002  0.003  0.006
   21  0.001  0.002  0.003  0.006
   22  0.006  0.000  0.000  0.006
   23  0.001  0.002  0.003  0.006
   24  0.006  0.000  0.000  0.006
   25  0.005  0.000  0.000  0.005
   26  0.005  0.000  0.000  0.005
   27  0.006  0.000  0.000  0.006
   28  0.000  0.000  0.000  0.000
   29  0.001  0.001  0.002  0.003
   30  0.001  0.001  0.002  0.003
   31  0.001  0.001  0.002  0.003
   32  0.001  0.001  0.002  0.003
   33  0.001  0.001  0.002  0.003
   34  0.001  0.001  0.002  0.003
   35  0.000  0.000  0.000  0.000
   36  0.081  0.035  0.076  0.192
   37  0.249  0.009  0.000  0.257
tot    0.552  0.058  0.101  0.711
 
band     3 # energy   -7.44355359 # occ.  2.00000000
 
ion      s      p      d    tot
    1  0.016  0.000  0.001  0.018
    2  0.015  0.000  0.001  0.017
    3  0.015  0.000  0.001  0.017
    4  0.015  0.000  0.001  0.017
    5  0.015  0.000  0.001  0.016
    6  0.015  0.000  0.001  0.017
    7  0.015  0.000  0.001  0.017
    8  0.015  0.000  0.001  0.017
    9  0.015  0.000  0.001  0.016
   10  0.008  0.001  0.002  0.012
   11  0.007  0.002  0.002  0.011
   12  0.008  0.001  0.002  0.012
   13  0.007  0.002  0.002  0.011
   14  0.007  0.002  0.002  0.011
   15  0.006  0.002  0.002  0.010
   16  0.008  0.001  0.002  0.012
   17  0.006  0.002  0.002  0.010
   18  0.006  0.002  0.002  0.010
   19  0.016  0.001  0.004  0.021
   20  0.013  0.001  0.006  0.020
   21  0.013  0.001  0.006  0.020
   22  0.019  0.001  0.004  0.024
   23  0.013  0.001  0.006  0.020
   24  0.019  0.001  0.004  0.024
   25  0.016  0.001  0.004  0.021
   26  0.016  0.001  0.004  0.021
   27  0.019  0.001  0.004  0.024
   28  0.012  0.001  0.000  0.013
   29  0.010  0.001  0.001  0.011
   30  0.010  0.001  0.001  0.011
   31  0.010  0.001  0.001  0.011
   32  0.010  0.001  0.001  0.011
   33  0.010  0.001  0.001  0.011
   34  0.010  0.001  0.001  0.011
   35  0.013  0.001  0.000  0.014
   36  0.000  0.013  0.023  0.036
   37  0.048  0.001  0.000  0.049
tot    0.477  0.043  0.104  0.624
 
band     4 # energy   -6.61261079 # occ.  2.00000000
 
ion      s      p      d    tot
    1  0.001  0.000  0.012  0.014
    2  0.008  0.000  0.009  0.017
    3  0.008  0.000  0.009  0.017
    4  0.008  0.000  0.009  0.017
    5  0.005  0.000  0.006  0.011
    6  0.008  0.000  0.009  0.017
    7  0.008  0.000  0.009  0.017
    8  0.008  0.000  0.009  0.017
    9  0.027  0.001  0.004  0.031
   10  0.011  0.001  0.013  0.025
   11  0.009  0.002  0.008  0.020
   12  0.011  0.001  0.013  0.025
   13  0.009  0.002  0.008  0.020
   14  0.009  0.002  0.008  0.020
   15  0.005  0.001  0.011  0.016
   16  0.011  0.001  0.013  0.025
   17  0.005  0.001  0.011  0.016
   18  0.005  0.001  0.011  0.016
   19  0.000  0.001  0.014  0.015
   20  0.020  0.002  0.015  0.037
   21  0.020  0.002  0.015  0.037
   22  0.006  0.001  0.004  0.011
   23  0.020  0.002  0.015  0.037
   24  0.005  0.001  0.004  0.011
   25  0.000  0.001  0.014  0.015
   26  0.000  0.001  0.014  0.015
   27  0.006  0.001  0.004  0.011
   28  0.011  0.000  0.003  0.014
   29  0.010  0.000  0.008  0.018
   30  0.010  0.000  0.008  0.018
   31  0.010  0.000  0.008  0.018
   32  0.010  0.000  0.008  0.018
   33  0.010  0.000  0.008  0.018
   34  0.010  0.000  0.008  0.018
   35  0.022  0.000  0.004  0.026
   36  0.000  0.004  0.011  0.016
   37  0.000  0.000  0.000  0.000
tot    0.326  0.032  0.334  0.693
 
band     5 # energy   -6.60865015 # occ.  2.00000000
 
ion      s      p      d    tot
    1  0.000  0.000  0.008  0.008
    2  0.001  0.000  0.003  0.005
    3  0.004  0.001  0.002  0.007
    4  0.006  0.001  0.003  0.010
    5  0.000  0.001  0.006  0.007
    6  0.002  0.001  0.002  0.005
    7  0.006  0.001  0.003  0.010
    8  0.000  0.000  0.003  0.003
    9  0.000  0.000  0.001  0.001
   10  0.005  0.000  0.028  0.034
   11  0.018  0.003  0.020  0.041
   12  0.034  0.002  0.006  0.042
   13  0.049  0.001  0.012  0.061
   14  0.007  0.003  0.023  0.033
   15  0.000  0.002  0.007  0.009
   16  0.013  0.001  0.022  0.036
   17  0.001  0.000  0.011  0.012
   18  0.000  0.003  0.005  0.008
   19  0.003  0.003  0.007  0.013
   20  0.010  0.002  0.034  0.046
   21  0.066  0.001  0.013  0.080
   22  0.016  0.002  0.005  0.023
   23  0.025  0.002  0.028  0.055
   24  0.002  0.001  0.023  0.026
   25  0.001  0.003  0.004  0.009
   26  0.009  0.000  0.013  0.022
   27  0.006  0.001  0.018  0.025
   28  0.000  0.000  0.001  0.001
   29  0.001  0.000  0.003  0.004
   30  0.006  0.001  0.004  0.012
   31  0.001  0.000  0.002  0.004
   32  0.006  0.001  0.005  0.012
   33  0.002  0.001  0.003  0.006
   34  0.002  0.001  0.003  0.006
   35  0.000  0.000  0.004  0.004
   36  0.000  0.005  0.010  0.015
   37  0.000  0.000  0.000  0.000
tot    0.306  0.045  0.347  0.698
 
band     6 # energy   -6.60863926 # occ.  2.00000000
 
ion      s      p      d    tot
    1  0.000  0.000  0.008  0.008
    2  0.005  0.001  0.003  0.009
    3  0.003  0.001  0.003  0.007
    4  0.001  0.000  0.002  0.003
    5  0.000  0.001  0.006  0.007
    6  0.004  0.001  0.003  0.009
    7  0.000  0.000  0.003  0.003
    8  0.006  0.001  0.003  0.010
    9  0.000  0.000  0.001  0.001
   10  0.030  0.002  0.009  0.041
   11  0.031  0.002  0.016  0.049
   12  0.001  0.000  0.032  0.032
   13  0.001  0.004  0.025  0.029
   14  0.042  0.001  0.013  0.057
   15  0.001  0.001  0.009  0.011
   16  0.022  0.001  0.015  0.039
   17  0.000  0.003  0.005  0.008
   18  0.001  0.001  0.010  0.012
   19  0.006  0.002  0.009  0.017
   20  0.058  0.001  0.016  0.075
   21  0.001  0.002  0.037  0.041
   22  0.000  0.000  0.026  0.027
   23  0.042  0.002  0.022  0.066
   24  0.014  0.001  0.008  0.023
   25  0.008  0.001  0.011  0.020
   26  0.000  0.004  0.003  0.007
   27  0.010  0.001  0.013  0.024
   28  0.000  0.000  0.001  0.001
   29  0.005  0.001  0.004  0.010
   30  0.000  0.000  0.002  0.003
   31  0.005  0.001  0.004  0.011
   32  0.000  0.000  0.002  0.002
   33  0.004  0.001  0.004  0.009
   34  0.004  0.001  0.003  0.008
   35  0.000  0.000  0.004  0.004
   36  0.000  0.005  0.010  0.015
   37  0.000  0.000  0.000  0.000
tot    0.306  0.045  0.347  0.698
 
band     7 # energy   -6.57292916 # occ.  2.00000000
 
ion      s      p      d    tot
    1  0.021  0.000  0.010  0.031
    2  0.011  0.000  0.014  0.025
    3  0.011  0.000  0.014  0.025
    4  0.011  0.000  0.014  0.025
    5  0.011  0.000  0.014  0.025
    6  0.011  0.000  0.014  0.025
    7  0.011  0.000  0.014  0.025
    8  0.011  0.000  0.014  0.025
    9  0.006  0.000  0.014  0.020
   10  0.001  0.000  0.030  0.031
   11  0.006  0.000  0.024  0.030
   12  0.001  0.000  0.030  0.031
   13  0.006  0.000  0.024  0.030
   14  0.006  0.000  0.024  0.030
   15  0.016  0.001  0.018  0.035
   16  0.001  0.000  0.030  0.031
   17  0.016  0.001  0.018  0.035
   18  0.016  0.001  0.018  0.035
   19  0.004  0.000  0.013  0.018
   20  0.008  0.000  0.023  0.031
   21  0.008  0.000  0.023  0.031
   22  0.000  0.000  0.013  0.014
   23  0.008  0.000  0.023  0.031
   24  0.000  0.000  0.013  0.014
   25  0.004  0.000  0.013  0.018
   26  0.004  0.000  0.013  0.018
   27  0.000  0.000  0.013  0.014
   28  0.001  0.000  0.002  0.002
   29  0.002  0.000  0.003  0.005
   30  0.002  0.000  0.003  0.005
   31  0.002  0.000  0.003  0.005
   32  0.002  0.000  0.003  0.005
   33  0.002  0.000  0.003  0.005
   34  0.002  0.000  0.003  0.005
   35  0.006  0.000  0.002  0.007
   36  0.000  0.002  0.005  0.007
   37  0.000  0.000  0.000  0.001
tot    0.234  0.009  0.509  0.752
 
band     8 # energy   -6.53933119 # occ.  2.00000000
 
ion      s      p      d    tot
    1  0.000  0.000  0.001  0.001
    2  0.001  0.001  0.006  0.008
    3  0.001  0.001  0.006  0.008
    4  0.001  0.001  0.006  0.008
    5  0.022  0.002  0.000  0.024
    6  0.001  0.001  0.006  0.008
    7  0.001  0.001  0.006  0.008
    8  0.001  0.001  0.006  0.008
    9  0.001  0.001  0.005  0.007
   10  0.008  0.002  0.010  0.021
   11  0.021  0.002  0.007  0.030
   12  0.008  0.002  0.010  0.021
   13  0.021  0.002  0.007  0.030
   14  0.021  0.002  0.007  0.030
   15  0.010  0.000  0.023  0.034
   16  0.008  0.002  0.010  0.021
   17  0.010  0.000  0.023  0.034
   18  0.010  0.000  0.023  0.034
   19  0.025  0.001  0.009  0.035
   20  0.007  0.002  0.017  0.027
   21  0.007  0.002  0.017  0.027
   22  0.000  0.001  0.022  0.023
   23  0.007  0.002  0.017  0.027
   24  0.000  0.001  0.022  0.023
   25  0.025  0.001  0.009  0.035
   26  0.025  0.001  0.009  0.035
   27  0.000  0.001  0.022  0.023
   28  0.001  0.001  0.007  0.009
   29  0.004  0.000  0.008  0.013
   30  0.004  0.000  0.008  0.013
   31  0.004  0.000  0.008  0.013
   32  0.004  0.000  0.008  0.013
   33  0.004  0.000  0.008  0.013
   34  0.004  0.000  0.008  0.013
   35  0.007  0.000  0.001  0.008
   36  0.009  0.003  0.014  0.026
   37  0.007  0.000  0.000  0.007
tot    0.299  0.038  0.373  0.710
 
band     9 # energy   -6.50589591 # occ.  2.00000000
 
ion      s      p      d    tot
    1  0.015  0.001  0.000  0.017
    2  0.000  0.000  0.004  0.005
    3  0.000  0.000  0.004  0.005
    4  0.000  0.000  0.004  0.005
    5  0.001  0.000  0.002  0.003
    6  0.000  0.000  0.004  0.005
    7  0.000  0.000  0.004  0.005
    8  0.000  0.000  0.004  0.005
    9  0.001  0.000  0.000  0.002
   10  0.018  0.001  0.007  0.026
   11  0.003  0.000  0.021  0.025
   12  0.018  0.001  0.007  0.026
   13  0.003  0.000  0.021  0.024
   14  0.003  0.000  0.021  0.024
   15  0.007  0.002  0.004  0.014
   16  0.017  0.001  0.008  0.026
   17  0.008  0.002  0.004  0.014
   18  0.008  0.002  0.004  0.014
   19  0.003  0.002  0.010  0.014
   20  0.000  0.001  0.029  0.030
   21  0.000  0.001  0.029  0.030
   22  0.024  0.002  0.012  0.037
   23  0.000  0.001  0.029  0.030
   24  0.024  0.002  0.012  0.037
   25  0.003  0.002  0.010  0.014
   26  0.003  0.002  0.010  0.014
   27  0.024  0.002  0.012  0.037
   28  0.024  0.000  0.006  0.031
   29  0.012  0.000  0.011  0.023
   30  0.012  0.000  0.011  0.023
   31  0.012  0.000  0.011  0.023
   32  0.012  0.000  0.011  0.023
   33  0.012  0.000  0.011  0.023
   34  0.012  0.000  0.011  0.023
   35  0.001  0.001  0.016  0.018
   36  0.005  0.003  0.019  0.027
   37  0.014  0.000  0.000  0.014
tot    0.300  0.032  0.382  0.714
 
band    10 # energy   -6.50296800 # occ.  2.00000000
 
ion      s      p      d    tot
    1  0.000  0.001  0.004  0.004
    2  0.007  0.001  0.004  0.013
    3  0.009  0.002  0.004  0.014
    4  0.001  0.001  0.004  0.006
    5  0.000  0.000  0.005  0.005
    6  0.000  0.000  0.004  0.004
    7  0.006  0.001  0.003  0.010
    8  0.003  0.001  0.003  0.007
    9  0.000  0.001  0.011  0.013
   10  0.022  0.001  0.015  0.038
   11  0.000  0.002  0.026  0.028
   12  0.016  0.002  0.011  0.029
   13  0.005  0.001  0.015  0.022
   14  0.008  0.001  0.010  0.019
   15  0.002  0.001  0.042  0.045
   16  0.001  0.005  0.004  0.009
   17  0.039  0.001  0.020  0.061
   18  0.056  0.002  0.010  0.068
   19  0.001  0.000  0.034  0.035
   20  0.001  0.001  0.014  0.016
   21  0.000  0.001  0.014  0.015
   22  0.020  0.002  0.013  0.035
   23  0.000  0.002  0.012  0.014
   24  0.029  0.001  0.012  0.042
   25  0.033  0.002  0.007  0.042
   26  0.023  0.001  0.016  0.040
   27  0.001  0.004  0.016  0.020
   28  0.000  0.000  0.006  0.006
   29  0.000  0.000  0.001  0.002
   30  0.001  0.000  0.001  0.002
   31  0.001  0.000  0.002  0.004
   32  0.002  0.000  0.002  0.005
   33  0.003  0.001  0.002  0.006
   34  0.004  0.001  0.002  0.007
   35  0.000  0.001  0.003  0.004
   36  0.000  0.000  0.001  0.001
   37  0.000  0.000  0.000  0.000
tot    0.295  0.041  0.357  0.693
 
band    11 # energy   -6.50294332 # occ.  2.00000000
 
ion      s      p      d    tot
    1  0.000  0.001  0.004  0.004
    2  0.001  0.001  0.003  0.005
    3  0.000  0.000  0.003  0.004
    4  0.007  0.001  0.004  0.012
    5  0.000  0.000  0.005  0.005
    6  0.009  0.001  0.004  0.014
    7  0.003  0.001  0.004  0.008
    8  0.006  0.001  0.004  0.011
    9  0.000  0.001  0.011  0.013
   10  0.003  0.004  0.005  0.012
   11  0.009  0.001  0.008  0.018
   12  0.010  0.003  0.009  0.022
   13  0.004  0.001  0.019  0.024
   14  0.001  0.001  0.024  0.027
   15  0.063  0.002  0.007  0.071
   16  0.025  0.000  0.016  0.042
   17  0.025  0.001  0.028  0.055
   18  0.008  0.001  0.038  0.048
   19  0.037  0.002  0.004  0.043
   20  0.000  0.002  0.012  0.014
   21  0.000  0.002  0.013  0.015
   22  0.013  0.003  0.014  0.030
   23  0.001  0.001  0.015  0.016
   24  0.004  0.003  0.015  0.023
   25  0.005  0.000  0.031  0.036
   26  0.015  0.001  0.022  0.038
   27  0.033  0.001  0.012  0.045
   28  0.000  0.000  0.006  0.006
   29  0.004  0.001  0.002  0.007
   30  0.003  0.001  0.002  0.006
   31  0.003  0.000  0.002  0.005
   32  0.001  0.000  0.001  0.003
   33  0.001  0.000  0.002  0.003
   34  0.000  0.000  0.001  0.002
   35  0.000  0.001  0.003  0.004
   36  0.000  0.000  0.001  0.001
   37  0.000  0.000  0.000  0.000
tot    0.295  0.041  0.357  0.693
 
band    12 # energy   -6.12239427 # occ.  2.00000000
 
ion      s      p      d    tot
    1  0.000  0.001  0.004  0.004
    2  0.000  0.000  0.005  0.005
    3  0.009  0.001  0.004  0.015
    4  0.001  0.001  0.005  0.007
    5  0.000  0.001  0.010  0.011
    6  0.005  0.001  0.004  0.010
    7  0.008  0.001  0.004  0.014
    8  0.003  0.001  0.004  0.007
    9  0.000  0.000  0.008  0.008
   10  0.000  0.001  0.049  0.049
   11  0.015  0.001  0.024  0.039
   12  0.008  0.001  0.015  0.024
   13  0.019  0.001  0.017  0.037
   14  0.000  0.000  0.048  0.048
   15  0.001  0.001  0.018  0.020
   16  0.006  0.001  0.022  0.030
   17  0.002  0.000  0.020  0.022
   18  0.000  0.001  0.012  0.013
   19  0.003  0.000  0.016  0.019
   20  0.000  0.000  0.087  0.088
   21  0.017  0.001  0.021  0.038
   22  0.004  0.001  0.017  0.023
   23  0.013  0.001  0.036  0.050
   24  0.000  0.001  0.033  0.033
   25  0.000  0.001  0.009  0.010
   26  0.003  0.000  0.018  0.022
   27  0.003  0.001  0.021  0.025
   28  0.000  0.000  0.007  0.007
   29  0.003  0.001  0.005  0.009
   30  0.008  0.001  0.005  0.014
   31  0.005  0.001  0.006  0.011
   32  0.002  0.001  0.003  0.005
   33  0.009  0.001  0.005  0.016
   34  0.000  0.000  0.003  0.004
   35  0.000  0.000  0.002  0.003
   36  0.000  0.005  0.009  0.014
   37  0.000  0.000  0.000  0.000
tot    0.150  0.032  0.573  0.756
 
band    13 # energy   -6.12238935 # occ.  2.00000000
 
ion      s      p      d    tot
    1  0.000  0.001  0.004  0.004
    2  0.009  0.001  0.004  0.014
    3  0.000  0.000  0.004  0.005
    4  0.008  0.001  0.004  0.013
    5  0.000  0.001  0.010  0.011
    6  0.004  0.001  0.005  0.010
    7  0.001  0.000  0.004  0.005
    8  0.006  0.001  0.005  0.012
    9  0.000  0.000  0.008  0.008
   10  0.009  0.002  0.009  0.020
   11  0.008  0.000  0.035  0.043
   12  0.002  0.001  0.042  0.045
   13  0.004  0.000  0.042  0.046
   14  0.022  0.001  0.011  0.035
   15  0.001  0.001  0.015  0.016
   16  0.003  0.001  0.035  0.039
   17  0.000  0.001  0.013  0.015
   18  0.002  0.000  0.021  0.023
   19  0.001  0.001  0.013  0.015
   20  0.020  0.001  0.008  0.029
   21  0.003  0.000  0.075  0.079
   22  0.001  0.001  0.030  0.031
   23  0.007  0.001  0.060  0.068
   24  0.005  0.001  0.014  0.021
   25  0.004  0.000  0.020  0.024
   26  0.001  0.001  0.011  0.012
   27  0.002  0.001  0.026  0.029
   28  0.000  0.000  0.007  0.007
   29  0.006  0.001  0.004  0.011
   30  0.001  0.000  0.004  0.006
   31  0.004  0.001  0.004  0.009
   32  0.007  0.001  0.006  0.015
   33  0.000  0.000  0.004  0.004
   34  0.009  0.001  0.006  0.016
   35  0.000  0.000  0.002  0.003
   36  0.000  0.005  0.009  0.014
   37  0.000  0.000  0.000  0.000
tot    0.150  0.032  0.573  0.756
 
band    14 # energy   -6.10860381 # occ.  2.00000000
 
ion      s      p      d    tot
    1  0.016  0.002  0.002  0.019
    2  0.000  0.001  0.007  0.007
    3  0.000  0.001  0.007  0.007
    4  0.000  0.001  0.007  0.007
    5  0.000  0.000  0.002  0.003
    6  0.000  0.001  0.007  0.007
    7  0.000  0.001  0.007  0.007
    8  0.000  0.001  0.007  0.007
    9  0.010  0.001  0.000  0.011
   10  0.009  0.001  0.011  0.020
   11  0.005  0.000  0.038  0.043
   12  0.009  0.001  0.011  0.020
   13  0.005  0.000  0.038  0.043
   14  0.005  0.000  0.038  0.043
   15  0.001  0.001  0.027  0.028
   16  0.008  0.001  0.011  0.020
   17  0.001  0.001  0.027  0.028
   18  0.001  0.001  0.027  0.028
   19  0.006  0.001  0.006  0.014
   20  0.000  0.000  0.056  0.057
   21  0.000  0.000  0.056  0.057
   22  0.010  0.001  0.028  0.039
   23  0.000  0.000  0.056  0.057
   24  0.010  0.001  0.028  0.039
   25  0.006  0.001  0.006  0.014
   26  0.006  0.001  0.006  0.014
   27  0.010  0.001  0.027  0.039
   28  0.017  0.001  0.000  0.018
   29  0.000  0.000  0.008  0.009
   30  0.000  0.000  0.008  0.009
   31  0.000  0.000  0.008  0.009
   32  0.000  0.001  0.008  0.009
   33  0.000  0.000  0.008  0.009
   34  0.000  0.001  0.008  0.009
   35  0.002  0.001  0.004  0.007
   36  0.003  0.000  0.002  0.006
   37  0.000  0.000  0.000  0.000
tot    0.142  0.026  0.593  0.760
 
band    15 # energy   -6.04341686 # occ.  2.00000000
 
ion      s      p      d    tot
    1  0.003  0.000  0.001  0.004
    2  0.000  0.001  0.009  0.010
    3  0.000  0.001  0.009  0.010
    4  0.000  0.001  0.009  0.010
    5  0.019  0.002  0.000  0.021
    6  0.000  0.001  0.009  0.010
    7  0.000  0.001  0.009  0.010
    8  0.000  0.001  0.009  0.010
    9  0.008  0.001  0.002  0.011
   10  0.001  0.000  0.042  0.044
   11  0.005  0.001  0.017  0.023
   12  0.001  0.000  0.042  0.044
   13  0.005  0.001  0.017  0.023
   14  0.005  0.001  0.017  0.023
   15  0.010  0.002  0.017  0.028
   16  0.001  0.000  0.043  0.044
   17  0.010  0.002  0.017  0.028
   18  0.010  0.002  0.017  0.028
   19  0.007  0.000  0.038  0.045
   20  0.010  0.002  0.011  0.023
   21  0.010  0.002  0.011  0.023
   22  0.002  0.000  0.028  0.030
   23  0.010  0.002  0.011  0.023
   24  0.002  0.000  0.028  0.030
   25  0.007  0.000  0.038  0.045
   26  0.007  0.000  0.038  0.045
   27  0.002  0.000  0.028  0.030
   28  0.000  0.000  0.004  0.004
   29  0.000  0.000  0.007  0.008
   30  0.000  0.000  0.007  0.008
   31  0.000  0.000  0.007  0.008
   32  0.000  0.000  0.007  0.008
   33  0.000  0.000  0.007  0.008
   34  0.000  0.000  0.007  0.008
   35  0.005  0.001  0.000  0.006
   36  0.013  0.011  0.001  0.025
   37  0.008  0.000  0.000  0.008
tot    0.160  0.039  0.564  0.763
 
band    16 # energy   -6.02389401 # occ.  2.00000000
 
ion      s      p      d    tot
    1  0.000  0.001  0.015  0.015
    2  0.003  0.000  0.005  0.008
    3  0.008  0.001  0.004  0.013
    4  0.006  0.001  0.005  0.012
    5  0.000  0.000  0.006  0.006
    6  0.010  0.001  0.004  0.015
    7  0.002  0.001  0.005  0.008
    8  0.000  0.000  0.005  0.006
    9  0.000  0.001  0.006  0.007
   10  0.006  0.000  0.025  0.031
   11  0.000  0.001  0.021  0.023
   12  0.001  0.001  0.032  0.033
   13  0.000  0.001  0.016  0.017
   14  0.000  0.001  0.019  0.020
   15  0.011  0.002  0.011  0.024
   16  0.010  0.000  0.019  0.029
   17  0.001  0.000  0.058  0.059
   18  0.006  0.001  0.032  0.040
   19  0.018  0.001  0.009  0.028
   20  0.000  0.001  0.025  0.026
   21  0.000  0.002  0.024  0.026
   22  0.001  0.001  0.027  0.029
   23  0.000  0.000  0.026  0.027
   24  0.012  0.001  0.023  0.035
   25  0.010  0.001  0.035  0.045
   26  0.001  0.000  0.065  0.067
   27  0.021  0.001  0.019  0.040
   28  0.000  0.001  0.005  0.006
   29  0.000  0.001  0.005  0.006
   30  0.004  0.001  0.004  0.008
   31  0.005  0.001  0.002  0.008
   32  0.006  0.001  0.003  0.009
   33  0.003  0.001  0.003  0.007
   34  0.000  0.000  0.005  0.006
   35  0.000  0.001  0.008  0.009
   36  0.000  0.000  0.003  0.003
   37  0.000  0.000  0.000  0.000
tot    0.145  0.027  0.580  0.752
 
band    17 # energy   -6.02388918 # occ.  2.00000000
 
ion      s      p      d    tot
    1  0.000  0.001  0.015  0.015
    2  0.007  0.001  0.005  0.013
    3  0.002  0.001  0.005  0.008
    4  0.003  0.000  0.005  0.009
    5  0.000  0.000  0.006  0.006
    6  0.000  0.000  0.005  0.006
    7  0.008  0.001  0.004  0.013
    8  0.009  0.001  0.004  0.015
    9  0.000  0.001  0.006  0.007
   10  0.005  0.000  0.026  0.031
   11  0.000  0.001  0.016  0.017
   12  0.010  0.000  0.019  0.029
   13  0.000  0.001  0.022  0.023
   14  0.000  0.001  0.019  0.020
   15  0.001  0.000  0.056  0.058
   16  0.001  0.001  0.032  0.033
   17  0.012  0.002  0.009  0.023
   18  0.006  0.001  0.035  0.042
   19  0.002  0.000  0.064  0.065
   20  0.000  0.001  0.025  0.026
   21  0.000  0.000  0.026  0.027
   22  0.021  0.001  0.018  0.040
   23  0.000  0.002  0.024  0.026
   24  0.011  0.001  0.023  0.034
   25  0.009  0.001  0.038  0.048
   26  0.018  0.001  0.007  0.027
   27  0.002  0.001  0.027  0.029
   28  0.000  0.001  0.005  0.006
   29  0.006  0.001  0.002  0.009
   30  0.003  0.000  0.003  0.006
   31  0.001  0.001  0.005  0.007
   32  0.000  0.000  0.005  0.006
   33  0.003  0.001  0.004  0.008
   34  0.006  0.001  0.003  0.009
   35  0.000  0.001  0.008  0.009
   36  0.000  0.000  0.003  0.003
   37  0.000  0.000  0.000  0.000
tot    0.145  0.027  0.580  0.752
 
band    18 # energy   -5.74787051 # occ.  2.00000000
 
ion      s      p      d    tot
    1  0.000  0.000  0.019  0.019
    2  0.000  0.000  0.010  0.011
    3  0.002  0.001  0.008  0.010
    4  0.009  0.001  0.007  0.017
    5  0.000  0.001  0.015  0.017
    6  0.005  0.001  0.006  0.012
    7  0.008  0.001  0.009  0.017
    8  0.003  0.000  0.011  0.014
    9  0.000  0.001  0.004  0.005
   10  0.000  0.000  0.015  0.016
   11  0.000  0.000  0.054  0.054
   12  0.000  0.001  0.023  0.024
   13  0.001  0.000  0.048  0.049
   14  0.000  0.000  0.052  0.052
   15  0.000  0.000  0.009  0.009
   16  0.000  0.000  0.010  0.010
   17  0.000  0.000  0.018  0.018
   18  0.000  0.000  0.013  0.013
   19  0.000  0.000  0.007  0.007
   20  0.001  0.000  0.069  0.070
   21  0.002  0.000  0.097  0.099
   22  0.002  0.000  0.016  0.018
   23  0.000  0.001  0.051  0.051
   24  0.001  0.000  0.021  0.022
   25  0.000  0.000  0.009  0.010
   26  0.000  0.000  0.014  0.014
   27  0.000  0.000  0.024  0.024
   28  0.000  0.001  0.004  0.004
   29  0.004  0.000  0.014  0.018
   30  0.009  0.001  0.019  0.030
   31  0.005  0.001  0.010  0.016
   32  0.010  0.001  0.018  0.029
   33  0.002  0.000  0.006  0.008
   34  0.001  0.000  0.009  0.009
   35  0.000  0.000  0.019  0.019
   36  0.000  0.005  0.014  0.018
   37  0.000  0.000  0.000  0.000
tot    0.064  0.020  0.750  0.834
 
band    19 # energy   -5.74786071 # occ.  2.00000000
 
ion      s      p      d    tot
    1  0.000  0.000  0.019  0.019
    2  0.009  0.001  0.007  0.016
    3  0.007  0.000  0.009  0.017
    4  0.000  0.000  0.010  0.010
    5  0.000  0.001  0.015  0.017
    6  0.004  0.000  0.011  0.015
    7  0.001  0.001  0.008  0.010
    8  0.006  0.001  0.006  0.013
    9  0.000  0.001  0.004  0.005
   10  0.000  0.000  0.017  0.018
   11  0.001  0.000  0.048  0.050
   12  0.000  0.000  0.009  0.009
   13  0.000  0.000  0.054  0.055
   14  0.001  0.000  0.051  0.052
   15  0.000  0.000  0.017  0.018
   16  0.000  0.001  0.022  0.023
   17  0.000  0.000  0.009  0.009
   18  0.000  0.000  0.014  0.014
   19  0.000  0.000  0.014  0.014
   20  0.001  0.000  0.075  0.077
   21  0.000  0.001  0.048  0.048
   22  0.000  0.000  0.024  0.024
   23  0.001  0.000  0.094  0.095
   24  0.001  0.000  0.020  0.021
   25  0.000  0.000  0.010  0.011
   26  0.000  0.000  0.006  0.006
   27  0.001  0.000  0.017  0.018
   28  0.000  0.001  0.004  0.004
   29  0.006  0.001  0.011  0.018
   30  0.001  0.000  0.006  0.007
   31  0.005  0.001  0.015  0.021
   32  0.000  0.000  0.007  0.008
   33  0.008  0.001  0.019  0.028
   34  0.009  0.001  0.017  0.027
   35  0.000  0.000  0.019  0.019
   36  0.000  0.005  0.014  0.018
   37  0.000  0.000  0.000  0.000
tot    0.064  0.020  0.750  0.834
 
band    20 # energy   -5.74557782 # occ.  2.00000000
 
ion      s      p      d    tot
    1  0.008  0.000  0.006  0.015
    2  0.000  0.001  0.016  0.016
    3  0.000  0.001  0.016  0.016
    4  0.000  0.001  0.016  0.016
    5  0.004  0.001  0.002  0.007
    6  0.000  0.001  0.016  0.016
    7  0.000  0.001  0.016  0.016
    8  0.000  0.001  0.016  0.016
    9  0.023  0.001  0.002  0.026
   10  0.001  0.000  0.020  0.021
   11  0.000  0.000  0.027  0.027
   12  0.001  0.000  0.020  0.021
   13  0.000  0.000  0.027  0.027
   14  0.000  0.000  0.027  0.027
   15  0.000  0.000  0.030  0.030
   16  0.001  0.000  0.020  0.021
   17  0.000  0.000  0.030  0.030
   18  0.000  0.000  0.030  0.030
   19  0.000  0.000  0.024  0.025
   20  0.001  0.000  0.041  0.041
   21  0.001  0.000  0.041  0.042
   22  0.000  0.000  0.026  0.027
   23  0.001  0.000  0.041  0.042
   24  0.000  0.000  0.026  0.027
   25  0.000  0.000  0.025  0.025
   26  0.000  0.000  0.024  0.025
   27  0.000  0.000  0.026  0.027
   28  0.000  0.000  0.008  0.009
   29  0.000  0.001  0.019  0.020
   30  0.000  0.001  0.019  0.020
   31  0.000  0.001  0.019  0.020
   32  0.000  0.001  0.019  0.020
   33  0.000  0.001  0.019  0.020
   34  0.000  0.001  0.019  0.020
   35  0.016  0.001  0.000  0.017
   36  0.011  0.000  0.011  0.022
   37  0.000  0.000  0.000  0.000
tot    0.068  0.017  0.744  0.828
 
band    21 # energy   -5.68942206 # occ.  2.00000000
 
ion      s      p      d    tot
    1  0.008  0.001  0.000  0.009
    2  0.000  0.001  0.015  0.016
    3  0.000  0.001  0.015  0.016
    4  0.000  0.001  0.015  0.016
    5  0.015  0.000  0.009  0.024
    6  0.000  0.001  0.015  0.016
    7  0.000  0.001  0.015  0.016
    8  0.000  0.001  0.015  0.016
    9  0.001  0.000  0.009  0.011
   10  0.000  0.000  0.026  0.026
   11  0.000  0.000  0.027  0.027
   12  0.000  0.000  0.026  0.026
   13  0.000  0.000  0.027  0.027
   14  0.000  0.000  0.027  0.027
   15  0.000  0.000  0.032  0.032
   16  0.000  0.000  0.026  0.026
   17  0.000  0.000  0.032  0.032
   18  0.000  0.000  0.032  0.032
   19  0.000  0.000  0.024  0.024
   20  0.000  0.000  0.025  0.025
   21  0.000  0.000  0.025  0.025
   22  0.001  0.000  0.024  0.025
   23  0.000  0.000  0.025  0.025
   24  0.001  0.000  0.024  0.025
   25  0.000  0.000  0.024  0.024
   26  0.000  0.000  0.024  0.024
   27  0.001  0.000  0.024  0.025
   28  0.021  0.000  0.005  0.026
   29  0.000  0.000  0.025  0.025
   30  0.000  0.000  0.025  0.025
   31  0.000  0.000  0.025  0.025
   32  0.000  0.000  0.025  0.025
   33  0.000  0.000  0.025  0.025
   34  0.000  0.000  0.025  0.025
   35  0.013  0.000  0.007  0.020
   36  0.001  0.002  0.000  0.004