 vasp.6.2.0 18Jan21 (build Jun 12 2021 23:27:24) complex                        
  
 executed on             LinuxIFC date 2022.05.27  05:58:24
 running on   28 total cores
 distrk:  each k-point on   28 cores,    1 groups
 distr:  one band on NCORE=   1 cores,   28 groups


--------------------------------------------------------------------------------------------------------


 INCAR:
   ISMEAR = -5
   SIGMA = 0.1
   ISPIN = 1
   EDIFF = 1.d-5
   EDIFFG = -0.01
   NSW = 0
   NELM = 150
   ENCUT = 500
   ISIF = 2
   IBRION = 2
   LREAL = Auto
   ALGO = Fast
   ICHARG = 11
   LORBIT = 10
   LCHARG = .F.
   LWAVE = .F.

 POTCAR:    PAW_PBE Cu 22Jun2005                  
 POTCAR:    PAW_PBE V 08Apr2002                   
 POTCAR:    PAW_PBE O 08Apr2002                   
 POTCAR:    PAW_PBE H 15Jun2001                   
 -----------------------------------------------------------------------------
|                                                                             |
|           W    W    AA    RRRRR   N    N  II  N    N   GGGG   !!!           |
|           W    W   A  A   R    R  NN   N  II  NN   N  G    G  !!!           |
|           W    W  A    A  R    R  N N  N  II  N N  N  G       !!!           |
|           W WW W  AAAAAA  RRRRR   N  N N  II  N  N N  G  GGG   !            |
|           WW  WW  A    A  R   R   N   NN  II  N   NN  G    G                |
|           W    W  A    A  R    R  N    N  II  N    N   GGGG   !!!           |
|                                                                             |
|     For optimal performance we recommend to set                             |
|       NCORE = 2 up to number-of-cores-per-socket                            |
|     NCORE specifies how many cores store one orbital (NPAR=cpu/NCORE).      |
|     This setting can greatly improve the performance of VASP for DFT.       |
|     The default, NCORE=1 might be grossly inefficient on modern             |
|     multi-core architectures or massively parallel machines. Do your        |
|     own testing! More info at https://www.vasp.at/wiki/index.php/NCORE      |
|     Unfortunately you need to use the default for GW and RPA                |
|     calculations (for HF NCORE is supported but not extensively tested      |
|     yet).                                                                   |
|                                                                             |
 -----------------------------------------------------------------------------

 POTCAR:    PAW_PBE Cu 22Jun2005                  
   VRHFIN =Cu: d10 p1                                                                               
   LEXCH  = PE                                                                                      
   EATOM  =  1390.9808 eV,  102.2342 Ry                                                             
                                                                                                    
   TITEL  = PAW_PBE Cu 22Jun2005                                                                    
   LULTRA =        F    use ultrasoft PP ?                                                          
   IUNSCR =        1    unscreen: 0-lin 1-nonlin 2-no                                               
   RPACOR =    2.000    partial core radius                                                         
   POMASS =   63.546; ZVAL   =   11.000    mass and valenz                                          
   RCORE  =    2.300    outmost cutoff radius                                                       
   RWIGS  =    2.200; RWIGS  =    1.164    wigner-seitz radius (au A)                               
   ENMAX  =  295.446; ENMIN  =  221.585 eV                                                          
   ICORE  =        3    local potential                                                             
   LCOR   =        T    correct aug charges                                                         
   LPAW   =        T    paw PP                                                                      
   EAUG   =  586.980                                                                                
   DEXC   =    0.000                                                                                
   RMAX   =    2.344    core radius for proj-oper                                                   
   RAUG   =    1.300    factor for augmentation sphere                                              
   RDEP   =    2.302    radius for radial grids                                                     
   RDEPT  =    1.771    core radius for aug-charge                                                  
                                                                                                    
   Atomic configuration                                                                             
    9 entries                                                                                       
     n  l   j            E        occ.                                                              
     1  0  0.50     -8850.2468   2.0000                                                             
     2  0  0.50     -1062.3498   2.0000                                                             
     2  1  1.50      -916.8226   6.0000                                                             
     3  0  0.50      -114.6929   2.0000                                                             
     3  1  1.50       -72.1325   6.0000                                                             
     3  2  2.50        -5.0394  10.0000                                                             
     4  0  0.50        -4.6097   1.0000                                                             
     4  1  0.50        -4.0817   0.0000                                                             
     4  3  2.50        -1.3606   0.0000                                                             
   Description                                                                                      
     l       E           TYP  RCUT    TYP  RCUT                                                     
     2     -5.0393973     23  2.200                                                                 
     2     10.8846608     23  2.200                                                                 
     0     -4.6097109     23  2.200                                                                 
     0      8.2520465     23  2.200                                                                 
     1     -2.7211652     23  2.200                                                                 
     1     21.7055443     23  2.200                                                                 
     3      2.7211652     23  2.300                                                                 
  local pseudopotential read in
  partial core-charges read in
  partial kinetic energy density read in
  atomic valenz-charges read in
  non local Contribution for L=           2  read in
    real space projection operators read in
  non local Contribution for L=           2  read in
    real space projection operators read in
  non local Contribution for L=           0  read in
    real space projection operators read in
  non local Contribution for L=           0  read in
    real space projection operators read in
  non local Contribution for L=           1  read in
    real space projection operators read in
  non local Contribution for L=           1  read in
    real space projection operators read in
    PAW grid and wavefunctions read in
 
   number of l-projection  operators is LMAX  =           6
   number of lm-projection operators is LMMAX =          18
 
 POTCAR:    PAW_PBE V 08Apr2002                   
   VRHFIN =V: p6 d4 s1                                                                              
   LEXCH  = PE                                                                                      
   EATOM  =   170.8679 eV,   12.5584 Ry                                                             
                                                                                                    
   TITEL  = PAW_PBE V 08Apr2002                                                                     
   LULTRA =        F    use ultrasoft PP ?                                                          
   IUNSCR =        1    unscreen: 0-lin 1-nonlin 2-no                                               
   RPACOR =    2.000    partial core radius                                                         
   POMASS =   50.941; ZVAL   =    5.000    mass and valenz                                          
   RCORE  =    2.700    outmost cutoff radius                                                       
   RWIGS  =    2.500; RWIGS  =    1.323    wigner-seitz radius (au A)                               
   ENMAX  =  192.543; ENMIN  =  144.408 eV                                                          
   RCLOC  =    1.779    cutoff for local pot                                                        
   LCOR   =        T    correct aug charges                                                         
   LPAW   =        T    paw PP                                                                      
   EAUG   =  358.662                                                                                
   DEXC   =    0.000                                                                                
   RMAX   =    2.768    core radius for proj-oper                                                   
   RAUG   =    1.300    factor for augmentation sphere                                              
   RDEP   =    2.762    radius for radial grids                                                     
   RDEPT  =    2.240    core radius for aug-charge                                                  
                                                                                                    
   Atomic configuration                                                                             
    9 entries                                                                                       
     n  l   j            E        occ.                                                              
     1  0  0.50     -5360.7193   2.0000                                                             
     2  0  0.50      -598.4546   2.0000                                                             
     2  1  1.50      -499.0155   6.0000                                                             
     3  0  0.50       -66.5711   2.0000                                                             
     3  1  1.50       -40.5282   6.0000                                                             
     3  2  2.50        -2.4291   4.0000                                                             
     4  0  0.50        -3.8743   1.0000                                                             
     4  1  0.50        -2.7212   0.0000                                                             
     4  3  2.50        -1.3606   0.0000                                                             
   Description                                                                                      
     l       E           TYP  RCUT    TYP  RCUT                                                     
     2     -2.4290901     23  2.700                                                                 
     2     -3.7896727     23  2.700                                                                 
     0     -3.8742752     23  2.700                                                                 
     0     27.2116520     23  2.700                                                                 
     1     -2.7211652     23  2.700                                                                 
     1     27.2116520     23  2.700                                                                 
  local pseudopotential read in
  partial core-charges read in
  partial kinetic energy density read in
  atomic valenz-charges read in
  non local Contribution for L=           2  read in
    real space projection operators read in
  non local Contribution for L=           2  read in
    real space projection operators read in
  non local Contribution for L=           0  read in
    real space projection operators read in
  non local Contribution for L=           0  read in
    real space projection operators read in
  non local Contribution for L=           1  read in
    real space projection operators read in
  non local Contribution for L=           1  read in
    real space projection operators read in
    PAW grid and wavefunctions read in
 
   number of l-projection  operators is LMAX  =           6
   number of lm-projection operators is LMMAX =          18
 
 POTCAR:    PAW_PBE O 08Apr2002                   
   VRHFIN =O: s2p4                                                                                  
   LEXCH  = PE                                                                                      
   EATOM  =   432.3788 eV,   31.7789 Ry                                                             
                                                                                                    
   TITEL  = PAW_PBE O 08Apr2002                                                                     
   LULTRA =        F    use ultrasoft PP ?                                                          
   IUNSCR =        1    unscreen: 0-lin 1-nonlin 2-no                                               
   RPACOR =    1.200    partial core radius                                                         
   POMASS =   16.000; ZVAL   =    6.000    mass and valenz                                          
   RCORE  =    1.520    outmost cutoff radius                                                       
   RWIGS  =    1.550; RWIGS  =    0.820    wigner-seitz radius (au A)                               
   ENMAX  =  400.000; ENMIN  =  300.000 eV                                                          
   ICORE  =        2    local potential                                                             
   LCOR   =        T    correct aug charges                                                         
   LPAW   =        T    paw PP                                                                      
   EAUG   =  605.392                                                                                
   DEXC   =    0.000                                                                                
   RMAX   =    1.553    core radius for proj-oper                                                   
   RAUG   =    1.300    factor for augmentation sphere                                              
   RDEP   =    1.550    radius for radial grids                                                     
   RDEPT  =    1.329    core radius for aug-charge                                                  
                                                                                                    
   Atomic configuration                                                                             
    4 entries                                                                                       
     n  l   j            E        occ.                                                              
     1  0  0.50      -514.6923   2.0000                                                             
     2  0  0.50       -23.9615   2.0000                                                             
     2  1  0.50        -9.0305   4.0000                                                             
     3  2  1.50        -9.5241   0.0000                                                             
   Description                                                                                      
     l       E           TYP  RCUT    TYP  RCUT                                                     
     0    -23.9615318     23  1.200                                                                 
     0     -9.5240782     23  1.200                                                                 
     1     -9.0304911     23  1.520                                                                 
     1      8.1634956     23  1.520                                                                 
     2     -9.5240782      7  1.500                                                                 
  local pseudopotential read in
  partial core-charges read in
  partial kinetic energy density read in
  kinetic energy density of atom read in
  atomic valenz-charges read in
  non local Contribution for L=           0  read in
    real space projection operators read in
  non local Contribution for L=           0  read in
    real space projection operators read in
  non local Contribution for L=           1  read in
    real space projection operators read in
  non local Contribution for L=           1  read in
    real space projection operators read in
    PAW grid and wavefunctions read in
 
   number of l-projection  operators is LMAX  =           4
   number of lm-projection operators is LMMAX =           8
 
 POTCAR:    PAW_PBE H 15Jun2001                   
   VRHFIN =H: ultrasoft test                                                                        
   LEXCH  = PE                                                                                      
   EATOM  =    12.4884 eV,    0.9179 Ry                                                             
                                                                                                    
   TITEL  = PAW_PBE H 15Jun2001                                                                     
   LULTRA =        F    use ultrasoft PP ?                                                          
   IUNSCR =        0    unscreen: 0-lin 1-nonlin 2-no                                               
   RPACOR =    0.000    partial core radius                                                         
   POMASS =    1.000; ZVAL   =    1.000    mass and valenz                                          
   RCORE  =    1.100    outmost cutoff radius                                                       
   RWIGS  =    0.700; RWIGS  =    0.370    wigner-seitz radius (au A)                               
   ENMAX  =  250.000; ENMIN  =  200.000 eV                                                          
   RCLOC  =    0.701    cutoff for local pot                                                        
   LCOR   =        T    correct aug charges                                                         
   LPAW   =        T    paw PP                                                                      
   EAUG   =  400.000                                                                                
   RMAX   =    1.123    core radius for proj-oper                                                   
   RAUG   =    1.200    factor for augmentation sphere                                              
   RDEP   =    1.112    radius for radial grids                                                     
   RDEPT  =    0.926    core radius for aug-charge                                                  
                                                                                                    
   Atomic configuration                                                                             
    2 entries                                                                                       
     n  l   j            E        occ.                                                              
     1  0  0.50        -6.4927   1.0000                                                             
     2  1  0.50        -3.4015   0.0000                                                             
   Description                                                                                      
     l       E           TYP  RCUT    TYP  RCUT                                                     
     0     -6.4927494     23  1.100                                                                 
     0      6.8029130     23  1.100                                                                 
     1     -4.0817478     23  1.100                                                                 
  local pseudopotential read in
  atomic valenz-charges read in
  non local Contribution for L=           0  read in
    real space projection operators read in
  non local Contribution for L=           0  read in
    real space projection operators read in
  non local Contribution for L=           1  read in
    real space projection operators read in
    PAW grid and wavefunctions read in
 
   number of l-projection  operators is LMAX  =           3
   number of lm-projection operators is LMMAX =           5
 
 Optimization of the real space projectors (new method)

 maximal supplied QI-value         = 16.25
 optimisation between [QCUT,QGAM] = [ 11.38, 22.75] = [ 36.24,144.96] Ry 
 Optimized for a Real-space Cutoff    1.52 Angstroem

   l    n(q)    QCUT    max X(q) W(low)/X(q) W(high)/X(q)  e(spline) 
   2      9    11.376     4.610    0.21E-03    0.10E-03    0.26E-06
   2      9    11.376     8.522    0.33E-03    0.16E-03    0.37E-06
   0     10    11.376    51.609    0.62E-04    0.20E-04    0.13E-06
   0     10    11.376    27.747    0.54E-04    0.20E-04    0.13E-06
   1     10    11.376    20.408    0.13E-04    0.99E-04    0.19E-06
   1     10    11.376    13.425    0.12E-04    0.87E-04    0.17E-06
 Optimization of the real space projectors (new method)

 maximal supplied QI-value         = 13.98
 optimisation between [QCUT,QGAM] = [ 11.33, 22.79] = [ 35.93,145.49] Ry 
 Optimized for a Real-space Cutoff    1.56 Angstroem

   l    n(q)    QCUT    max X(q) W(low)/X(q) W(high)/X(q)  e(spline) 
   2     10    11.327    96.114    0.36E-03    0.35E-03    0.42E-06
   2     10    11.327    88.986    0.37E-03    0.35E-03    0.42E-06
   0     11    11.327    20.919    0.40E-04    0.56E-04    0.79E-06
   0     11    11.327     9.593    0.30E-04    0.41E-04    0.60E-06
   1     10    11.327    11.615    0.15E-03    0.10E-03    0.19E-06
   1     10    11.327     7.031    0.11E-03    0.73E-04    0.14E-06
 Optimization of the real space projectors (new method)

 maximal supplied QI-value         = 24.76
 optimisation between [QCUT,QGAM] = [ 11.39, 22.77] = [ 36.31,145.25] Ry 
 Optimized for a Real-space Cutoff    1.00 Angstroem

   l    n(q)    QCUT    max X(q) W(low)/X(q) W(high)/X(q)  e(spline) 
   0      7    11.387    20.381    0.39E-03    0.13E-02    0.15E-06
   0      7    11.387    15.268    0.42E-03    0.14E-02    0.17E-06
   1      6    11.387     5.964    0.41E-03    0.11E-02    0.17E-06
   1      6    11.387     5.382    0.39E-03    0.87E-03    0.15E-06
 Optimization of the real space projectors (new method)

 maximal supplied QI-value         = 34.20
 optimisation between [QCUT,QGAM] = [ 11.29, 22.57] = [ 35.68,142.71] Ry 
 Optimized for a Real-space Cutoff    1.16 Angstroem

   l    n(q)    QCUT    max X(q) W(low)/X(q) W(high)/X(q)  e(spline) 
   0      8    11.287    19.460    0.40E-03    0.73E-03    0.16E-06
   0      8    11.287    12.209    0.38E-03    0.70E-03    0.15E-06
   1      7    11.287     4.655    0.22E-03    0.25E-04    0.22E-06
  PAW_PBE Cu 22Jun2005                  :
 energy of atom  1       EATOM=-1390.9808
 kinetic energy error for atom=    0.0043 (will be added to EATOM!!)
  PAW_PBE V 08Apr2002                   :
 energy of atom  2       EATOM= -170.8679
 kinetic energy error for atom=    0.0003 (will be added to EATOM!!)
  PAW_PBE O 08Apr2002                   :
 energy of atom  3       EATOM= -432.3788
 kinetic energy error for atom=    0.0224 (will be added to EATOM!!)
  PAW_PBE H 15Jun2001                   :
 energy of atom  4       EATOM=  -12.4884
 kinetic energy error for atom=    0.0020 (will be added to EATOM!!)
 
 
 POSCAR: Cu-V-OH
  positions in direct lattice
  velocities in cartesian coordinates
 exchange correlation table for  LEXCH =        8
   RHO(1)=    0.500       N(1)  =     2000
   RHO(2)=  100.500       N(2)  =     4000

 VTST: version 3.2, (02/03/18)

 CHAIN: initializing optimizer
 
 OPT: Using VASP Conjugate-Gradient optimizer
 CHAIN: Read ICHAIN            0
 
 POSCAR: Cu-V-OH
  positions in direct lattice
  velocities in cartesian coordinates
 


--------------------------------------------------------------------------------------------------------


 ion  position               nearest neighbor table
   1  0.000  0.000  0.252-   7 2.57   3 2.57   4 2.57   2 2.57   6 2.57   8 2.57  12 2.57  10 2.57
                            16 2.57
   2  0.333  0.000  0.252-   8 2.57   9 2.57   5 2.57   1 2.57   3 2.57  11 2.57   4 2.57  10 2.57
                            17 2.57
   3  0.667  0.000  0.252-   1 2.57   7 2.57   6 2.57   9 2.57   2 2.57  12 2.57   5 2.57  18 2.57
                            11 2.57
   4  0.000  0.333  0.252-   5 2.57   6 2.57   1 2.57   7 2.57   2 2.57  13 2.57   9 2.57  10 2.57
                            15 2.57
   5  0.333  0.333  0.252-   4 2.57   2 2.57   7 2.57  13 2.57   8 2.57   6 2.57   3 2.57  11 2.57
                            14 2.57
   6  0.667  0.333  0.252-   4 2.57   9 2.57  15 2.57   3 2.57   1 2.57   8 2.57  14 2.57   5 2.57
                            12 2.57
   7  0.000  0.667  0.252-   1 2.57   3 2.57  16 2.57  18 2.57   4 2.57   5 2.57   8 2.57   9 2.57
                            13 2.57
   8  0.333  0.667  0.252-   9 2.57   2 2.57  17 2.57   6 2.57   1 2.57   7 2.57   5 2.57  14 2.57
                            16 2.57
   9  0.667  0.667  0.252-   8 2.57   6 2.57   2 2.57  17 2.57   3 2.57   7 2.57   4 2.57  15 2.57
                            18 2.57
  10  0.111  0.111  0.351-  26 2.56  19 2.56  20 2.56  11 2.57  12 2.57  13 2.57   1 2.57   2 2.57
                             4 2.57  15 2.57  16 2.57  17 2.57
  11  0.444  0.111  0.351-  20 2.56  21 2.56  10 2.57  13 2.57   2 2.57  17 2.57  14 2.57  12 2.57
                             5 2.57   3 2.57  18 2.57  27 2.57
  12  0.778  0.111  0.351-  19 2.56  25 2.56  21 2.56  15 2.57  10 2.57  14 2.57  18 2.57   3 2.57
                             1 2.57  16 2.57  11 2.57   6 2.57
  13  0.111  0.444  0.351-  23 2.56  20 2.56  16 2.57  18 2.57  10 2.57  11 2.57  14 2.57   5 2.57
                             4 2.57   7 2.57  15 2.57  22 2.57
  14  0.444  0.444  0.351-  21 2.56  23 2.56  15 2.57  17 2.57  12 2.57  16 2.57  13 2.57  11 2.57
                             6 2.57   8 2.57   5 2.57  24 2.57
  15  0.778  0.444  0.351-  19 2.56  24 2.57  22 2.57  14 2.57  17 2.57  12 2.57   6 2.57  18 2.57
                            10 2.57   9 2.57  13 2.57   4 2.57
  16  0.111  0.778  0.351-  25 2.56  26 2.56  23 2.56  18 2.57  13 2.57   7 2.57  14 2.57  17 2.57
                            12 2.57  10 2.57   8 2.57   1 2.57
  17  0.444  0.778  0.351-  26 2.56  27 2.57  24 2.57  14 2.57  15 2.57   8 2.57   9 2.57  11 2.57
                            16 2.57  18 2.57  10 2.57   2 2.57
  18  0.778  0.778  0.351-  25 2.56  22 2.57  27 2.57  16 2.57  13 2.57   7 2.57  15 2.57  12 2.57
                            17 2.57   9 2.57   3 2.57  11 2.57
  19  0.889  0.222  0.449-  12 2.56  10 2.56  15 2.56  28 2.56  25 2.56  26 2.56  21 2.57  20 2.57
                            22 2.57  24 2.57  32 2.58  31 2.58
  20  0.222  0.222  0.449-  36 2.54  11 2.56  13 2.56  10 2.56  23 2.56  21 2.56  26 2.57  19 2.57
                            27 2.57  22 2.57  29 2.57  31 2.57
  21  0.555  0.222  0.449-  36 2.54  14 2.56  11 2.56  12 2.56  20 2.56  23 2.56  19 2.57  25 2.57
                            24 2.57  27 2.57  32 2.57  30 2.57
  22  0.888  0.556  0.449-  24 2.56  27 2.56  35 2.56  18 2.57  15 2.57  19 2.57  25 2.57  31 2.57
                            33 2.57  13 2.57  23 2.57  20 2.57
  23  0.222  0.555  0.449-  36 2.54  13 2.56  14 2.56  16 2.56  20 2.56  21 2.56  25 2.57  26 2.57
                            22 2.57  24 2.57  33 2.57  34 2.57
  24  0.556  0.556  0.449-  22 2.56  27 2.56  35 2.56  15 2.57  17 2.57  19 2.57  26 2.57  32 2.57
                            34 2.57  14 2.57  21 2.57  23 2.57
  25  0.889  0.889  0.449-  12 2.56  16 2.56  18 2.56  28 2.56  19 2.56  26 2.56  21 2.57  23 2.57
                            22 2.57  27 2.57  33 2.58  30 2.58
  26  0.222  0.889  0.449-  10 2.56  16 2.56  17 2.56  28 2.56  25 2.56  19 2.56  20 2.57  23 2.57
                            27 2.57  24 2.57  29 2.58  34 2.58
  27  0.556  0.888  0.449-  24 2.56  22 2.56  35 2.56  17 2.57  18 2.57  26 2.57  25 2.57  29 2.57
                            30 2.57  11 2.57  20 2.57  21 2.57
  28  0.000  0.000  0.547-  25 2.56  19 2.56  26 2.56  33 2.57  30 2.57  31 2.57  29 2.57  32 2.57
                            34 2.57
  29  0.333  0.000  0.548-  30 2.56  36 2.56  31 2.56  27 2.57  35 2.57  28 2.57  20 2.57  34 2.57
                            26 2.58
  30  0.666  0.000  0.548-  29 2.56  36 2.56  32 2.56  27 2.57  35 2.57  28 2.57  21 2.57  33 2.57
                            25 2.58
  31  0.000  0.333  0.548-  33 2.56  36 2.56  29 2.56  22 2.57  35 2.57  28 2.57  20 2.57  32 2.57
                            19 2.58
  32  0.666  0.333  0.548-  34 2.56  36 2.56  30 2.56  24 2.57  35 2.57  28 2.57  21 2.57  31 2.57
                            19 2.58
  33  0.000  0.666  0.548-  31 2.56  36 2.56  34 2.56  22 2.57  35 2.57  28 2.57  23 2.57  30 2.57
                            25 2.58
  34  0.333  0.666  0.548-  32 2.56  36 2.56  33 2.56  24 2.57  35 2.57  28 2.57  23 2.57  29 2.57
                            26 2.58
  35  0.667  0.667  0.548-  24 2.56  27 2.56  22 2.56  34 2.57  32 2.57  29 2.57  30 2.57  33 2.57
                            31 2.57
  36  0.333  0.333  0.546-  37 1.76  23 2.54  20 2.54  21 2.54  31 2.56  29 2.56  33 2.56  32 2.56
                            34 2.56  30 2.56
  37  0.333  0.333  0.629-  38 0.97  36 1.76
  38  0.333  0.333  0.674-  37 0.97
 
  LATTYP: Found a hexagonal cell.
 ALAT       =     7.6967864036
 C/A-ratio  =     2.7653617908
  
  Lattice vectors:
  
 A1 = (  -3.8483927580,  -6.6656128093,   0.0000000000)
 A2 = (   7.6967864037,   0.0000000000,   0.0000000000)
 A3 = (   0.0000000000,   0.0000000000,  21.2843990326)


Analysis of symmetry for initial positions (statically):
=====================================================================
 Subroutine PRICEL returns:
 Original cell was already a primitive cell.
 

 Routine SETGRP: Setting up the symmetry group for a 
 hexagonal supercell.


 Subroutine GETGRP returns: Found  6 space group operations
 (whereof  6 operations were pure point group operations)
 out of a pool of 24 trial point group operations.


The static configuration has the point symmetry C_3v.


Analysis of symmetry for dynamics (positions and initial velocities):
=====================================================================
 Subroutine PRICEL returns:
 Original cell was already a primitive cell.
 

 Routine SETGRP: Setting up the symmetry group for a 
 hexagonal supercell.


 Subroutine GETGRP returns: Found  6 space group operations
 (whereof  6 operations were pure point group operations)
 out of a pool of 24 trial point group operations.


The dynamic configuration has the point symmetry C_3v.


Analysis of constrained symmetry for selective dynamics:
=====================================================================
 Subroutine PRICEL returns:
 Original cell was already a primitive cell.
 

 Routine SETGRP: Setting up the symmetry group for a 
 hexagonal supercell.


 Subroutine GETGRP returns: Found  6 space group operations
 (whereof  6 operations were pure point group operations)
 out of a pool of 24 trial point group operations.


The constrained configuration has the point symmetry C_3v.


 Subroutine INISYM returns: Found  6 space group operations
 (whereof  6 operations are pure point group operations),
 and found     1 'primitive' translations


----------------------------------------------------------------------------------------

                                     Primitive cell                                     

  volume of cell :    1091.9705

  direct lattice vectors                    reciprocal lattice vectors
     7.696786404  0.000000000  0.000000000     0.129924354 -0.075011849  0.000000000
     3.848392758  6.665612809  0.000000000     0.000000000  0.150023716  0.000000000
     0.000000000  0.000000000 21.284399033     0.000000000  0.000000000  0.046982769

  length of vectors
     7.696786404  7.696786404 21.284399033     0.150023716  0.150023716  0.046982769

  position of ions in fractional coordinates (direct lattice)
     0.000000000  0.000000000  0.252370745
     0.333333343  0.000000000  0.252370745
     0.666666687  0.000000000  0.252370745
     1.000000000  0.333333343  0.252370745
     0.333333313  0.333333343  0.252370745
     0.666666687  0.333333343  0.252370745
     1.000000000  0.666666687  0.252370745
     0.333333373  0.666666687  0.252370745
     0.666666627  0.666666687  0.252370745
     0.111111119  0.111111112  0.350790262
     0.444444418  0.111111112  0.350790262
     0.777777791  0.111111112  0.350790262
     0.111111119  0.444444448  0.350790262
     0.444444478  0.444444448  0.350790262
     0.777777731  0.444444448  0.350790262
     0.111111112  0.777777731  0.350790262
     0.444444478  0.777777731  0.350790262
     0.777777851  0.777777731  0.350790262
     0.888969867  0.222060282  0.448643290
     0.222289655  0.222289640  0.448742307
     0.555420751  0.222289640  0.448742307
     0.888491892  0.555754024  0.449227590
     0.222289625  0.555420691  0.448742307
     0.555754084  0.555754024  0.449227590
     0.888969867  0.888969867  0.448643290
     0.222060297  0.888969867  0.448643290
     0.555754024  0.888491892  0.449227590
     0.000000000  0.000000000  0.546913342
     0.333456448  0.000460112  0.547689524
     0.666083470  0.000460112  0.547689524
     0.000460112  0.333456448  0.547689524
     0.666083470  0.333456448  0.547689524
     0.000460112  0.666083470  0.547689524
     0.333456478  0.666083470  0.547689524
     0.666666627  0.666666687  0.547629341
     0.333333313  0.333333343  0.545950556
     0.333333313  0.333333343  0.628774181
     0.333333313  0.333333343  0.674223255

  ion indices of the primitive-cell ions
   primitive index   ion index
                 1           1
                 2           2
                 3           3
                 4           4
                 5           5
                 6           6
                 7           7
                 8           8
                 9           9
                10          10
                11          11
                12          12
                13          13
                14          14
                15          15
                16          16
                17          17
                18          18
                19          19
                20          20
                21          21
                22          22
                23          23
                24          24
                25          25
                26          26
                27          27
                28          28
                29          29
                30          30
                31          31
                32          32
                33          33
                34          34
                35          35
                36          36
                37          37
                38          38

----------------------------------------------------------------------------------------

 
 
 KPOINTS: Automatic mesh                          

Automatic generation of k-mesh.
 Grid dimensions read from file:
 generate k-points for:    8    8    1

 Generating k-lattice:

  Cartesian coordinates                     Fractional coordinates (reciprocal lattice)
     0.016240544 -0.009376481  0.000000000     0.125000000 -0.000000000  0.000000000
     0.000000000  0.018752964  0.000000000     0.000000000  0.125000000  0.000000000
     0.000000000  0.000000000  0.046982769     0.000000000  0.000000000  1.000000000

  Length of vectors
     0.018752964  0.018752964  0.046982769

  Shift w.r.t. Gamma in fractional coordinates (k-lattice)
     0.000000000  0.000000000  0.000000000

 TETIRR: Found     36 inequivalent tetrahedra from      384
 
 Subroutine IBZKPT returns following result:
 ===========================================
 
 Found     10 irreducible k-points:
 
 Following reciprocal coordinates:
            Coordinates               Weight
  0.000000  0.000000  0.000000      1.000000
  0.125000 -0.000000  0.000000      6.000000
  0.250000 -0.000000  0.000000      6.000000
  0.375000 -0.000000  0.000000      6.000000
  0.500000 -0.000000  0.000000      3.000000
  0.250000  0.125000  0.000000      6.000000
  0.375000  0.125000  0.000000     12.000000
  0.500000  0.125000  0.000000     12.000000
  0.500000  0.250000  0.000000      6.000000
 -0.375000  0.250000  0.000000      6.000000
 
 Following cartesian coordinates:
            Coordinates               Weight
  0.000000  0.000000  0.000000      1.000000
  0.016241 -0.009376  0.000000      6.000000
  0.032481 -0.018753  0.000000      6.000000
  0.048722 -0.028129  0.000000      6.000000
  0.064962 -0.037506  0.000000      3.000000
  0.032481  0.000000  0.000000      6.000000
  0.048722 -0.009376  0.000000     12.000000
  0.064962 -0.018753  0.000000     12.000000
  0.064962  0.000000  0.000000      6.000000
 -0.048722  0.065635  0.000000      6.000000
 


--------------------------------------------------------------------------------------------------------




 Dimension of arrays:
   k-points           NKPTS =     10   k-points in BZ     NKDIM =     10   number of bands    NBANDS=    252
   number of dos      NEDOS =    301   number of ions     NIONS =     38
   non local maximal  LDIM  =      6   non local SUM 2l+1 LMDIM =     18
   total plane-waves  NPLWV = 211680
   max r-space proj   IRMAX =   3157   max aug-charges    IRDMAX=  11954
   dimension x,y,z NGX =    42 NGY =   42 NGZ =  120
   dimension x,y,z NGXF=    84 NGYF=   84 NGZF=  240
   support grid    NGXF=    84 NGYF=   84 NGZF=  240
   ions per type =              35   1   1   1
   NGX,Y,Z   is equivalent  to a cutoff of   9.07,  9.07,  9.37 a.u.
   NGXF,Y,Z  is equivalent  to a cutoff of  18.14, 18.14, 18.75 a.u.

 SYSTEM =  unknown system                          
 POSCAR =  Cu-V-OH                                 

 Startparameter for this run:
   NWRITE =      2    write-flag & timer
   PREC   = normal    normal or accurate (medium, high low for compatibility)
   ISTART =      0    job   : 0-new  1-cont  2-samecut
   ICHARG =     11    charge: 1-file 2-atom 10-const
   ISPIN  =      1    spin polarized calculation?
   LNONCOLLINEAR =      F non collinear calculations
   LSORBIT =      F    spin-orbit coupling
   INIWAV =      1    electr: 0-lowe 1-rand  2-diag
   LASPH  =      F    aspherical Exc in radial PAW
   METAGGA=      F    non-selfconsistent MetaGGA calc.

 Electronic Relaxation 1
   ENCUT  =  500.0 eV  36.75 Ry    6.06 a.u.  14.03 14.03 38.81*2*pi/ulx,y,z
   ENINI  =  500.0     initial cutoff
   ENAUG  =  605.4 eV  augmentation charge cutoff
   NELM   =    150;   NELMIN=  2; NELMDL= -5     # of ELM steps 
   EDIFF  = 0.1E-04   stopping-criterion for ELM
   LREAL  =      T    real-space projection
   NLSPLINE    = F    spline interpolate recip. space projectors
   LCOMPAT=      F    compatible to vasp.4.4
   GGA_COMPAT  = T    GGA compatible to vasp.4.4-vasp.4.6
   LMAXPAW     = -100 max onsite density
   LMAXMIX     =    2 max onsite mixed and CHGCAR
   VOSKOWN=      0    Vosko Wilk Nusair interpolation
   ROPT   =   -0.00050  -0.00050  -0.00050  -0.00050
 Ionic relaxation
   EDIFFG = -.1E-01   stopping-criterion for IOM
   NSW    =      0    number of steps for IOM
   NBLOCK =      1;   KBLOCK =      1    inner block; outer block 
   IBRION =     -1    ionic relax: 0-MD 1-quasi-New 2-CG
   NFREE  =      1    steps in history (QN), initial steepest desc. (CG)
   ISIF   =      2    stress and relaxation
   IWAVPR =     10    prediction:  0-non 1-charg 2-wave 3-comb
   ISYM   =      2    0-nonsym 1-usesym 2-fastsym
   LCORR  =      T    Harris-Foulkes like correction to forces

   POTIM  = 0.5000    time-step for ionic-motion
   TEIN   =    0.0    initial temperature
   TEBEG  =    0.0;   TEEND  =   0.0 temperature during run
   SMASS  =  -3.00    Nose mass-parameter (am)
   estimated Nose-frequenzy (Omega)   =  0.10E-29 period in steps = 0.13E+47 mass=  -0.135E-26a.u.
   SCALEE = 1.0000    scale energy and forces
   NPACO  =    256;   APACO  = 16.0  distance and # of slots for P.C.
   PSTRESS=    0.0 pullay stress

  Mass of Ions in am
   POMASS =  63.55 50.94 16.00  1.00
  Ionic Valenz
   ZVAL   =  11.00  5.00  6.00  1.00
  Atomic Wigner-Seitz radii
   RWIGS  =  -1.00 -1.00 -1.00 -1.00
  virtual crystal weights 
   VCA    =   1.00  1.00  1.00  1.00
   NELECT =     397.0000    total number of electrons
   NUPDOWN=      -1.0000    fix difference up-down

 DOS related values:
   EMIN   =  10.00;   EMAX   =-10.00  energy-range for DOS
   EFERMI =   0.00
   ISMEAR =    -5;   SIGMA  =   0.10  broadening in eV -4-tet -1-fermi 0-gaus

 Electronic relaxation 2 (details)
   IALGO  =     68    algorithm
   LDIAG  =      T    sub-space diagonalisation (order eigenvalues)
   LSUBROT=      F    optimize rotation matrix (better conditioning)
   TURBO    =      0    0=normal 1=particle mesh
   IRESTART =      0    0=no restart 2=restart with 2 vectors
   NREBOOT  =      0    no. of reboots
   NMIN     =      0    reboot dimension
   EREF     =   0.00    reference energy to select bands
   IMIX   =      4    mixing-type and parameters
     AMIX     =   0.40;   BMIX     =  1.00
     AMIX_MAG =   1.60;   BMIX_MAG =  1.00
     AMIN     =   0.10
     WC   =   100.;   INIMIX=   1;  MIXPRE=   1;  MAXMIX= -45

 Intra band minimization:
   WEIMIN = 0.0000     energy-eigenvalue tresh-hold
   EBREAK =  0.99E-08  absolut break condition
   DEPER  =   0.30     relativ break condition  

   TIME   =   0.40     timestep for ELM

  volume/ion in A,a.u.               =      28.74       193.92
  Fermi-wavevector in a.u.,A,eV,Ry     =   1.168426  2.208006 18.574949  1.365220
  Thomas-Fermi vector in A             =   2.304913
 
 Write flags
   LWAVE        =      F    write WAVECAR
   LDOWNSAMPLE  =      F    k-point downsampling of WAVECAR
   LCHARG       =      F    write CHGCAR
   LVTOT        =      F    write LOCPOT, total local potential
   LVHAR        =      F    write LOCPOT, Hartree potential only
   LELF         =      F    write electronic localiz. function (ELF)
   LORBIT       =     10    0 simple, 1 ext, 2 COOP (PROOUT), +10 PAW based schemes


 Dipole corrections
   LMONO  =      F    monopole corrections only (constant potential shift)
   LDIPOL =      F    correct potential (dipole corrections)
   IDIPOL =      0    1-x, 2-y, 3-z, 4-all directions 
   EPSILON=  1.0000000 bulk dielectric constant

 Exchange correlation treatment:
   GGA     =    --    GGA type
   LEXCH   =     8    internal setting for exchange type
   VOSKOWN=      0    Vosko Wilk Nusair interpolation
   LHFCALC =     F    Hartree Fock is set to
   LHFONE  =     F    Hartree Fock one center treatment
   AEXX    =    0.0000 exact exchange contribution

 Linear response parameters
   LEPSILON=     F    determine dielectric tensor
   LRPA    =     F    only Hartree local field effects (RPA)
   LNABLA  =     F    use nabla operator in PAW spheres
   LVEL    =     F    velocity operator in full k-point grid
   LINTERFAST=   F  fast interpolation
   KINTER  =     0    interpolate to denser k-point grid
   CSHIFT  =0.1000    complex shift for real part using Kramers Kronig
   OMEGAMAX=  -1.0    maximum frequency
   DEG_THRESHOLD= 0.2000000E-02 threshold for treating states as degnerate
   RTIME   =   -0.100 relaxation time in fs
  (WPLASMAI=    0.000 imaginary part of plasma frequency in eV, 0.658/RTIME)
   DFIELD  = 0.0000000 0.0000000 0.0000000 field for delta impulse in time
 
 Orbital magnetization related:
   ORBITALMAG=     F  switch on orbital magnetization
   LCHIMAG   =     F  perturbation theory with respect to B field
   DQ        =  0.001000  dq finite difference perturbation B field
   LLRAUG    =     F  two centre corrections for induced B field



--------------------------------------------------------------------------------------------------------


 Static calculation
 charge density and potential remain constant during run
 non-spin polarized calculation
 RMM-DIIS sequential band-by-band and
  variant of blocked Davidson during initial phase
 perform sub-space diagonalisation
    before iterative eigenvector-optimisation
 no mixing
 using additional bands           53
 real space projection scheme for non local part
 use partial core corrections
 calculate Harris-corrections to forces 
   (improved forces if not selfconsistent)
 use gradient corrections 
 WARNING: stress and forces are not correct
  (second derivative of E(xc) not defined)
 use of overlap-Matrix (Vanderbilt PP)
 Fermi weights with tetrahedron method with Bloechl corrections


--------------------------------------------------------------------------------------------------------


  energy-cutoff  :      500.00
  volume of cell :     1091.97
      direct lattice vectors                 reciprocal lattice vectors
     7.696786404  0.000000000  0.000000000     0.129924354 -0.075011849  0.000000000
     3.848392758  6.665612809  0.000000000     0.000000000  0.150023716  0.000000000
     0.000000000  0.000000000 21.284399033     0.000000000  0.000000000  0.046982769

  length of vectors
     7.696786404  7.696786404 21.284399033     0.150023716  0.150023716  0.046982769


 
 k-points in units of 2pi/SCALE and weight: Automatic mesh                          
   0.00000000  0.00000000  0.00000000       0.016
   0.01624054 -0.00937648  0.00000000       0.094
   0.03248109 -0.01875296  0.00000000       0.094
   0.04872163 -0.02812944  0.00000000       0.094
   0.06496218 -0.03750592  0.00000000       0.047
   0.03248109  0.00000000  0.00000000       0.094
   0.04872163 -0.00937648  0.00000000       0.188
   0.06496218 -0.01875296  0.00000000       0.188
   0.06496218  0.00000000  0.00000000       0.094
  -0.04872163  0.06563537  0.00000000       0.094
 
 k-points in reciprocal lattice and weights: Automatic mesh                          
   0.00000000  0.00000000  0.00000000       0.016
   0.12500000 -0.00000000  0.00000000       0.094
   0.25000000 -0.00000000  0.00000000       0.094
   0.37500000 -0.00000000  0.00000000       0.094
   0.50000000 -0.00000000  0.00000000       0.047
   0.25000000  0.12500000  0.00000000       0.094
   0.37500000  0.12500000  0.00000000       0.188
   0.50000000  0.12500000  0.00000000       0.188
   0.50000000  0.25000000  0.00000000       0.094
  -0.37500000  0.25000000  0.00000000       0.094
 
 position of ions in fractional coordinates (direct lattice) 
   0.00000000  0.00000000  0.25237075
   0.33333334  0.00000000  0.25237075
   0.66666669  0.00000000  0.25237075
   0.00000000  0.33333334  0.25237075
   0.33333331  0.33333334  0.25237075
   0.66666669  0.33333334  0.25237075
   0.00000000  0.66666669  0.25237075
   0.33333337  0.66666669  0.25237075
   0.66666663  0.66666669  0.25237075
   0.11111112  0.11111111  0.35079026
   0.44444442  0.11111111  0.35079026
   0.77777779  0.11111111  0.35079026
   0.11111112  0.44444445  0.35079026
   0.44444448  0.44444445  0.35079026
   0.77777773  0.44444445  0.35079026
   0.11111111  0.77777773  0.35079026
   0.44444448  0.77777773  0.35079026
   0.77777785  0.77777773  0.35079026
   0.88896987  0.22206028  0.44864329
   0.22228965  0.22228964  0.44874231
   0.55542075  0.22228964  0.44874231
   0.88849189  0.55575402  0.44922759
   0.22228962  0.55542069  0.44874231
   0.55575408  0.55575402  0.44922759
   0.88896987  0.88896987  0.44864329
   0.22206030  0.88896987  0.44864329
   0.55575402  0.88849189  0.44922759
   0.00000000  0.00000000  0.54691334
   0.33345645  0.00046011  0.54768952
   0.66608347  0.00046011  0.54768952
   0.00046011  0.33345645  0.54768952
   0.66608347  0.33345645  0.54768952
   0.00046011  0.66608347  0.54768952
   0.33345648  0.66608347  0.54768952
   0.66666663  0.66666669  0.54762934
   0.33333331  0.33333334  0.54595056
   0.33333331  0.33333334  0.62877418
   0.33333331  0.33333334  0.67422325
 
 position of ions in cartesian coordinates  (Angst):
   0.00000000  0.00000000  5.37155964
   2.56559554  0.00000000  5.37155964
   5.13119109  0.00000000  5.37155964
   1.28279762  2.22187100  5.37155964
   3.84839293  2.22187100  5.37155964
   6.41398872  2.22187100  5.37155964
   2.56559525  4.44374201  5.37155964
   5.13119102  4.44374201  5.37155964
   7.69678588  4.44374201  5.37155964
   1.28279775  0.74062365  7.46635991
   3.84839295  0.74062365  7.46635991
   6.41398873  0.74062365  7.46635991
   2.56559535  2.96249461  7.46635991
   5.13119101  2.96249461  7.46635991
   7.69678586  2.96249461  7.46635991
   3.84839268  5.18436521  7.46635991
   6.41398840  5.18436521  7.46635991
   8.97958418  5.18436521  7.46635991
   7.69678637  1.48016786  9.54910280
   2.56637383  1.48169667  9.55121032
   5.13041272  1.48169667  9.55121032
   8.97729207  3.70444114  9.56153928
   3.84839272  3.70221927  9.55121032
   6.41628024  3.70444114  9.56153928
  10.26331639  5.92552893  9.54910280
   5.13025587  5.92552893  9.54910280
   7.69678578  5.92234294  9.56153928
   0.00000000  0.00000000 11.64072181
   2.56831375  0.00306693 11.65724238
   5.12847289  0.00306693 11.65724238
   1.28681276  2.22269157 11.65724238
   6.40997358  2.22269157 11.65724238
   2.56689218  4.43985451 11.65724238
   5.12989409  4.43985451 11.65724238
   7.69678588  4.44374201 11.65596141
   3.84839293  2.22187100 11.62022948
   3.84839293  2.22187100 13.38308057
   3.84839293  2.22187100 14.35043679
 


--------------------------------------------------------------------------------------------------------


 k-point   1 :   0.0000 0.0000 0.0000  plane waves:   27671
 k-point   2 :   0.1250-0.0000 0.0000  plane waves:   27649
 k-point   3 :   0.2500-0.0000 0.0000  plane waves:   27714
 k-point   4 :   0.3750-0.0000 0.0000  plane waves:   27740
 k-point   5 :   0.5000-0.0000 0.0000  plane waves:   27782
 k-point   6 :   0.2500 0.1250 0.0000  plane waves:   27698
 k-point   7 :   0.3750 0.1250 0.0000  plane waves:   27702
 k-point   8 :   0.5000 0.1250 0.0000  plane waves:   27747
 k-point   9 :   0.5000 0.2500 0.0000  plane waves:   27734
 k-point  10 :  -0.3750 0.2500 0.0000  plane waves:   27782

 maximum and minimum number of plane-waves per node :     27782    27649

 maximum number of plane-waves:     27782
 maximum index in each direction: 
   IXMAX=   14   IYMAX=   14   IZMAX=   38
   IXMIN=  -14   IYMIN=  -14   IZMIN=  -38


 serial   3D FFT for wavefunctions
 parallel 3D FFT for charge:
    minimum data exchange during FFTs selected (reduces bandwidth)


 total amount of memory used by VASP MPI-rank0   105320. kBytes
=======================================================================

   base      :      30000. kBytes
   nonlr-proj:      17931. kBytes
   fftplans  :       2916. kBytes
   grid      :      12878. kBytes
   one-center:        590. kBytes
   wavefun   :      41005. kBytes
 
     INWAV:  cpu time    0.0000: real time    0.0000
 initial charge density was supplied:
 number of electron     397.0000101 magnetization 
 keeping initial charge density in first step


--------------------------------------------------------------------------------------------------------


 Maximum index for non-local projection operator         3018
 Maximum index for augmentation-charges          561 (set IRDMAX)


--------------------------------------------------------------------------------------------------------


 First call to EWALD:  gamma=   0.172
 Maximum number of real-space cells 4x 4x 2
 Maximum number of reciprocal cells 2x 2x 5

    FEWALD:  cpu time    0.0013: real time    0.0014


--------------------------------------- Iteration      1(   1)  ---------------------------------------


    POTLOK:  cpu time    0.0269: real time    0.0273
    SETDIJ:  cpu time    0.0042: real time    0.0044
     EDDAV:  cpu time    5.7721: real time    5.7741
 BZINTS: Fermi energy:   13.533390;  397.000000 electrons
         Band energy: 0.266555E+04;  BLOECHL correction:   -0.018335
       DOS:  cpu time    0.0102: real time    0.0103
    --------------------------------------------
      LOOP:  cpu time    5.8134: real time    5.8161

 eigenvalue-minimisations  :  5040
 total energy-change (2. order) : 0.3543699E+04  (-0.1689091E+05)
 number of electron     397.0000101 magnetization 
 augmentation part      397.0000101 magnetization 

 Free energy of the ion-electron system (eV)
  ---------------------------------------------------
  alpha Z        PSCENC =       877.83798135
  Ewald energy   TEWEN  =    144750.98875574
  -Hartree energ DENC   =   -191871.92505092
  -exchange      EXHF   =         0.00000000
  -V(xc)+E(xc)   XCENC  =      1543.04610650
  PAW double counting   =     46502.39842435   -50224.08995568
  entropy T*S    EENTRO =         0.00000000
  eigenvalues    EBANDS =      2665.55341701
  atomic energy  EATOM  =     49299.88958150
  Solvation  Ediel_sol  =         0.00000000
  ---------------------------------------------------
  free energy    TOTEN  =      3543.69925985 eV

  energy without entropy =     3543.69925985  energy(sigma->0) =     3543.69925985


--------------------------------------------------------------------------------------------------------




--------------------------------------- Iteration      1(   2)  ---------------------------------------


     EDDAV:  cpu time    5.7490: real time    5.7494
 BZINTS: Fermi energy:    3.137448;  397.000000 electrons
         Band energy:-0.539702E+03;  BLOECHL correction:   -0.008016
       DOS:  cpu time    0.0105: real time    0.0105
    --------------------------------------------
      LOOP:  cpu time    5.7595: real time    5.7599

 eigenvalue-minimisations  :  5040
 total energy-change (2. order) :-0.3205255E+04  (-0.3077274E+04)
 number of electron     397.0000101 magnetization 
 augmentation part      397.0000101 magnetization 

 Free energy of the ion-electron system (eV)
  ---------------------------------------------------
  alpha Z        PSCENC =       877.83798135
  Ewald energy   TEWEN  =    144750.98875574
  -Hartree energ DENC   =   -191871.92505092
  -exchange      EXHF   =         0.00000000
  -V(xc)+E(xc)   XCENC  =      1543.04610650
  PAW double counting   =     46502.39842435   -50224.08995568
  entropy T*S    EENTRO =         0.00000000
  eigenvalues    EBANDS =      -539.70173565
  atomic energy  EATOM  =     49299.88958150
  Solvation  Ediel_sol  =         0.00000000
  ---------------------------------------------------
  free energy    TOTEN  =       338.44410718 eV

  energy without entropy =      338.44410718  energy(sigma->0) =      338.44410718


--------------------------------------------------------------------------------------------------------




--------------------------------------- Iteration      1(   3)  ---------------------------------------


     EDDAV:  cpu time    6.6065: real time    6.6069
 BZINTS: Fermi energy:    0.522426;  397.000000 electrons
         Band energy:-0.989167E+03;  BLOECHL correction:   -0.025991
       DOS:  cpu time    0.0101: real time    0.0101
    --------------------------------------------
      LOOP:  cpu time    6.6166: real time    6.6170

 eigenvalue-minimisations  :  5964
 total energy-change (2. order) :-0.4494650E+03  (-0.4173962E+03)
 number of electron     397.0000101 magnetization 
 augmentation part      397.0000101 magnetization 

 Free energy of the ion-electron system (eV)
  ---------------------------------------------------
  alpha Z        PSCENC =       877.83798135
  Ewald energy   TEWEN  =    144750.98875574
  -Hartree energ DENC   =   -191871.92505092
  -exchange      EXHF   =         0.00000000
  -V(xc)+E(xc)   XCENC  =      1543.04610650
  PAW double counting   =     46502.39842435   -50224.08995568
  entropy T*S    EENTRO =         0.00000000
  eigenvalues    EBANDS =      -989.16676170
  atomic energy  EATOM  =     49299.88958150
  Solvation  Ediel_sol  =         0.00000000
  ---------------------------------------------------
  free energy    TOTEN  =      -111.02091886 eV

  energy without entropy =     -111.02091886  energy(sigma->0) =     -111.02091886


--------------------------------------------------------------------------------------------------------




--------------------------------------- Iteration      1(   4)  ---------------------------------------


     EDDAV:  cpu time    8.1892: real time    8.1896
 BZINTS: Fermi energy:    0.419168;  397.000000 electrons
         Band energy:-0.101903E+04;  BLOECHL correction:   -0.025328
       DOS:  cpu time    0.0096: real time    0.0096
    --------------------------------------------
      LOOP:  cpu time    8.1988: real time    8.1992

 eigenvalue-minimisations  :  7700
 total energy-change (2. order) :-0.2986623E+02  (-0.2874269E+02)
 number of electron     397.0000101 magnetization 
 augmentation part      397.0000101 magnetization 

 Free energy of the ion-electron system (eV)
  ---------------------------------------------------
  alpha Z        PSCENC =       877.83798135
  Ewald energy   TEWEN  =    144750.98875574
  -Hartree energ DENC   =   -191871.92505092
  -exchange      EXHF   =         0.00000000
  -V(xc)+E(xc)   XCENC  =      1543.04610650
  PAW double counting   =     46502.39842435   -50224.08995568
  entropy T*S    EENTRO =         0.00000000
  eigenvalues    EBANDS =     -1019.03299197
  atomic energy  EATOM  =     49299.88958150
  Solvation  Ediel_sol  =         0.00000000
  ---------------------------------------------------
  free energy    TOTEN  =      -140.88714913 eV

  energy without entropy =     -140.88714913  energy(sigma->0) =     -140.88714913


--------------------------------------------------------------------------------------------------------




--------------------------------------- Iteration      1(   5)  ---------------------------------------


     EDDAV:  cpu time    6.2706: real time    6.2709
 BZINTS: Fermi energy:    0.416580;  397.000000 electrons
         Band energy:-0.101953E+04;  BLOECHL correction:   -0.025209
       DOS:  cpu time    0.0102: real time    0.0102
    --------------------------------------------
      LOOP:  cpu time    6.2808: real time    6.2812

 eigenvalue-minimisations  :  5600
 total energy-change (2. order) :-0.4989066E+00  (-0.4981516E+00)
 number of electron     397.0000101 magnetization 
 augmentation part      397.0000101 magnetization 

 Free energy of the ion-electron system (eV)
  ---------------------------------------------------
  alpha Z        PSCENC =       877.83798135
  Ewald energy   TEWEN  =    144750.98875574
  -Hartree energ DENC   =   -191871.92505092
  -exchange      EXHF   =         0.00000000
  -V(xc)+E(xc)   XCENC  =      1543.04610650
  PAW double counting   =     46502.39842435   -50224.08995568
  entropy T*S    EENTRO =         0.00000000
  eigenvalues    EBANDS =     -1019.53189858
  atomic energy  EATOM  =     49299.88958150
  Solvation  Ediel_sol  =         0.00000000
  ---------------------------------------------------
  free energy    TOTEN  =      -141.38605574 eV

  energy without entropy =     -141.38605574  energy(sigma->0) =     -141.38605574


--------------------------------------------------------------------------------------------------------




--------------------------------------- Iteration      1(   6)  ---------------------------------------


    EDDIAG:  cpu time    1.0532: real time    1.0535
  RMM-DIIS:  cpu time    3.0831: real time    3.0832
    ORTHCH:  cpu time    0.2081: real time    0.2082
 BZINTS: Fermi energy:    0.416552;  397.000000 electrons
         Band energy:-0.101954E+04;  BLOECHL correction:   -0.025211
       DOS:  cpu time    0.0100: real time    0.0100
    --------------------------------------------
      LOOP:  cpu time    4.3544: real time    4.3549

 eigenvalue-minimisations  :  5407
 total energy-change (2. order) :-0.7618259E-02  (-0.7617326E-02)
 number of electron     397.0000101 magnetization 
 augmentation part      397.0000101 magnetization 

 Free energy of the ion-electron system (eV)
  ---------------------------------------------------
  alpha Z        PSCENC =       877.83798135
  Ewald energy   TEWEN  =    144750.98875574
  -Hartree energ DENC   =   -191871.92505092
  -exchange      EXHF   =         0.00000000
  -V(xc)+E(xc)   XCENC  =      1543.04610650
  PAW double counting   =     46502.39842435   -50224.08995568
  entropy T*S    EENTRO =         0.00000000
  eigenvalues    EBANDS =     -1019.53951684
  atomic energy  EATOM  =     49299.88958150
  Solvation  Ediel_sol  =         0.00000000
  ---------------------------------------------------
  free energy    TOTEN  =      -141.39367400 eV

  energy without entropy =     -141.39367400  energy(sigma->0) =     -141.39367400


--------------------------------------------------------------------------------------------------------




--------------------------------------- Iteration      1(   7)  ---------------------------------------


    EDDIAG:  cpu time    1.0541: real time    1.0542
  RMM-DIIS:  cpu time    4.3405: real time    4.3407
    ORTHCH:  cpu time    0.2079: real time    0.2079
 BZINTS: Fermi energy:    0.416543;  397.000000 electrons
         Band energy:-0.101954E+04;  BLOECHL correction:   -0.025212
       DOS:  cpu time    0.0100: real time    0.0100
    --------------------------------------------
      LOOP:  cpu time    5.6125: real time    5.6127

 eigenvalue-minimisations  :  7722
 total energy-change (2. order) :-0.3631259E-02  (-0.3501660E-02)
 number of electron     397.0000101 magnetization 
 augmentation part      397.0000101 magnetization 

 Free energy of the ion-electron system (eV)
  ---------------------------------------------------
  alpha Z        PSCENC =       877.83798135
  Ewald energy   TEWEN  =    144750.98875574
  -Hartree energ DENC   =   -191871.92505092
  -exchange      EXHF   =         0.00000000
  -V(xc)+E(xc)   XCENC  =      1543.04610650
  PAW double counting   =     46502.39842435   -50224.08995568
  entropy T*S    EENTRO =         0.00000000
  eigenvalues    EBANDS =     -1019.54314810
  atomic energy  EATOM  =     49299.88958150
  Solvation  Ediel_sol  =         0.00000000
  ---------------------------------------------------
  free energy    TOTEN  =      -141.39730526 eV

  energy without entropy =     -141.39730526  energy(sigma->0) =     -141.39730526


--------------------------------------------------------------------------------------------------------




--------------------------------------- Iteration      1(   8)  ---------------------------------------


    EDDIAG:  cpu time    1.0545: real time    1.0547
  RMM-DIIS:  cpu time    3.3669: real time    3.3670
    ORTHCH:  cpu time    0.2077: real time    0.2077
 BZINTS: Fermi energy:    0.416543;  397.000000 electrons
         Band energy:-0.101954E+04;  BLOECHL correction:   -0.025212
       DOS:  cpu time    0.0100: real time    0.0100
    --------------------------------------------
      LOOP:  cpu time    4.6390: real time    4.6394

 eigenvalue-minimisations  :  5958
 total energy-change (2. order) :-0.2496354E-03  (-0.2541158E-03)
 number of electron     397.0000101 magnetization 
 augmentation part      397.0000101 magnetization 

 Free energy of the ion-electron system (eV)
  ---------------------------------------------------
  alpha Z        PSCENC =       877.83798135
  Ewald energy   TEWEN  =    144750.98875574
  -Hartree energ DENC   =   -191871.92505092
  -exchange      EXHF   =         0.00000000
  -V(xc)+E(xc)   XCENC  =      1543.04610650
  PAW double counting   =     46502.39842435   -50224.08995568
  entropy T*S    EENTRO =         0.00000000
  eigenvalues    EBANDS =     -1019.54339773
  atomic energy  EATOM  =     49299.88958150
  Solvation  Ediel_sol  =         0.00000000
  ---------------------------------------------------
  free energy    TOTEN  =      -141.39755490 eV

  energy without entropy =     -141.39755490  energy(sigma->0) =     -141.39755490


--------------------------------------------------------------------------------------------------------




--------------------------------------- Iteration      1(   9)  ---------------------------------------


    EDDIAG:  cpu time    1.0537: real time    1.0537
  RMM-DIIS:  cpu time    4.0696: real time    4.0698
    ORTHCH:  cpu time    0.2076: real time    0.2076
 BZINTS: Fermi energy:    0.416542;  397.000000 electrons
         Band energy:-0.101954E+04;  BLOECHL correction:   -0.025212
       DOS:  cpu time    0.0102: real time    0.0102
    --------------------------------------------
      LOOP:  cpu time    5.3410: real time    5.3413

 eigenvalue-minimisations  :  7088
 total energy-change (2. order) :-0.4685528E-04  (-0.4557242E-04)
 number of electron     397.0000101 magnetization 
 augmentation part      397.0000101 magnetization 

 Free energy of the ion-electron system (eV)
  ---------------------------------------------------
  alpha Z        PSCENC =       877.83798135
  Ewald energy   TEWEN  =    144750.98875574
  -Hartree energ DENC   =   -191871.92505092
  -exchange      EXHF   =         0.00000000
  -V(xc)+E(xc)   XCENC  =      1543.04610650
  PAW double counting   =     46502.39842435   -50224.08995568
  entropy T*S    EENTRO =         0.00000000
  eigenvalues    EBANDS =     -1019.54344459
  atomic energy  EATOM  =     49299.88958150
  Solvation  Ediel_sol  =         0.00000000
  ---------------------------------------------------
  free energy    TOTEN  =      -141.39760175 eV

  energy without entropy =     -141.39760175  energy(sigma->0) =     -141.39760175


--------------------------------------------------------------------------------------------------------




--------------------------------------- Iteration      1(  10)  ---------------------------------------


    EDDIAG:  cpu time    1.0533: real time    1.0565
  RMM-DIIS:  cpu time    2.4340: real time    2.4341
    ORTHCH:  cpu time    0.2080: real time    0.2080
 BZINTS: Fermi energy:    0.416542;  397.000000 electrons
         Band energy:-0.101954E+04;  BLOECHL correction:   -0.025212
       DOS:  cpu time    0.0120: real time    0.0691
    --------------------------------------------
      LOOP:  cpu time    3.7073: real time    3.7677

 eigenvalue-minimisations  :  3797
 total energy-change (2. order) :-0.3221474E-05  (-0.2896898E-05)
 number of electron     397.0000101 magnetization 
 augmentation part      397.0000101 magnetization 

 Free energy of the ion-electron system (eV)
  ---------------------------------------------------
  alpha Z        PSCENC =       877.83798135
  Ewald energy   TEWEN  =    144750.98875574
  -Hartree energ DENC   =   -191871.92505092
  -exchange      EXHF   =         0.00000000
  -V(xc)+E(xc)   XCENC  =      1543.04610650
  PAW double counting   =     46502.39842435   -50224.08995568
  entropy T*S    EENTRO =         0.00000000
  eigenvalues    EBANDS =     -1019.54344781
  atomic energy  EATOM  =     49299.88958150
  Solvation  Ediel_sol  =         0.00000000
  ---------------------------------------------------
  free energy    TOTEN  =      -141.39760497 eV

  energy without entropy =     -141.39760497  energy(sigma->0) =     -141.39760497


--------------------------------------------------------------------------------------------------------




 average (electrostatic) potential at core
  the test charge radii are     0.9430  1.2064  0.7215  0.5201
  (the norm of the test charge is              1.0000)
       1 -70.5759       2 -70.5683       3 -70.5682       4 -70.5683       5 -70.5786
       6 -70.5680       7 -70.5682       8 -70.5680       9 -70.5756      10 -70.8484
      11 -70.8145      12 -70.8482      13 -70.8145      14 -70.8143      15 -70.8323
      16 -70.8482      17 -70.8323      18 -70.8323      19 -70.8155      20 -71.0184
      21 -71.0185      22 -70.8191      23 -71.0185      24 -70.8191      25 -70.8155
      26 -70.8155      27 -70.8191      28 -70.5907      29 -70.7028      30 -70.7028
      31 -70.7028      32 -70.7027      33 -70.7028      34 -70.7027      35 -70.5810
      36 -46.2844      37 -76.7543      38 -41.0489
 
 
 
 E-fermi :   0.4165     XC(G=0):  -5.9685     alpha+bet : -5.3633

 Fermi energy:         0.4165424902

 k-point     1 :       0.0000    0.0000    0.0000
  band No.  band energies     occupation 
      1     -20.2186      2.00000
      2      -8.6112      2.00000
      3      -8.3252      2.00000
      4      -7.0662      2.00000
      5      -5.4866      2.00000
      6      -5.4225      2.00000
      7      -5.4224      2.00000
      8      -5.4003      2.00000
      9      -5.3932      2.00000
     10      -5.3931      2.00000
     11      -5.3263      2.00000
     12      -4.6672      2.00000
     13      -4.6551      2.00000
     14      -4.6551      2.00000
     15      -4.6442      2.00000
     16      -4.6442      2.00000
     17      -4.6366      2.00000
     18      -4.4966      2.00000
     19      -4.4203      2.00000
     20      -4.4202      2.00000
     21      -3.9755      2.00000
     22      -3.9754      2.00000
     23      -3.9492      2.00000
     24      -3.9136      2.00000
     25      -3.9135      2.00000
     26      -3.8687      2.00000
     27      -3.6872      2.00000
     28      -3.6690      2.00000
     29      -3.6689      2.00000
     30      -3.6426      2.00000
     31      -3.6426      2.00000
     32      -3.6337      2.00000
     33      -3.4910      2.00000
     34      -3.4909      2.00000
     35      -3.4803      2.00000
     36      -3.4803      2.00000
     37      -3.4744      2.00000
     38      -3.4739      2.00000
     39      -3.4471      2.00000
     40      -3.4293      2.00000
     41      -3.4293      2.00000
     42      -3.4261      2.00000
     43      -3.4124      2.00000
     44      -3.4124      2.00000
     45      -3.3628      2.00000
     46      -3.3628      2.00000
     47      -3.3213      2.00000
     48      -3.3213      2.00000
     49      -3.2211      2.00000
     50      -3.2156      2.00000
     51      -3.1641      2.00000
     52      -3.1513      2.00000
     53      -3.1400      2.00000
     54      -3.1400      2.00000
     55      -3.1134      2.00000
     56      -3.1134      2.00000
     57      -3.0882      2.00000
     58      -3.0863      2.00000
     59      -2.8150      2.00000
     60      -2.8042      2.00000
     61      -2.8042      2.00000
     62      -2.8013      2.00000
     63      -2.7654      2.00000
     64      -2.7654      2.00000
     65      -2.7203      2.00000
     66      -2.7043      2.00000
     67      -2.7043      2.00000
     68      -2.6849      2.00000
     69      -2.6849      2.00000
     70      -2.6679      2.00000
     71      -2.6679      2.00000
     72      -2.6415      2.00000
     73      -2.6415      2.00000
     74      -2.6337      2.00000
     75      -2.6218      2.00000
     76      -2.5702      2.00000
     77      -2.5621      2.00000
     78      -2.5621      2.00000
     79      -2.5005      2.00000
     80      -2.5005      2.00000
     81      -2.4680      2.00000
     82      -2.4679      2.00000
     83      -2.4556      2.00000
     84      -2.4431      2.00000
     85      -2.4431      2.00000
     86      -2.4349      2.00000
     87      -2.3986      2.00000
     88      -2.3986      2.00000
     89      -2.3912      2.00000
     90      -2.3739      2.00000
     91      -2.3739      2.00000
     92      -2.3390      2.00000
     93      -2.3390      2.00000
     94      -2.3331      2.00000
     95      -2.3147      2.00000
     96      -2.3147      2.00000
     97      -2.2906      2.00000
     98      -2.2906      2.00000
     99      -2.2849      2.00000
    100      -2.2584      2.00000
    101      -2.2584      2.00000
    102      -2.2314      2.00000
    103      -2.2314      2.00000
    104      -2.2199      2.00000
    105      -2.2154      2.00000
    106      -2.2154      2.00000
    107      -2.1582      2.00000
    108      -2.1582      2.00000
    109      -2.1516      2.00000
    110      -2.1178      2.00000
    111      -2.1178      2.00000
    112      -1.9814      2.00000
    113      -1.9713      2.00000
    114      -1.9545      2.00000
    115      -1.9545      2.00000
    116      -1.9489      2.00000
    117      -1.9489      2.00000
    118      -1.9459      2.00000
    119      -1.9230      2.00000
    120      -1.9230      2.00000
    121      -1.9167      2.00000
    122      -1.9059      2.00000
    123      -1.8866      2.00000
    124      -1.8712      2.00000
    125      -1.8712      2.00000
    126      -1.7749      2.00000
    127      -1.7749      2.00000
    128      -1.7587      2.00000
    129      -1.7587      2.00000
    130      -1.7434      2.00000
    131      -1.7434      2.00000
    132      -1.7425      2.00000
    133      -1.6979      2.00000
    134      -1.6979      2.00000
    135      -1.6696      2.00000
    136      -1.6611      2.00000
    137      -1.6611      2.00000
    138      -1.6457      2.00000
    139      -1.6395      2.00000
    140      -1.6395      2.00000
    141      -1.6350      2.00000
    142      -1.6173      2.00000
    143      -1.6173      2.00000
    144      -1.5685      2.00000
    145      -1.5685      2.00000
    146      -1.5286      2.00000
    147      -1.5286      2.00000
    148      -1.5068      2.00000
    149      -1.5042      2.00000
    150      -1.4886      2.00000
    151      -1.4886      2.00000
    152      -1.4789      2.00000
    153      -1.4754      2.00000
    154      -1.4753      2.00000
    155      -1.4519      2.00000
    156      -1.4519      2.00000
    157      -1.4481      2.00000
    158      -1.4357      2.00000
    159      -1.4060      2.00000
    160      -1.3954      2.00000
    161      -1.3737      2.00000
    162      -1.3736      2.00000
    163      -1.3709      2.00000
    164      -1.3605      2.00000
    165      -1.3605      2.00000
    166      -1.3469      2.00000
    167      -1.3469      2.00000
    168      -1.3468      2.00000
    169      -1.3437      2.00000
    170      -1.3198      2.00000
    171      -1.3198      2.00000
    172      -1.3073      2.00000
    173      -1.3073      2.00000
    174      -1.2817      2.00000
    175      -1.2816      2.00000
    176      -1.2814      2.00000
    177      -1.2750      2.00000
    178      -1.2749      2.00000
    179      -1.2704      2.00000
    180      -1.2658      2.00000
    181      -1.2658      2.00000
    182      -1.2644      2.00000
    183      -1.2617      2.00000
    184      -1.2596      2.00000
    185      -1.2568      2.00000
    186      -1.2568      2.00000
    187      -1.2021      2.00000
    188      -1.2020      2.00000
    189      -1.1630      2.00000
    190      -1.1630      2.00000
    191      -1.1615      2.00000
    192      -1.1479      2.00000
    193      -1.1475      2.00000
    194      -1.1474      2.00000
    195      -0.7766      2.00000
    196      -0.2219      2.00000
    197      -0.0244      2.00000
    198      -0.0244      2.00000
    199       0.0463      2.00000
    200       0.1315      2.00000
    201       0.1315      2.00000
    202       0.2229      2.63210
    203       0.5878      0.00000
    204       0.5878      0.00000
    205       1.0473      0.00000
    206       1.0473      0.00000
    207       1.4267      0.00000
    208       2.3456      0.00000
    209       2.3456      0.00000
    210       2.3566      0.00000
    211       2.5866      0.00000
    212       2.5866      0.00000
    213       3.3845      0.00000
    214       3.7891      0.00000
    215       3.8770      0.00000
    216       4.0716      0.00000
    217       4.0716      0.00000
    218       4.1895      0.00000
    219       4.1895      0.00000
    220       4.3043      0.00000
    221       4.5458      0.00000
    222       4.8096      0.00000
    223       4.8096      0.00000
    224       4.8437      0.00000
    225       4.8928      0.00000
    226       4.8928      0.00000
    227       5.0004      0.00000
    228       5.0004      0.00000
    229       5.2012      0.00000
    230       5.2012      0.00000
    231       5.3300      0.00000
    232       5.5394      0.00000
    233       5.7577      0.00000
    234       5.8876      0.00000
    235       6.1657      0.00000
    236       6.7015      0.00000
    237       6.7015      0.00000
    238       6.7642      0.00000
    239       6.8604      0.00000
    240       6.8605      0.00000
    241       6.9603      0.00000
    242       6.9604      0.00000
    243       7.0479      0.00000
    244       7.0480      0.00000
    245       7.0829      0.00000
    246       7.4316      0.00000
    247       7.5277      0.00000
    248       7.5305      0.00000
    249       7.6439      0.00000
    250       7.6471      0.00000
    251       7.6903      0.00000
    252       7.8674      0.00000

 k-point     2 :       0.1250   -0.0000    0.0000
  band No.  band energies     occupation 
      1     -20.2186      2.00000
      2      -8.5986      2.00000
      3      -8.2824      2.00000
      4      -7.0147      2.00000
      5      -5.9642      2.00000
      6      -5.6527      2.00000
      7      -5.6352      2.00000
      8      -5.4099      2.00000
      9      -5.1177      2.00000
     10      -5.1027      2.00000
     11      -4.9738      2.00000
     12      -4.9143      2.00000
[...]
  0.000   0.000   0.000   0.000   0.000   0.000   0.000   0.000   0.000   0.000   0.000   0.000   0.000   0.000   0.000   0.000
  0.000   0.000   0.000   0.000   0.000   0.000   0.000   0.000   0.000   0.000   0.000   0.000   0.000   0.000   0.000   0.000
  0.000   0.000   0.000   0.000   0.000   0.000   0.000   0.000   0.000   0.000   1.000   0.000   0.000   0.000   0.000   0.000
  0.000   0.000   0.000   0.000   0.000   0.000   0.000   0.000   0.000   0.000   0.000   0.000   0.000   0.000   0.000   0.000
  0.000   0.000   0.000   0.000   0.000   0.000   0.000   0.000   0.000   0.000   0.000   0.000   0.000   0.000   0.000   0.000
  0.000   0.000   0.000   0.000   0.000   0.000   0.000   0.000   0.000   0.000   0.000   0.000   0.000   0.000   0.000   0.000
  0.000   0.000   0.000   0.000   0.000   0.000   0.000   0.000   0.000   0.000   0.000   0.000   0.000   0.000   0.000   0.000
  0.000   0.000   0.000   0.000   0.000   0.000   0.000   0.000   0.000   0.000   0.000   0.000   0.000   0.000   0.000   0.000
  0.000   0.000   0.000   0.000   0.000   0.000   0.000   0.000   0.000   0.000   0.000   0.000   0.000   0.000   0.000   0.000
  0.000   0.000   0.000   0.000   0.000   0.000   0.000   0.000   0.000   0.000   0.000   0.000   0.000   0.000   0.000   0.000


------------------------ aborting loop because EDIFF is reached ----------------------------------------





 total charge

# of ion       s       p       d       tot
------------------------------------------
    1        0.450   0.283   9.188   9.921
    2        0.449   0.286   9.185   9.919
    3        0.449   0.286   9.185   9.919
    4        0.449   0.286   9.185   9.919
    5        0.448   0.285   9.182   9.916
    6        0.449   0.286   9.185   9.919
    7        0.449   0.286   9.185   9.919
    8        0.449   0.286   9.185   9.919
    9        0.448   0.285   9.187   9.920
   10        0.443   0.370   9.177   9.991
   11        0.441   0.367   9.182   9.990
   12        0.443   0.370   9.177   9.991
   13        0.441   0.367   9.182   9.990
   14        0.441   0.367   9.182   9.990
   15        0.438   0.370   9.178   9.986
   16        0.443   0.370   9.177   9.991
   17        0.438   0.370   9.178   9.986
   18        0.438   0.370   9.178   9.986
   19        0.442   0.367   9.182   9.991
   20        0.463   0.394   9.157  10.014
   21        0.463   0.394   9.157  10.014
   22        0.433   0.374   9.178   9.985
   23        0.463   0.394   9.157  10.014
   24        0.433   0.374   9.178   9.985
   25        0.442   0.367   9.182   9.991
   26        0.442   0.367   9.182   9.991
   27        0.433   0.374   9.178   9.985
   28        0.452   0.289   9.181   9.921
   29        0.462   0.302   9.176   9.941
   30        0.462   0.302   9.176   9.941
   31        0.462   0.302   9.176   9.941
   32        0.462   0.302   9.176   9.941
   33        0.462   0.302   9.176   9.941
   34        0.462   0.302   9.176   9.941
   35        0.445   0.294   9.179   9.918
   36        0.552   0.747   3.545   4.844
   37        1.562   3.531   0.000   5.092
   38        0.606   0.124   0.000   0.731
--------------------------------------------------
tot         18.407  16.092 324.794 359.294
 
    CHARGE:  cpu time    0.2095: real time    0.2096
    FORLOC:  cpu time    0.0080: real time    0.0080
    FORNL :  cpu time    1.1861: real time    1.1863
    STRESS:  cpu time    3.5176: real time    3.5180
    FORCOR:  cpu time    0.0280: real time    0.0281
    FORHAR:  cpu time    0.0123: real time    0.0124
    OFIELD:  cpu time    0.0001: real time    0.0001

  FORCE on cell =-STRESS in cart. coord.  units (eV):
  Direction    XX          YY          ZZ          XY          YZ          ZX
  --------------------------------------------------------------------------------------
  Alpha Z   877.83798   877.83798   877.83798
  Ewald  170423.31938170423.31901************     0.00038     0.00013     0.00018
  Hartree183574.43615183574.43615************     0.00003     0.00007     0.00007
  E(xc)   -2301.94026 -2301.93981 -2305.43239    -0.00039    -0.00004    -0.00006
  Local  ************************366929.36660     0.01880    -0.00063    -0.00098
  n-local  -787.76535  -774.11495  -791.04163     7.19131    -0.23058     0.30799
  augment  3335.81725  3335.83761  3350.31755    -0.01763     0.00021     0.00032
  Kinetic  3313.62286  3315.52270  3304.91115     2.34375     1.83989    -1.30812
  Fock        0.00000     0.00000     0.00000     0.00000     0.00000     0.00000
  -------------------------------------------------------------------------------------
  Total      -6.56931    -6.56931    -0.75960     0.00000     0.00000    -0.00000
  in kB      -9.63872    -9.63872    -1.11451     0.00000     0.00000    -0.00000
  external pressure =       -6.80 kB  Pullay stress =        0.00 kB


 VOLUME and BASIS-vectors are now :
 -----------------------------------------------------------------------------
  energy-cutoff  :      500.00
  volume of cell :     1091.97
      direct lattice vectors                 reciprocal lattice vectors
     7.696786404  0.000000000  0.000000000     0.129924354 -0.075011849  0.000000000
     3.848392758  6.665612809  0.000000000     0.000000000  0.150023716  0.000000000
     0.000000000  0.000000000 21.284399033     0.000000000  0.000000000  0.046982769

  length of vectors
     7.696786404  7.696786404 21.284399033     0.150023716  0.150023716  0.046982769


 FORCES acting on ions
    electron-ion (+dipol)            ewald-force                    non-local-force                 convergence-correction
 -----------------------------------------------------------------------------------------------
   -.417E-04 0.801E-07 0.347E+04   0.580E-04 -.431E-05 -.347E+04   0.111E-16 -.121E-17 -.242E+01   -.279E-03 -.128E-03 -.365E+00
   -.630E+00 -.682E+00 0.347E+04   0.549E+00 0.481E+00 -.346E+04   0.116E-01 0.126E+00 -.188E+01   0.706E-01 0.829E-01 -.258E+00
   0.630E+00 -.682E+00 0.347E+04   -.549E+00 0.481E+00 -.346E+04   -.116E-01 0.126E+00 -.188E+01   -.698E-01 0.854E-01 -.257E+00
   -.906E+00 -.205E+00 0.347E+04   0.691E+00 0.235E+00 -.346E+04   0.115E+00 -.530E-01 -.188E+01   0.107E+00 0.196E-01 -.258E+00
   -.659E-04 -.579E-05 0.346E+04   0.116E-03 -.101E-04 -.346E+04   -.662E-18 -.152E-17 -.180E+01   0.121E-01 0.740E-02 -.236E+00
   0.906E+00 -.204E+00 0.347E+04   -.691E+00 0.235E+00 -.346E+04   -.115E+00 -.530E-01 -.188E+01   -.109E+00 0.209E-01 -.257E+00
   -.276E+00 0.887E+00 0.347E+04   0.142E+00 -.716E+00 -.346E+04   0.103E+00 -.730E-01 -.188E+01   0.390E-01 -.103E+00 -.257E+00
   0.276E+00 0.887E+00 0.347E+04   -.142E+00 -.716E+00 -.346E+04   -.103E+00 -.730E-01 -.188E+01   -.356E-01 -.105E+00 -.257E+00
   -.144E-03 -.329E-04 0.347E+04   0.263E-03 0.205E-04 -.346E+04   0.107E-17 -.192E-17 -.216E+01   -.132E-01 -.680E-02 -.236E+00
   -.423E+01 -.244E+01 0.116E+04   0.455E+01 0.263E+01 -.116E+04   -.435E+00 -.251E+00 -.901E+00   0.104E+00 0.601E-01 -.377E+00
   -.908E-04 -.473E+01 0.115E+04   0.189E-03 0.440E+01 -.115E+04   -.178E-07 0.267E+00 -.457E+00   0.115E-01 0.225E-01 -.459E+00
   0.423E+01 -.244E+01 0.116E+04   -.455E+01 0.263E+01 -.116E+04   0.435E+00 -.251E+00 -.901E+00   -.105E+00 0.611E-01 -.378E+00
   -.410E+01 0.237E+01 0.115E+04   0.381E+01 -.220E+01 -.115E+04   0.231E+00 -.134E+00 -.457E+00   0.257E-01 -.478E-03 -.459E+00
   0.410E+01 0.237E+01 0.115E+04   -.381E+01 -.220E+01 -.115E+04   -.231E+00 -.134E+00 -.457E+00   -.219E-02 -.164E-02 -.461E+00
   -.141E-03 -.121E+01 0.116E+04   0.297E-03 0.103E+01 -.116E+04   -.556E-08 0.835E-01 -.904E+00   -.312E-02 0.862E-01 -.384E+00
   -.922E-04 0.488E+01 0.116E+04   0.186E-03 -.526E+01 -.116E+04   -.334E-07 0.502E+00 -.901E+00   -.702E-03 -.123E+00 -.378E+00
   -.105E+01 0.605E+00 0.116E+04   0.895E+00 -.517E+00 -.116E+04   0.723E-01 -.417E-01 -.904E+00   0.737E-01 -.458E-01 -.385E+00
   0.105E+01 0.605E+00 0.116E+04   -.895E+00 -.517E+00 -.116E+04   -.723E-01 -.417E-01 -.904E+00   -.726E-01 -.436E-01 -.383E+00
   -.652E-04 -.619E+01 -.115E+04   0.713E-04 0.608E+01 0.115E+04   -.221E-08 0.332E-01 0.106E+01   0.100E-02 0.531E-01 -.374E+00
   -.453E+02 -.262E+02 -.121E+04   0.463E+02 0.267E+02 0.121E+04   -.105E+01 -.604E+00 -.603E+00   -.472E-01 -.274E-01 -.591E+00
   0.453E+02 -.262E+02 -.121E+04   -.463E+02 0.267E+02 0.121E+04   0.105E+01 -.604E+00 -.603E+00   0.265E-01 -.283E-01 -.592E+00
   -.207E+02 0.120E+02 -.116E+04   0.206E+02 -.119E+02 0.116E+04   0.338E+00 -.195E+00 0.828E+00   -.120E+00 0.679E-01 -.517E+00
   -.801E-04 0.523E+02 -.121E+04   0.150E-03 -.535E+02 0.121E+04   -.805E-07 0.121E+01 -.603E+00   -.124E-01 0.359E-01 -.592E+00
   0.207E+02 0.120E+02 -.116E+04   -.206E+02 -.119E+02 0.116E+04   -.338E+00 -.195E+00 0.828E+00   0.121E+00 0.690E-01 -.517E+00
   0.536E+01 0.309E+01 -.115E+04   -.527E+01 -.304E+01 0.115E+04   -.287E-01 -.166E-01 0.106E+01   -.457E-01 -.264E-01 -.374E+00
   -.536E+01 0.309E+01 -.115E+04   0.527E+01 -.304E+01 0.115E+04   0.287E-01 -.166E-01 0.106E+01   0.469E-01 -.255E-01 -.374E+00
   -.125E-03 -.239E+02 -.116E+04   0.240E-03 0.238E+02 0.116E+04   -.260E-07 0.390E+00 0.828E+00   -.979E-03 -.138E+00 -.517E+00
   -.367E-04 0.164E-04 -.341E+04   0.398E-04 -.329E-04 0.341E+04   0.570E-17 0.141E-17 0.157E+01   -.140E-02 -.754E-03 0.161E-01
   -.214E+02 -.433E+02 -.339E+04   0.217E+02 0.434E+02 0.339E+04   -.284E+00 0.889E-02 0.233E+01   -.161E+00 -.340E+00 -.884E-01
   0.214E+02 -.433E+02 -.339E+04   -.217E+02 0.434E+02 0.339E+04   0.284E+00 0.889E-02 0.233E+01   0.183E+00 -.338E+00 -.880E-01
   -.482E+02 0.312E+01 -.339E+04   0.485E+02 -.290E+01 0.339E+04   -.134E+00 -.251E+00 0.233E+01   -.375E+00 0.302E-01 -.884E-01
   0.482E+02 0.312E+01 -.339E+04   -.485E+02 -.290E+01 0.339E+04   0.134E+00 -.251E+00 0.233E+01   0.397E+00 0.313E-01 -.871E-01
   -.268E+02 0.402E+02 -.339E+04   0.268E+02 -.405E+02 0.339E+04   0.150E+00 0.242E+00 0.233E+01   -.201E+00 0.328E+00 -.880E-01
   0.268E+02 0.402E+02 -.339E+04   -.268E+02 -.405E+02 0.339E+04   -.150E+00 0.242E+00 0.233E+01   0.226E+00 0.328E+00 -.870E-01
   -.128E-03 -.158E-04 -.342E+04   0.252E-03 0.336E-05 0.342E+04   0.355E-18 -.415E-17 0.195E+01   -.143E-01 -.744E-02 0.948E-01
   -.487E-04 -.156E-04 -.141E+04   0.627E-04 0.126E-04 0.141E+04   0.551E-17 -.197E-17 0.668E+00   0.121E-03 0.866E-04 -.706E-01
   0.187E-03 -.784E-04 -.206E+04   0.170E-04 0.804E-05 0.204E+04   0.760E-18 -.113E-17 0.209E+02   0.281E-02 0.172E-02 0.366E+00
   0.514E-05 -.130E-04 -.386E+03   0.654E-06 0.545E-06 0.395E+03   -.281E-19 -.328E-19 -.849E+01   0.156E-03 0.948E-04 0.331E-01
 -----------------------------------------------------------------------------------------------
   -.137E-03 -.128E-03 0.633E+00   0.128E-12 0.537E-12 0.216E-11   0.173E-15 0.298E-15 0.997E+01   0.584E-01 0.307E-01 -.106E+02
 
 
 POSITION                                       TOTAL-FORCE (eV/Angst)
 -----------------------------------------------------------------------------------
      0.00000      0.00000      5.37156         0.000000     -0.000000     -0.001560
      2.56560      0.00000      5.37156         0.001505      0.008500      0.059061
      5.13119      0.00000      5.37156        -0.001505      0.008500      0.059061
      1.28280      2.22187      5.37156         0.008114     -0.002946      0.059061
      3.84839      2.22187      5.37156         0.000000     -0.000000      0.059426
      6.41399      2.22187      5.37156        -0.008114     -0.002946      0.059061
      2.56560      4.44374      5.37156         0.006608     -0.005554      0.059061
      5.13119      4.44374      5.37156        -0.006608     -0.005554      0.059061
      7.69679      4.44374      5.37156         0.000000     -0.000000      0.014913
      1.28280      0.74062      7.46636        -0.003330     -0.001923     -0.079172
      3.84839      0.74062      7.46636         0.000000     -0.047083     -0.058297
      6.41399      0.74062      7.46636         0.003330     -0.001923     -0.079172
      2.56560      2.96249      7.46636        -0.040775      0.023542     -0.058297
      5.13119      2.96249      7.46636         0.040775      0.023542     -0.058297
      7.69679      2.96249      7.46636         0.000000     -0.006995      0.002648
      3.84839      5.18437      7.46636        -0.000000      0.003845     -0.079172
      6.41399      5.18437      7.46636        -0.006058      0.003498      0.002648
      8.97958      5.18437      7.46636         0.006058      0.003498      0.002648
      7.69679      1.48017      9.54910         0.000000     -0.018283      0.025323
      2.56637      1.48170      9.55121        -0.063106     -0.036434     -0.142668
      5.13041      1.48170      9.55121         0.063106     -0.036434     -0.142668
      8.97729      3.70444      9.56154         0.058948     -0.034034      0.012101
      3.84839      3.70222      9.55121        -0.000000      0.072869     -0.142668
      6.41628      3.70444      9.56154        -0.058948     -0.034034      0.012101
     10.26332      5.92553      9.54910         0.015834      0.009142      0.025323
      5.13026      5.92553      9.54910        -0.015834      0.009142      0.025323
      7.69679      5.92234      9.56154        -0.000000      0.068067      0.012101
      0.00000      0.00000     11.64072         0.000000     -0.000000     -0.031163
      2.56831      0.00307     11.65724        -0.114982     -0.189450     -0.220586
      5.12847      0.00307     11.65724         0.114982     -0.189450     -0.220586
      1.28681      2.22269     11.65724        -0.221559     -0.004853     -0.220586
      6.40997      2.22269     11.65724         0.221559     -0.004853     -0.220586
      2.56689      4.43985     11.65724        -0.106577      0.194302     -0.220586
      5.12989      4.43985     11.65724         0.106577      0.194302     -0.220586
      7.69679      4.44374     11.65596         0.000000     -0.000000     -0.003749
      3.84839      2.22187     11.62023         0.000000     -0.000000      1.686297
      3.84839      2.22187     13.38308         0.000000     -0.000000     -0.028845
      3.84839      2.22187     14.35044         0.000000     -0.000000     -0.005975
 -----------------------------------------------------------------------------------
    total drift:                                0.058224      0.030584      0.026038


--------------------------------------------------------------------------------------------------------



  FREE ENERGIE OF THE ION-ELECTRON SYSTEM (eV)
  ---------------------------------------------------
  free  energy   TOTEN  =      -141.39760497 eV

  energy  without entropy=     -141.39760497  energy(sigma->0) =     -141.39760497
 


--------------------------------------------------------------------------------------------------------


    POTLOK:  cpu time    0.0288: real time    0.0288


--------------------------------------------------------------------------------------------------------


 stress matrix after NEB project (eV)
     -6.56931      0.00000     -0.00000
      0.00000     -6.56931      0.00000
     -0.00000      0.00000     -0.75960
  FORCES: max atom, RMS     0.028845    0.004779
  FORCE total and by dimension    0.029458    0.028845
  Stress total and by dimension    9.321407    6.569309
     LOOP+:  cpu time   61.3620: real time   61.4336
 -----------------------------------------------------------------------------
|                                                                             |
|           W    W    AA    RRRRR   N    N  II  N    N   GGGG   !!!           |
|           W    W   A  A   R    R  NN   N  II  NN   N  G    G  !!!           |
|           W    W  A    A  R    R  N N  N  II  N N  N  G       !!!           |
|           W WW W  AAAAAA  RRRRR   N  N N  II  N  N N  G  GGG   !            |
|           WW  WW  A    A  R   R   N   NN  II  N   NN  G    G                |
|           W    W  A    A  R    R  N    N  II  N    N   GGGG   !!!           |
|                                                                             |
|     Tetrahedron method does not include variations of the Fermi             |
|     occupations, so forces and stress will be inaccurate. We suggest        |
|     using a different smearing scheme ISMEAR = 1 or 2 for metals in         |
|     relaxations.                                                            |
|                                                                             |
 -----------------------------------------------------------------------------

    4ORBIT:  cpu time    0.0000: real time    0.0000



 total charge

# of ion       s       p       d       tot
------------------------------------------
    1        0.450   0.283   9.188   9.921
    2        0.449   0.286   9.185   9.919
    3        0.449   0.286   9.185   9.919
    4        0.449   0.286   9.185   9.919
    5        0.448   0.285   9.182   9.916
    6        0.449   0.286   9.185   9.919
    7        0.449   0.286   9.185   9.919
    8        0.449   0.286   9.185   9.919
    9        0.448   0.285   9.187   9.920
   10        0.443   0.370   9.177   9.991
   11        0.441   0.367   9.182   9.990
   12        0.443   0.370   9.177   9.991
   13        0.441   0.367   9.182   9.990
   14        0.441   0.367   9.182   9.990
   15        0.438   0.370   9.178   9.986
   16        0.443   0.370   9.177   9.991
   17        0.438   0.370   9.178   9.986
   18        0.438   0.370   9.178   9.986
   19        0.442   0.367   9.182   9.991
   20        0.463   0.394   9.157  10.014
   21        0.463   0.394   9.157  10.014
   22        0.433   0.374   9.178   9.985
   23        0.463   0.394   9.157  10.014
   24        0.433   0.374   9.178   9.985
   25        0.442   0.367   9.182   9.991
   26        0.442   0.367   9.182   9.991
   27        0.433   0.374   9.178   9.985
   28        0.452   0.289   9.181   9.921
   29        0.462   0.302   9.176   9.941
   30        0.462   0.302   9.176   9.941
   31        0.462   0.302   9.176   9.941
   32        0.462   0.302   9.176   9.941
   33        0.462   0.302   9.176   9.941
   34        0.462   0.302   9.176   9.941
   35        0.445   0.294   9.179   9.918
   36        0.552   0.747   3.545   4.844
   37        1.562   3.531   0.000   5.092
   38        0.606   0.124   0.000   0.731
--------------------------------------------------
tot         18.407  16.092 324.794 359.294
 
 BZINTS: Fermi energy:    0.416542;  397.000000 electrons
         Band energy:-0.101954E+04;  BLOECHL correction:   -0.025212

 total amount of memory used by VASP MPI-rank0   105320. kBytes
=======================================================================

   base      :      30000. kBytes
   nonlr-proj:      17931. kBytes
   fftplans  :       2916. kBytes
   grid      :      12878. kBytes
   one-center:        590. kBytes
   wavefun   :      41005. kBytes
 
  
  
 General timing and accounting informations for this job:
 ========================================================
  
                  Total CPU time used (sec):       67.321
                            User time (sec):       64.562
                          System time (sec):        2.759
                         Elapsed time (sec):       67.713
  
                   Maximum memory used (kb):      342192.
                   Average memory used (kb):          N/A
  
                          Minor page faults:        73698
                          Major page faults:            0
                 Voluntary context switches:         4336
