PROCAR new format
# of k-points:   10         # of bands:  252         # of ions:   38

 k-point     1 :    0.00000000 0.00000000 0.00000000     weight = 0.01562500

band     1 # energy  -20.21859689 # occ.  2.00000000
 
ion      s      p      d    tot
    1  0.000  0.000  0.000  0.000
    2  0.000  0.000  0.000  0.000
    3  0.000  0.000  0.000  0.000
    4  0.000  0.000  0.000  0.000
    5  0.000  0.000  0.000  0.000
    6  0.000  0.000  0.000  0.000
    7  0.000  0.000  0.000  0.000
    8  0.000  0.000  0.000  0.000
    9  0.000  0.000  0.000  0.000
   10  0.000  0.000  0.000  0.000
   11  0.000  0.000  0.000  0.000
   12  0.000  0.000  0.000  0.000
   13  0.000  0.000  0.000  0.000
   14  0.000  0.000  0.000  0.000
   15  0.000  0.000  0.000  0.000
   16  0.000  0.000  0.000  0.000
   17  0.000  0.000  0.000  0.000
   18  0.000  0.000  0.000  0.000
   19  0.000  0.000  0.000  0.000
   20  0.000  0.000  0.000  0.000
   21  0.000  0.000  0.000  0.000
   22  0.000  0.000  0.000  0.000
   23  0.000  0.000  0.000  0.000
   24  0.000  0.000  0.000  0.000
   25  0.000  0.000  0.000  0.000
   26  0.000  0.000  0.000  0.000
   27  0.000  0.000  0.000  0.000
   28  0.000  0.000  0.000  0.000
   29  0.000  0.000  0.000  0.000
   30  0.000  0.000  0.000  0.000
   31  0.000  0.000  0.000  0.000
   32  0.000  0.000  0.000  0.000
   33  0.000  0.000  0.000  0.000
   34  0.000  0.000  0.000  0.000
   35  0.000  0.000  0.000  0.000
   36  0.016  0.026  0.029  0.071
   37  0.743  0.017  0.000  0.760
   38  0.117  0.024  0.000  0.142
tot    0.877  0.068  0.029  0.974
 
band     2 # energy   -8.61120810 # occ.  2.00000000
 
ion      s      p      d    tot
    1  0.001  0.000  0.000  0.001
    2  0.001  0.000  0.000  0.001
    3  0.001  0.000  0.000  0.001
    4  0.001  0.000  0.000  0.001
    5  0.001  0.000  0.000  0.001
    6  0.001  0.000  0.000  0.001
    7  0.001  0.000  0.000  0.001
    8  0.001  0.000  0.000  0.001
    9  0.001  0.000  0.000  0.001
   10  0.005  0.000  0.000  0.005
   11  0.005  0.000  0.000  0.005
   12  0.005  0.000  0.000  0.005
   13  0.005  0.000  0.000  0.005
   14  0.005  0.000  0.000  0.005
   15  0.004  0.000  0.000  0.004
   16  0.005  0.000  0.000  0.005
   17  0.004  0.000  0.000  0.004
   18  0.004  0.000  0.000  0.004
   19  0.006  0.000  0.000  0.006
   20  0.010  0.000  0.000  0.010
   21  0.010  0.000  0.000  0.010
   22  0.006  0.000  0.000  0.006
   23  0.010  0.000  0.000  0.010
   24  0.006  0.000  0.000  0.006
   25  0.006  0.000  0.000  0.006
   26  0.006  0.000  0.000  0.006
   27  0.006  0.000  0.000  0.006
   28  0.002  0.000  0.000  0.002
   29  0.003  0.000  0.000  0.004
   30  0.003  0.000  0.000  0.004
   31  0.003  0.000  0.000  0.004
   32  0.003  0.000  0.000  0.004
   33  0.003  0.000  0.000  0.004
   34  0.003  0.000  0.000  0.004
   35  0.002  0.000  0.000  0.002
   36  0.079  0.039  0.107  0.226
   37  0.021  0.404  0.000  0.425
   38  0.135  0.014  0.000  0.149
tot    0.375  0.461  0.109  0.945
 
band     3 # energy   -8.32516713 # occ.  2.00000000
 
ion      s      p      d    tot
    1  0.006  0.001  0.000  0.007
    2  0.006  0.001  0.000  0.007
    3  0.006  0.001  0.000  0.007
    4  0.006  0.001  0.000  0.007
    5  0.006  0.001  0.000  0.007
    6  0.006  0.001  0.000  0.007
    7  0.006  0.001  0.000  0.007
    8  0.006  0.001  0.000  0.007
    9  0.006  0.001  0.000  0.007
   10  0.021  0.000  0.000  0.021
   11  0.021  0.000  0.000  0.021
   12  0.021  0.000  0.000  0.021
   13  0.021  0.000  0.000  0.021
   14  0.021  0.000  0.000  0.021
   15  0.021  0.000  0.000  0.021
   16  0.021  0.000  0.000  0.021
   17  0.021  0.000  0.000  0.021
   18  0.021  0.000  0.000  0.021
   19  0.019  0.000  0.000  0.019
   20  0.015  0.000  0.000  0.016
   21  0.015  0.000  0.000  0.016
   22  0.018  0.000  0.000  0.018
   23  0.015  0.000  0.000  0.016
   24  0.018  0.000  0.000  0.018
   25  0.019  0.000  0.000  0.019
   26  0.019  0.000  0.000  0.019
   27  0.018  0.000  0.000  0.018
   28  0.004  0.001  0.000  0.005
   29  0.003  0.001  0.000  0.004
   30  0.003  0.001  0.000  0.004
   31  0.003  0.001  0.000  0.004
   32  0.003  0.001  0.000  0.004
   33  0.003  0.001  0.000  0.004
   34  0.003  0.001  0.000  0.004
   35  0.004  0.001  0.000  0.005
   36  0.004  0.027  0.039  0.070
   37  0.009  0.131  0.000  0.140
   38  0.043  0.004  0.000  0.047
tot    0.482  0.177  0.041  0.699
 
band     4 # energy   -7.06618843 # occ.  2.00000000
 
ion      s      p      d    tot
    1  0.018  0.001  0.001  0.019
    2  0.018  0.001  0.001  0.019
    3  0.018  0.001  0.001  0.019
    4  0.018  0.001  0.001  0.019
    5  0.018  0.001  0.001  0.019
    6  0.018  0.001  0.001  0.019
    7  0.018  0.001  0.001  0.019
    8  0.018  0.001  0.001  0.019
    9  0.018  0.001  0.001  0.019
   10  0.009  0.002  0.001  0.012
   11  0.009  0.002  0.000  0.012
   12  0.009  0.002  0.001  0.012
   13  0.009  0.002  0.000  0.012
   14  0.009  0.002  0.000  0.012
   15  0.009  0.002  0.001  0.012
   16  0.009  0.002  0.001  0.012
   17  0.009  0.002  0.001  0.012
   18  0.009  0.002  0.001  0.012
   19  0.012  0.002  0.001  0.015
   20  0.009  0.002  0.001  0.012
   21  0.009  0.002  0.001  0.012
   22  0.012  0.002  0.001  0.015
   23  0.009  0.002  0.001  0.012
   24  0.012  0.002  0.001  0.015
   25  0.012  0.002  0.001  0.015
   26  0.012  0.002  0.001  0.015
   27  0.012  0.002  0.001  0.015
   28  0.020  0.001  0.000  0.021
   29  0.018  0.001  0.000  0.019
   30  0.018  0.001  0.000  0.019
   31  0.018  0.001  0.000  0.019
   32  0.018  0.001  0.000  0.019
   33  0.018  0.001  0.000  0.019
   34  0.018  0.001  0.000  0.019
   35  0.019  0.001  0.000  0.021
   36  0.009  0.006  0.008  0.023
   37  0.001  0.007  0.000  0.008
   38  0.002  0.000  0.000  0.002
tot    0.499  0.066  0.027  0.593
 
band     5 # energy   -5.48662185 # occ.  2.00000000
 
ion      s      p      d    tot
    1  0.015  0.000  0.005  0.021
    2  0.014  0.000  0.006  0.020
    3  0.014  0.000  0.006  0.020
    4  0.014  0.000  0.006  0.020
    5  0.005  0.001  0.007  0.012
    6  0.014  0.000  0.006  0.020
    7  0.014  0.000  0.006  0.020
    8  0.014  0.000  0.006  0.020
    9  0.025  0.000  0.004  0.029
   10  0.003  0.003  0.003  0.009
   11  0.014  0.005  0.001  0.020
   12  0.003  0.003  0.003  0.009
   13  0.014  0.005  0.001  0.020
   14  0.014  0.005  0.001  0.020
   15  0.000  0.002  0.004  0.007
   16  0.003  0.003  0.003  0.009
   17  0.000  0.002  0.004  0.007
   18  0.000  0.002  0.004  0.007
   19  0.001  0.003  0.005  0.009
   20  0.019  0.005  0.003  0.027
   21  0.019  0.005  0.003  0.027
   22  0.000  0.004  0.004  0.008
   23  0.019  0.005  0.003  0.027
   24  0.000  0.004  0.004  0.008
   25  0.001  0.003  0.005  0.009
   26  0.001  0.003  0.005  0.009
   27  0.000  0.004  0.004  0.008
   28  0.021  0.000  0.005  0.026
   29  0.015  0.000  0.007  0.023
   30  0.015  0.000  0.007  0.023
   31  0.015  0.000  0.007  0.023
   32  0.015  0.000  0.007  0.023
   33  0.015  0.000  0.007  0.023
   34  0.015  0.000  0.007  0.023
   35  0.027  0.000  0.005  0.032
   36  0.002  0.002  0.012  0.017
   37  0.000  0.000  0.000  0.000
   38  0.000  0.000  0.000  0.000
tot    0.382  0.073  0.174  0.629
 
band     6 # energy   -5.42246647 # occ.  2.00000000
 
ion      s      p      d    tot
    1  0.000  0.003  0.005  0.008
    2  0.009  0.002  0.002  0.014
    3  0.002  0.001  0.002  0.005
    4  0.009  0.002  0.002  0.014
    5  0.000  0.002  0.003  0.006
    6  0.003  0.001  0.002  0.007
    7  0.002  0.001  0.002  0.005
    8  0.003  0.001  0.002  0.007
    9  0.000  0.000  0.002  0.002
   10  0.058  0.005  0.003  0.066
   11  0.007  0.010  0.004  0.021
   12  0.014  0.002  0.013  0.029
   13  0.007  0.010  0.004  0.020
   14  0.027  0.000  0.007  0.034
   15  0.001  0.005  0.007  0.013
   16  0.015  0.002  0.012  0.030
   17  0.001  0.005  0.007  0.014
   18  0.006  0.003  0.003  0.012
   19  0.007  0.010  0.004  0.021
   20  0.064  0.004  0.004  0.073
   21  0.016  0.002  0.015  0.033
   22  0.002  0.005  0.008  0.014
   23  0.016  0.003  0.015  0.033
   24  0.007  0.003  0.003  0.013
   25  0.027  0.000  0.007  0.034
   26  0.007  0.010  0.003  0.020
   27  0.002  0.005  0.008  0.014
   28  0.000  0.003  0.004  0.006
   29  0.011  0.003  0.003  0.016
   30  0.003  0.001  0.003  0.007
   31  0.011  0.003  0.003  0.016
   32  0.002  0.001  0.003  0.006
   33  0.004  0.001  0.003  0.008
   34  0.002  0.001  0.003  0.006
   35  0.000  0.000  0.003  0.003
   36  0.000  0.006  0.007  0.013
   37  0.000  0.000  0.000  0.000
   38  0.000  0.000  0.000  0.000
tot    0.345  0.117  0.182  0.644
 
band     7 # energy   -5.42242738 # occ.  2.00000000
 
ion      s      p      d    tot
    1  0.000  0.003  0.005  0.008
    2  0.000  0.001  0.002  0.003
    3  0.008  0.002  0.002  0.012
    4  0.000  0.001  0.002  0.003
    5  0.000  0.002  0.003  0.006
    6  0.006  0.002  0.002  0.010
    7  0.008  0.002  0.002  0.012
    8  0.006  0.002  0.002  0.010
    9  0.000  0.000  0.002  0.002
   10  0.000  0.002  0.015  0.017
   11  0.020  0.004  0.006  0.030
   12  0.044  0.004  0.006  0.054
   13  0.021  0.003  0.006  0.030
   14  0.000  0.013  0.003  0.016
   15  0.004  0.003  0.005  0.012
   16  0.043  0.004  0.007  0.054
   17  0.004  0.003  0.005  0.012
   18  0.000  0.005  0.009  0.014
   19  0.020  0.004  0.006  0.030
   20  0.000  0.002  0.018  0.020
   21  0.048  0.004  0.008  0.060
   22  0.005  0.003  0.005  0.013
   23  0.048  0.004  0.008  0.059
   24  0.000  0.005  0.010  0.015
   25  0.000  0.014  0.002  0.016
   26  0.020  0.004  0.006  0.030
   27  0.005  0.004  0.005  0.013
   28  0.000  0.003  0.004  0.006
   29  0.000  0.001  0.002  0.003
   30  0.007  0.002  0.003  0.012
   31  0.000  0.001  0.002  0.003
   32  0.009  0.002  0.003  0.014
   33  0.007  0.002  0.003  0.012
   34  0.009  0.002  0.003  0.014
   35  0.000  0.000  0.003  0.003
   36  0.000  0.006  0.007  0.013
   37  0.000  0.000  0.000  0.000
   38  0.000  0.000  0.000  0.000
tot    0.345  0.117  0.182  0.644
 
band     8 # energy   -5.40026638 # occ.  2.00000000
 
ion      s      p      d    tot
    1  0.021  0.003  0.001  0.025
    2  0.000  0.002  0.004  0.006
    3  0.000  0.002  0.004  0.006
    4  0.000  0.002  0.004  0.006
    5  0.002  0.000  0.000  0.003
    6  0.000  0.002  0.004  0.006
    7  0.000  0.002  0.004  0.006
    8  0.000  0.002  0.004  0.006
    9  0.008  0.001  0.000  0.010
   10  0.031  0.006  0.005  0.042
   11  0.006  0.000  0.012  0.018
   12  0.031  0.006  0.005  0.042
   13  0.006  0.000  0.012  0.018
   14  0.006  0.000  0.012  0.018
   15  0.010  0.008  0.004  0.021
   16  0.031  0.006  0.005  0.042
   17  0.010  0.008  0.004  0.021
   18  0.010  0.008  0.004  0.022
   19  0.024  0.009  0.002  0.035
   20  0.000  0.003  0.011  0.014
   21  0.000  0.003  0.011  0.014
   22  0.023  0.002  0.009  0.034
   23  0.000  0.003  0.011  0.014
   24  0.023  0.002  0.009  0.034
   25  0.023  0.009  0.002  0.035
   26  0.024  0.009  0.002  0.035
   27  0.023  0.002  0.009  0.034
   28  0.018  0.003  0.001  0.022
   29  0.000  0.002  0.004  0.006
   30  0.000  0.002  0.004  0.006
   31  0.000  0.002  0.004  0.006
   32  0.000  0.002  0.004  0.006
   33  0.000  0.002  0.004  0.006
   34  0.000  0.002  0.004  0.006
   35  0.012  0.002  0.001  0.015
   36  0.000  0.000  0.000  0.000
   37  0.000  0.000  0.000  0.000
   38  0.000  0.000  0.000  0.000
tot    0.344  0.114  0.181  0.640
 
band     9 # energy   -5.39317734 # occ.  2.00000000
 
ion      s      p      d    tot
    1  0.000  0.001  0.002  0.003
    2  0.010  0.002  0.002  0.015
    3  0.002  0.001  0.002  0.005
    4  0.010  0.002  0.002  0.015
    5  0.000  0.001  0.004  0.005
    6  0.003  0.001  0.002  0.007
    7  0.002  0.001  0.002  0.005
    8  0.003  0.001  0.002  0.007
    9  0.000  0.003  0.005  0.009
   10  0.000  0.012  0.003  0.014
   11  0.026  0.004  0.005  0.035
   12  0.002  0.003  0.005  0.010
   13  0.025  0.003  0.006  0.034
   14  0.000  0.000  0.016  0.016
   15  0.042  0.004  0.006  0.052
   16  0.002  0.003  0.005  0.010
   17  0.041  0.004  0.006  0.051
   18  0.000  0.008  0.009  0.017
   19  0.028  0.004  0.006  0.037
   20  0.000  0.012  0.003  0.015
   21  0.002  0.004  0.005  0.011
   22  0.042  0.004  0.006  0.052
   23  0.002  0.003  0.005  0.011
   24  0.000  0.008  0.009  0.017
   25  0.000  0.000  0.016  0.017
   26  0.027  0.004  0.006  0.036
   27  0.043  0.004  0.006  0.053
   28  0.000  0.001  0.005  0.006
   29  0.011  0.003  0.003  0.017
   30  0.004  0.002  0.003  0.008
   31  0.011  0.003  0.003  0.017
   32  0.002  0.001  0.002  0.006
   33  0.003  0.002  0.003  0.008
   34  0.002  0.001  0.002  0.006
   35  0.000  0.004  0.005  0.009
   36  0.000  0.002  0.003  0.004
   37  0.000  0.000  0.000  0.000
   38  0.000  0.000  0.000  0.000
tot    0.344  0.116  0.178  0.639
 
band    10 # energy   -5.39314181 # occ.  2.00000000
 
ion      s      p      d    tot
    1  0.000  0.001  0.002  0.003
    2  0.000  0.001  0.002  0.003
    3  0.008  0.002  0.002  0.013
    4  0.000  0.001  0.002  0.003
    5  0.000  0.001  0.004  0.005
    6  0.007  0.002  0.002  0.011
    7  0.008  0.002  0.002  0.013
    8  0.007  0.002  0.002  0.011
    9  0.000  0.003  0.005  0.009
   10  0.003  0.001  0.006  0.009
   11  0.008  0.001  0.012  0.022
   12  0.001  0.009  0.003  0.013
   13  0.009  0.001  0.012  0.022
   14  0.034  0.005  0.002  0.041
   15  0.014  0.006  0.008  0.028
   16  0.001  0.009  0.003  0.013
   17  0.014  0.006  0.008  0.029
   18  0.055  0.002  0.005  0.063
   19  0.009  0.001  0.013  0.023
   20  0.002  0.001  0.006  0.009
   21  0.001  0.009  0.004  0.014
   22  0.014  0.007  0.008  0.029
   23  0.001  0.010  0.004  0.014
   24  0.057  0.002  0.006  0.065
   25  0.037  0.005  0.002  0.043
   26  0.009  0.001  0.013  0.023
   27  0.013  0.007  0.008  0.028
   28  0.000  0.001  0.005  0.006
   29  0.000  0.001  0.002  0.003
   30  0.008  0.002  0.003  0.012
   31  0.000  0.001  0.002  0.003
   32  0.009  0.002  0.003  0.014
   33  0.008  0.002  0.003  0.012
   34  0.009  0.002  0.003  0.014
   35  0.000  0.004  0.005  0.009
   36  0.000  0.002  0.003  0.004
   37  0.000  0.000  0.000  0.000
   38  0.000  0.000  0.000  0.000
tot    0.344  0.116  0.178  0.639
 
band    11 # energy   -5.32631047 # occ.  2.00000000
 
ion      s      p      d    tot
    1  0.000  0.000  0.001  0.002
    2  0.003  0.002  0.006  0.010
    3  0.003  0.002  0.006  0.010
    4  0.003  0.002  0.006  0.010
    5  0.038  0.003  0.000  0.041
    6  0.003  0.002  0.006  0.010
    7  0.003  0.002  0.006  0.010
    8  0.003  0.002  0.006  0.010
    9  0.003  0.002  0.004  0.010
   10  0.002  0.004  0.009  0.015
   11  0.016  0.009  0.004  0.029
   12  0.002  0.004  0.009  0.015
   13  0.016  0.009  0.004  0.029
   14  0.016  0.009  0.004  0.029
   15  0.030  0.002  0.010  0.042
   16  0.002  0.004  0.009  0.015
   17  0.030  0.002  0.010  0.042
   18  0.030  0.002  0.010  0.042
   19  0.007  0.002  0.009  0.018
   20  0.017  0.004  0.007  0.028
   21  0.017  0.004  0.007  0.028
   22  0.010  0.007  0.004  0.021
   23  0.017  0.004  0.007  0.028
   24  0.010  0.007  0.004  0.021
   25  0.007  0.002  0.009  0.018
   26  0.007  0.002  0.009  0.018
   27  0.010  0.007  0.004  0.021
   28  0.001  0.000  0.003  0.004
   29  0.003  0.001  0.004  0.008
   30  0.003  0.001  0.004  0.008
   31  0.003  0.001  0.004  0.008
   32  0.003  0.001  0.004  0.008
   33  0.003  0.001  0.004  0.008
   34  0.003  0.001  0.004  0.008
   35  0.000  0.001  0.002  0.003
   36  0.017  0.007  0.003  0.027
   37  0.001  0.002  0.000  0.003
   38  0.001  0.000  0.000  0.001
tot    0.347  0.113  0.196  0.656
 
band    12 # energy   -4.66720207 # occ.  2.00000000
 
ion      s      p      d    tot
    1  0.004  0.001  0.009  0.014
    2  0.005  0.001  0.009  0.015
    3  0.005  0.001  0.009  0.015
    4  0.005  0.001  0.009  0.015
    5  0.000  0.001  0.009  0.011
    6  0.005  0.001  0.009  0.015
    7  0.005  0.001  0.009  0.015
    8  0.005  0.001  0.009  0.015
    9  0.016  0.000  0.007  0.023
   10  0.008  0.000  0.025  0.033
   11  0.010  0.000  0.021  0.032
   12  0.008  0.000  0.025  0.033
   13  0.010  0.000  0.021  0.032
   14  0.010  0.000  0.021  0.032
   15  0.002  0.000  0.022  0.024
   16  0.008  0.000  0.025  0.033
   17  0.002  0.000  0.022  0.024
   18  0.002  0.000  0.021  0.024
   19  0.005  0.000  0.020  0.025
   20  0.010  0.001  0.028  0.039
   21  0.010  0.001  0.028  0.039
   22  0.002  0.000  0.021  0.023
   23  0.010  0.001  0.028  0.039
   24  0.002  0.000  0.021  0.024
   25  0.005  0.000  0.020  0.025
   26  0.005  0.000  0.020  0.025
   27  0.002  0.000  0.021  0.023
   28  0.002  0.000  0.007  0.010
   29  0.004  0.001  0.008  0.013
   30  0.004  0.001  0.008  0.013
   31  0.004  0.001  0.008  0.013
   32  0.004  0.001  0.008  0.013
   33  0.004  0.001  0.008  0.013
   34  0.004  0.001  0.008  0.013
   35  0.013  0.000  0.006  0.019
   36  0.000  0.003  0.008  0.012
   37  0.000  0.000  0.000  0.000
   38  0.000  0.000  0.000  0.000
tot    0.202  0.018  0.556  0.776
 
band    13 # energy   -4.65513303 # occ.  2.00000000
 
ion      s      p      d    tot
    1  0.000  0.001  0.009  0.011
    2  0.011  0.003  0.005  0.018
    3  0.017  0.003  0.005  0.026
    4  0.001  0.002  0.005  0.007
    5  0.000  0.006  0.008  0.014
    6  0.001  0.002  0.005  0.007
    7  0.018  0.003  0.005  0.026
    8  0.011  0.003  0.005  0.019
    9  0.000  0.001  0.011  0.012
   10  0.001  0.001  0.015  0.017
   11  0.020  0.004  0.005  0.029
   12  0.005  0.002  0.012  0.019
   13  0.009  0.003  0.015  0.027
   14  0.002  0.002  0.022  0.025
   15  0.001  0.000  0.008  0.009
   16  0.011  0.003  0.008  0.023
   17  0.001  0.002  0.012  0.015
   18  0.000  0.004  0.016  0.019
   19  0.001  0.000  0.007  0.009
   20  0.002  0.001  0.029  0.032
   21  0.007  0.003  0.020  0.030
   22  0.004  0.002  0.011  0.018
   23  0.016  0.004  0.007  0.027
   24  0.001  0.001  0.012  0.014
   25  0.000  0.003  0.020  0.023
   26  0.000  0.002  0.015  0.017
   27  0.009  0.004  0.010  0.023
   28  0.000  0.001  0.014  0.015
   29  0.015  0.003  0.005  0.023
   30  0.023  0.003  0.005  0.031
   31  0.002  0.002  0.006  0.009
   32  0.001  0.002  0.006  0.008
   33  0.021  0.003  0.005  0.029
   34  0.012  0.003  0.005  0.020
   35  0.000  0.002  0.010  0.012
   36  0.000  0.018  0.001  0.018
   37  0.000  0.021  0.000  0.021
   38  0.000  0.000  0.000  0.000
tot    0.225  0.123  0.357  0.704
 
band    14 # energy   -4.65513027 # occ.  2.00000000
 
ion      s      p      d    tot
    1  0.000  0.002  0.009  0.011
    2  0.009  0.002  0.005  0.016
    3  0.002  0.002  0.005  0.008
    4  0.019  0.003  0.005  0.027
    5  0.000  0.006  0.008  0.014
    6  0.019  0.003  0.005  0.027
    7  0.002  0.002  0.005  0.008
    8  0.008  0.002  0.005  0.016
    9  0.000  0.001  0.011  0.012
   10  0.011  0.003  0.008  0.022
   11  0.001  0.001  0.023  0.025
   12  0.007  0.002  0.011  0.020
   13  0.012  0.003  0.013  0.028
   14  0.019  0.004  0.006  0.029
   15  0.000  0.004  0.016  0.020
   16  0.001  0.001  0.015  0.017
   17  0.001  0.002  0.011  0.014
   18  0.001  0.000  0.008  0.010
   19  0.000  0.003  0.021  0.024
   20  0.015  0.004  0.008  0.027
   21  0.009  0.003  0.017  0.029
   22  0.005  0.003  0.011  0.019
   23  0.001  0.001  0.030  0.032
   24  0.009  0.004  0.010  0.022
   25  0.001  0.000  0.008  0.009
   26  0.001  0.001  0.013  0.015
   27  0.000  0.001  0.012  0.013
   28  0.000  0.001  0.014  0.015
   29  0.010  0.002  0.005  0.017
   30  0.002  0.002  0.006  0.009
   31  0.023  0.004  0.005  0.031
   32  0.024  0.004  0.005  0.032
   33  0.003  0.002  0.006  0.011
   34  0.012  0.003  0.005  0.020
   35  0.000  0.002  0.010  0.012
   36  0.000  0.018  0.001  0.018
   37  0.000  0.021  0.000  0.021
   38  0.000  0.000  0.000  0.000
tot    0.225  0.123  0.357  0.704
 
band    15 # energy   -4.64421760 # occ.  2.00000000
 
ion      s      p      d    tot
    1  0.000  0.004  0.010  0.015
    2  0.005  0.002  0.005  0.012
    3  0.021  0.004  0.005  0.030
    4  0.005  0.002  0.005  0.012
    5  0.000  0.000  0.011  0.011
    6  0.006  0.002  0.005  0.013
    7  0.021  0.004  0.005  0.030
    8  0.006  0.002  0.005  0.013
    9  0.000  0.005  0.008  0.013
   10  0.011  0.002  0.005  0.018
   11  0.000  0.002  0.013  0.016
   12  0.003  0.003  0.019  0.025
   13  0.001  0.002  0.013  0.016
   14  0.002  0.001  0.009  0.012
   15  0.005  0.001  0.018  0.024
   16  0.003  0.003  0.020  0.025
   17  0.006  0.001  0.017  0.024
   18  0.022  0.005  0.006  0.033
   19  0.004  0.001  0.017  0.023
   20  0.002  0.001  0.012  0.014
   21  0.000  0.002  0.015  0.017
   22  0.003  0.003  0.021  0.026
   23  0.000  0.002  0.015  0.017
   24  0.010  0.002  0.004  0.016
   25  0.018  0.006  0.007  0.031
   26  0.005  0.002  0.017  0.023
   27  0.002  0.003  0.022  0.027
   28  0.000  0.005  0.008  0.013
   29  0.007  0.002  0.007  0.016
   30  0.023  0.004  0.006  0.033
   31  0.007  0.002  0.007  0.015
   32  0.005  0.002  0.006  0.013
   33  0.023  0.004  0.006  0.033
   34  0.005  0.002  0.006  0.014
   35  0.000  0.005  0.011  0.016
   36  0.000  0.000  0.012  0.012
   37  0.000  0.001  0.000  0.001
   38  0.000  0.000  0.000  0.000
tot    0.228  0.094  0.380  0.702
 
band    16 # energy   -4.64419319 # occ.  2.00000000
 
ion      s      p      d    tot
    1  0.000  0.004  0.010  0.015
    2  0.016  0.003  0.005  0.024
    3  0.000  0.002  0.005  0.007
    4  0.016  0.003  0.005  0.024
    5  0.000  0.000  0.011  0.011
    6  0.015  0.003  0.005  0.024
    7  0.000  0.002  0.005  0.007
    8  0.015  0.003  0.005  0.024
    9  0.000  0.005  0.008  0.013
   10  0.000  0.003  0.024  0.028
   11  0.001  0.001  0.010  0.013
   12  0.008  0.002  0.010  0.021
   13  0.001  0.001  0.010  0.013
   14  0.000  0.003  0.014  0.017
   15  0.016  0.004  0.010  0.030
   16  0.008  0.002  0.010  0.020
   17  0.016  0.004  0.010  0.030
   18  0.000  0.000  0.021  0.021
   19  0.014  0.004  0.010  0.028
   20  0.000  0.002  0.016  0.018
   21  0.001  0.002  0.013  0.015
   22  0.007  0.002  0.010  0.020
   23  0.001  0.002  0.013  0.015
   24  0.000  0.003  0.027  0.030
   25  0.000  0.000  0.020  0.020
   26  0.014  0.004  0.010  0.028
   27  0.007  0.002  0.010  0.019
   28  0.000  0.005  0.008  0.013
   29  0.016  0.003  0.006  0.025
   30  0.000  0.002  0.007  0.008
   31  0.016  0.003  0.006  0.026
   32  0.018  0.003  0.007  0.028
   33  0.000  0.002  0.007  0.009
   34  0.018  0.003  0.007  0.028
   35  0.000  0.005  0.011  0.016
   36  0.000  0.000  0.012  0.012
   37  0.000  0.001  0.000  0.001
   38  0.000  0.000  0.000  0.000
tot    0.228  0.094  0.380  0.702
 
band    17 # energy   -4.63662474 # occ.  2.00000000
 
ion      s      p      d    tot
    1  0.036  0.003  0.000  0.039
    2  0.000  0.003  0.010  0.013
    3  0.000  0.003  0.010  0.013
    4  0.000  0.003  0.010  0.013
    5  0.000  0.000  0.001  0.001
    6  0.000  0.003  0.010  0.013
    7  0.000  0.003  0.010  0.013
    8  0.000  0.003  0.010  0.013
    9  0.026  0.004  0.001  0.031
   10  0.007  0.003  0.011  0.022
   11  0.002  0.000  0.015  0.017
   12  0.007  0.003  0.011  0.022
   13  0.002  0.000  0.015  0.017
   14  0.002  0.000  0.015  0.017
   15  0.008  0.003  0.017  0.028
   16  0.007  0.003  0.011  0.022
   17  0.008  0.003  0.017  0.028
   18  0.007  0.003  0.017  0.028
   19  0.004  0.004  0.018  0.026
   20  0.000  0.000  0.016  0.016
   21  0.000  0.000  0.016  0.016
   22  0.012  0.003  0.010  0.025
   23  0.000  0.000  0.016  0.016
   24  0.012  0.003  0.010  0.025
   25  0.004  0.004  0.018  0.026
   26  0.004  0.004  0.018  0.026
   27  0.012  0.003  0.010  0.025
   28  0.039  0.003  0.000  0.042
   29  0.000  0.003  0.011  0.014
   30  0.000  0.003  0.011  0.014
   31  0.000  0.003  0.011  0.014
   32  0.000  0.003  0.011  0.014
   33  0.000  0.003  0.011  0.014
   34  0.000  0.003  0.011  0.014
   35  0.024  0.003  0.001  0.029
   36  0.000  0.000  0.000  0.000
   37  0.000  0.000  0.000  0.000
   38  0.000  0.000  0.000  0.000
tot    0.225  0.089  0.392  0.707
 
band    18 # energy   -4.49657518 # occ.  2.00000000
 
ion      s      p      d    tot
    1  0.012  0.001  0.000  0.014
    2  0.000  0.003  0.011  0.014
    3  0.000  0.003  0.011  0.014
    4  0.000  0.003  0.011  0.014
    5  0.045  0.004  0.000  0.049
    6  0.000  0.003  0.011  0.014
    7  0.000  0.003  0.011  0.014
    8  0.000  0.003  0.011  0.014
    9  0.006  0.001  0.001  0.007
   10  0.001  0.001  0.025  0.028
   11  0.004  0.004  0.020  0.028
   12  0.001  0.001  0.025  0.028
   13  0.004  0.004  0.020  0.028
   14  0.004  0.004  0.020  0.028
   15  0.004  0.001  0.009  0.015
   16  0.001  0.001  0.025  0.028
   17  0.004  0.001  0.009  0.015
   18  0.004  0.001  0.009  0.015
   19  0.010  0.001  0.021  0.032
   20  0.010  0.004  0.009  0.023
   21  0.010  0.004  0.009  0.023
   22  0.003  0.002  0.018  0.022
   23  0.010  0.004  0.009  0.023
   24  0.003  0.002  0.018  0.022
   25  0.010  0.001  0.021  0.032
   26  0.010  0.001  0.021  0.032
   27  0.003  0.002  0.018  0.022
   28  0.002  0.002  0.005  0.009
   29  0.001  0.002  0.011  0.014
   30  0.001  0.002  0.011  0.014
   31  0.001  0.002  0.011  0.014
   32  0.001  0.002  0.011  0.014
   33  0.001  0.002  0.011  0.014
   34  0.001  0.002  0.011  0.014
   35  0.004  0.001  0.002  0.007
   36  0.033  0.013  0.003  0.049
   37  0.001  0.002  0.000  0.003
   38  0.001  0.000  0.000  0.001
tot    0.208  0.091  0.453  0.753
 
band    19 # energy   -4.42029119 # occ.  2.00000000
 
ion      s      p      d    tot
    1  0.000  0.001  0.001  0.001
    2  0.003  0.000  0.001  0.004
    3  0.001  0.000  0.001  0.002
    4  0.003  0.000  0.001  0.004
    5  0.000  0.001  0.002  0.002
    6  0.001  0.000  0.001  0.002
    7  0.001  0.000  0.001  0.002
    8  0.001  0.000  0.001  0.002
    9  0.000  0.000  0.002  0.002
   10  0.001  0.001  0.002  0.004
   11  0.000  0.000  0.005  0.005
   12  0.000  0.000  0.002  0.003
   13  0.000  0.000  0.005  0.005
   14  0.001  0.000  0.000  0.001
   15  0.000  0.000  0.002  0.002
   16  0.000  0.000  0.002  0.003
   17  0.000  0.000  0.002  0.002
   18  0.000  0.000  0.001  0.002
   19  0.000  0.000  0.001  0.001
   20  0.003  0.000  0.003  0.007
   21  0.001  0.000  0.007  0.008
   22  0.000  0.000  0.003  0.003
   23  0.001  0.000  0.007  0.008
   24  0.001  0.000  0.001  0.002
   25  0.000  0.000  0.001  0.001
   26  0.000  0.000  0.001  0.001
   27  0.000  0.000  0.003  0.003
   28  0.000  0.000  0.002  0.002
   29  0.003  0.002  0.010  0.014
   30  0.000  0.000  0.004  0.004
   31  0.003  0.002  0.010  0.014
   32  0.002  0.002  0.010  0.014
   33  0.000  0.000  0.004  0.004
   34  0.002  0.002  0.010  0.014
   35  0.000  0.000  0.003  0.003
   36  0.000  0.015  0.125  0.140
   37  0.000  0.440  0.000  0.440
   38  0.000  0.007  0.000  0.007
tot    0.027  0.474  0.234  0.735
 
band    20 # energy   -4.42019439 # occ.  2.00000000
 
ion      s      p      d    tot
    1  0.000  0.001  0.001  0.001
    2  0.000  0.000  0.001  0.001
    3  0.002  0.000  0.001  0.003
    4  0.000  0.000  0.001  0.001
    5  0.000  0.001  0.002  0.002
    6  0.002  0.000  0.001  0.003
    7  0.002  0.000  0.001  0.003
    8  0.002  0.000  0.001  0.003
    9  0.000  0.000  0.002  0.002
   10  0.000  0.000  0.002  0.002
   11  0.000  0.000  0.002  0.003
   12  0.001  0.001  0.002  0.004
   13  0.000  0.000  0.002  0.003
   14  0.000  0.000  0.006  0.006
   15  0.000  0.000  0.002  0.002
   16  0.001  0.001  0.002  0.004
   17  0.000  0.000  0.002  0.002
   18  0.000  0.000  0.002  0.003
   19  0.000  0.000  0.001  0.001
   20  0.000  0.000  0.008  0.009
   21  0.003  0.000  0.004  0.007
   22  0.000  0.000  0.002  0.002
   23  0.003  0.000  0.004  0.007
   24  0.000  0.000  0.003  0.003
   25  0.000  0.000  0.000  0.000
   26  0.000  0.000  0.001  0.001
   27  0.000  0.000  0.002  0.002
   28  0.000  0.000  0.002  0.002
   29  0.001  0.001  0.006  0.007
   30  0.003  0.002  0.012  0.017
   31  0.001  0.001  0.006  0.007
   32  0.001  0.001  0.006  0.007
   33  0.003  0.002  0.012  0.017
   34  0.001  0.001  0.006  0.007
   35  0.000  0.000  0.003  0.003
   36  0.000  0.015  0.125  0.140
   37  0.000  0.440  0.000  0.440
   38  0.000  0.007  0.000  0.007
tot    0.027  0.474  0.234  0.735
 
band    21 # energy   -3.97545800 # occ.  2.00000000
 
ion      s      p      d    tot
    1  0.000  0.000  0.035  0.035
    2  0.013  0.001  0.009  0.023
    3  0.011  0.001  0.009  0.021
    4  0.012  0.001  0.009  0.023
    5  0.000  0.002  0.008  0.009
    6  0.000  0.001  0.009  0.010
    7  0.011  0.001  0.009  0.021
    8  0.000  0.001  0.009  0.010
    9  0.000  0.003  0.010  0.013
   10  0.000  0.000  0.054  0.054
   11  0.000  0.005  0.017  0.022
   12  0.000  0.000  0.020  0.020
   13  0.000  0.005  0.016  0.021
   14  0.000  0.000  0.005  0.005
   15  0.001  0.004  0.016  0.020
   16  0.000  0.000  0.019  0.019