PROCAR new format
# of k-points:   10         # of bands:  252         # of ions:   37

 k-point     1 :    0.00000000 0.00000000 0.00000000     weight = 0.01562500

band     1 # energy  -12.25493050 # occ.  2.00000000
 
ion      s      p      d    tot
    1  0.000  0.000  0.000  0.000
    2  0.000  0.000  0.000  0.000
    3  0.000  0.000  0.000  0.000
    4  0.000  0.000  0.000  0.000
    5  0.000  0.000  0.000  0.000
    6  0.000  0.000  0.000  0.000
    7  0.000  0.000  0.000  0.000
    8  0.000  0.000  0.000  0.000
    9  0.000  0.000  0.000  0.000
   10  0.000  0.000  0.000  0.000
   11  0.000  0.000  0.000  0.000
   12  0.000  0.000  0.000  0.000
   13  0.000  0.000  0.000  0.000
   14  0.000  0.000  0.000  0.000
   15  0.000  0.000  0.000  0.000
   16  0.000  0.000  0.000  0.000
   17  0.000  0.000  0.000  0.000
   18  0.000  0.000  0.000  0.000
   19  0.000  0.000  0.000  0.000
   20  0.000  0.000  0.000  0.001
   21  0.000  0.000  0.000  0.001
   22  0.000  0.000  0.000  0.000
   23  0.000  0.000  0.000  0.001
   24  0.000  0.000  0.000  0.000
   25  0.000  0.000  0.000  0.000
   26  0.000  0.000  0.000  0.000
   27  0.000  0.000  0.000  0.000
   28  0.000  0.000  0.000  0.000
   29  0.000  0.000  0.000  0.000
   30  0.000  0.000  0.000  0.000
   31  0.000  0.000  0.000  0.000
   32  0.000  0.000  0.000  0.000
   33  0.000  0.000  0.000  0.000
   34  0.000  0.000  0.000  0.000
   35  0.000  0.000  0.000  0.000
   36  0.063  0.063  0.167  0.294
   37  0.633  0.014  0.000  0.647
tot    0.698  0.078  0.169  0.945
 
band     2 # energy   -6.35176235 # occ.  2.00000000
 
ion      s      p      d    tot
    1  0.006  0.001  0.000  0.007
    2  0.006  0.001  0.000  0.006
    3  0.006  0.001  0.000  0.006
    4  0.006  0.001  0.000  0.006
    5  0.006  0.001  0.000  0.006
    6  0.006  0.001  0.000  0.006
    7  0.006  0.001  0.000  0.006
    8  0.006  0.001  0.000  0.006
    9  0.006  0.001  0.000  0.006
   10  0.023  0.000  0.000  0.024
   11  0.024  0.000  0.000  0.024
   12  0.023  0.000  0.000  0.024
   13  0.024  0.000  0.000  0.024
   14  0.024  0.000  0.000  0.024
   15  0.022  0.000  0.000  0.023
   16  0.023  0.000  0.000  0.024
   17  0.022  0.000  0.000  0.023
   18  0.022  0.000  0.000  0.023
   19  0.023  0.000  0.000  0.023
   20  0.026  0.000  0.000  0.027
   21  0.026  0.000  0.000  0.027
   22  0.023  0.000  0.000  0.023
   23  0.026  0.000  0.000  0.027
   24  0.023  0.000  0.000  0.023
   25  0.023  0.000  0.000  0.023
   26  0.023  0.000  0.000  0.023
   27  0.023  0.000  0.000  0.023
   28  0.006  0.001  0.000  0.006
   29  0.005  0.001  0.000  0.006
   30  0.005  0.001  0.000  0.006
   31  0.005  0.001  0.000  0.006
   32  0.005  0.001  0.000  0.006
   33  0.005  0.001  0.000  0.006
   34  0.005  0.001  0.000  0.006
   35  0.005  0.001  0.000  0.006
   36  0.006  0.002  0.000  0.008
   37  0.001  0.000  0.000  0.001
tot    0.524  0.014  0.007  0.545
 
band     3 # energy   -5.48752700 # occ.  2.00000000
 
ion      s      p      d    tot
    1  0.007  0.000  0.000  0.008
    2  0.007  0.000  0.000  0.008
    3  0.007  0.000  0.000  0.008
    4  0.007  0.000  0.000  0.008
    5  0.008  0.000  0.000  0.008
    6  0.007  0.000  0.000  0.008
    7  0.007  0.000  0.000  0.008
    8  0.007  0.000  0.000  0.008
    9  0.008  0.000  0.000  0.008
   10  0.011  0.001  0.017  0.029
   11  0.011  0.001  0.016  0.028
   12  0.011  0.001  0.017  0.029
   13  0.011  0.001  0.016  0.028
   14  0.011  0.001  0.016  0.028
   15  0.011  0.001  0.013  0.025
   16  0.011  0.001  0.017  0.029
   17  0.011  0.001  0.013  0.025
   18  0.011  0.001  0.013  0.025
   19  0.011  0.001  0.018  0.030
   20  0.014  0.001  0.027  0.041
   21  0.014  0.001  0.027  0.041
   22  0.011  0.001  0.016  0.027
   23  0.014  0.001  0.027  0.041
   24  0.011  0.001  0.016  0.027
   25  0.011  0.001  0.018  0.030
   26  0.011  0.001  0.018  0.030
   27  0.011  0.001  0.016  0.027
   28  0.006  0.000  0.000  0.006
   29  0.005  0.000  0.000  0.006
   30  0.005  0.000  0.000  0.006
   31  0.005  0.000  0.000  0.006
   32  0.005  0.000  0.000  0.006
   33  0.005  0.000  0.000  0.006
   34  0.005  0.000  0.000  0.006
   35  0.005  0.000  0.000  0.006
   36  0.005  0.001  0.000  0.006
   37  0.001  0.000  0.000  0.001
tot    0.322  0.024  0.322  0.669
 
band     4 # energy   -5.21423798 # occ.  2.00000000
 
ion      s      p      d    tot
    1  0.014  0.000  0.015  0.029
    2  0.010  0.000  0.014  0.024
    3  0.010  0.000  0.014  0.024
    4  0.010  0.000  0.014  0.024
    5  0.008  0.000  0.012  0.020
    6  0.010  0.000  0.014  0.024
    7  0.010  0.000  0.014  0.024
    8  0.010  0.000  0.014  0.024
    9  0.010  0.000  0.013  0.023
   10  0.000  0.000  0.021  0.022
   11  0.000  0.000  0.008  0.009
   12  0.000  0.000  0.021  0.022
   13  0.000  0.000  0.008  0.009
   14  0.000  0.000  0.008  0.009
   15  0.000  0.001  0.006  0.007
   16  0.000  0.000  0.021  0.022
   17  0.000  0.001  0.006  0.007
   18  0.000  0.001  0.006  0.007
   19  0.000  0.000  0.016  0.016
   20  0.001  0.000  0.045  0.046
   21  0.001  0.000  0.045  0.046
   22  0.002  0.000  0.007  0.009
   23  0.001  0.000  0.045  0.046
   24  0.002  0.000  0.007  0.009
   25  0.000  0.000  0.016  0.016
   26  0.000  0.000  0.016  0.016
   27  0.002  0.000  0.007  0.009
   28  0.010  0.000  0.009  0.019
   29  0.011  0.000  0.013  0.024
   30  0.011  0.000  0.013  0.024
   31  0.011  0.000  0.013  0.024
   32  0.011  0.000  0.013  0.024
   33  0.011  0.000  0.013  0.024
   34  0.011  0.000  0.013  0.024
   35  0.015  0.000  0.009  0.024
   36  0.005  0.000  0.019  0.025
   37  0.000  0.002  0.000  0.002
tot    0.201  0.010  0.548  0.758
 
band     5 # energy   -5.15057509 # occ.  2.00000000
 
ion      s      p      d    tot
    1  0.000  0.000  0.010  0.010
    2  0.003  0.000  0.008  0.012
    3  0.003  0.000  0.008  0.012
    4  0.003  0.000  0.008  0.012
    5  0.008  0.000  0.005  0.013
    6  0.003  0.000  0.008  0.012
    7  0.003  0.000  0.008  0.012
    8  0.003  0.000  0.008  0.012
    9  0.005  0.000  0.004  0.009
   10  0.005  0.000  0.010  0.015
   11  0.000  0.000  0.026  0.026
   12  0.005  0.000  0.010  0.015
   13  0.000  0.000  0.026  0.026
   14  0.000  0.000  0.026  0.026
   15  0.001  0.000  0.013  0.015
   16  0.005  0.000  0.010  0.015
   17  0.001  0.000  0.013  0.015
   18  0.001  0.000  0.013  0.015
   19  0.001  0.001  0.029  0.030
   20  0.006  0.000  0.109  0.115
   21  0.006  0.000  0.109  0.115
   22  0.012  0.000  0.012  0.024
   23  0.006  0.000  0.109  0.115
   24  0.012  0.000  0.012  0.024
   25  0.001  0.001  0.029  0.030
   26  0.001  0.001  0.029  0.030
   27  0.012  0.000  0.012  0.024
   28  0.000  0.000  0.002  0.003
   29  0.000  0.000  0.003  0.003
   30  0.000  0.000  0.003  0.003
   31  0.000  0.000  0.003  0.003
   32  0.000  0.000  0.003  0.003
   33  0.000  0.000  0.003  0.003
   34  0.000  0.000  0.003  0.003
   35  0.002  0.001  0.005  0.008
   36  0.004  0.003  0.007  0.014
   37  0.002  0.002  0.000  0.004
tot    0.114  0.015  0.692  0.822
 
band     6 # energy   -5.11382307 # occ.  2.00000000
 
ion      s      p      d    tot
    1  0.000  0.000  0.008  0.008
    2  0.001  0.000  0.002  0.003
    3  0.001  0.000  0.002  0.003
    4  0.000  0.000  0.002  0.002
    5  0.000  0.000  0.004  0.004
    6  0.001  0.000  0.002  0.003
    7  0.000  0.000  0.002  0.002
    8  0.001  0.000  0.002  0.003
    9  0.000  0.000  0.001  0.001
   10  0.007  0.001  0.015  0.023
   11  0.001  0.000  0.022  0.024
   12  0.000  0.001  0.019  0.019
   13  0.000  0.001  0.022  0.022
   14  0.001  0.000  0.023  0.024
   15  0.002  0.000  0.009  0.012
   16  0.006  0.001  0.016  0.022
   17  0.000  0.000  0.011  0.011
   18  0.002  0.000  0.009  0.012
   19  0.014  0.001  0.034  0.049
   20  0.023  0.000  0.038  0.062
   21  0.000  0.000  0.176  0.177
   22  0.000  0.001  0.046  0.048
   23  0.019  0.000  0.060  0.080
   24  0.000  0.001  0.034  0.035
   25  0.017  0.001  0.036  0.054
   26  0.000  0.001  0.021  0.023
   27  0.000  0.001  0.036  0.037
   28  0.000  0.000  0.005  0.005
   29  0.000  0.000  0.004  0.005
   30  0.000  0.000  0.007  0.008
   31  0.001  0.001  0.005  0.007
   32  0.000  0.000  0.007  0.007
   33  0.001  0.001  0.006  0.008
   34  0.000  0.000  0.004  0.005
   35  0.000  0.000  0.001  0.001
   36  0.000  0.001  0.009  0.010
   37  0.000  0.001  0.000  0.001
tot    0.100  0.015  0.702  0.817
 
band     7 # energy   -5.11382217 # occ.  2.00000000
 
ion      s      p      d    tot
    1  0.000  0.000  0.008  0.008
    2  0.000  0.000  0.002  0.002
    3  0.000  0.000  0.002  0.003
    4  0.001  0.000  0.002  0.003
    5  0.000  0.000  0.004  0.004
    6  0.000  0.000  0.002  0.002
    7  0.001  0.000  0.002  0.003
    8  0.000  0.000  0.002  0.002
    9  0.000  0.000  0.001  0.001
   10  0.002  0.001  0.018  0.020
   11  0.000  0.001  0.022  0.023
   12  0.008  0.001  0.014  0.024
   13  0.001  0.000  0.023  0.024
   14  0.000  0.001  0.022  0.023
   15  0.001  0.000  0.010  0.011
   16  0.003  0.001  0.017  0.021
   17  0.003  0.001  0.008  0.012
   18  0.001  0.000  0.010  0.011
   19  0.007  0.001  0.027  0.035
   20  0.005  0.000  0.145  0.150
   21  0.028  0.000  0.007  0.035
   22  0.000  0.000  0.031  0.032
   23  0.009  0.000  0.123  0.132
   24  0.000  0.001  0.044  0.045
   25  0.004  0.001  0.025  0.030
   26  0.021  0.000  0.040  0.061
   27  0.000  0.001  0.042  0.043
   28  0.000  0.000  0.005  0.005
   29  0.001  0.000  0.007  0.008
   30  0.001  0.000  0.004  0.005
   31  0.000  0.000  0.006  0.006
   32  0.001  0.001  0.004  0.006
   33  0.000  0.000  0.005  0.005
   34  0.001  0.001  0.007  0.008
   35  0.000  0.000  0.001  0.001
   36  0.000  0.001  0.009  0.010
   37  0.000  0.001  0.000  0.001
tot    0.100  0.015  0.702  0.817
 
band     8 # energy   -5.07956060 # occ.  2.00000000
 
ion      s      p      d    tot
    1  0.000  0.000  0.003  0.003
    2  0.000  0.000  0.002  0.002
    3  0.001  0.000  0.006  0.007
    4  0.000  0.000  0.002  0.002
    5  0.000  0.000  0.009  0.009
    6  0.001  0.001  0.005  0.006
    7  0.001  0.000  0.006  0.007
    8  0.001  0.001  0.005  0.006
    9  0.000  0.000  0.002  0.002
   10  0.005  0.001  0.018  0.024
   11  0.008  0.001  0.069  0.078
   12  0.001  0.000  0.070  0.071
   13  0.007  0.001  0.072  0.080
   14  0.030  0.001  0.013  0.044
   15  0.002  0.001  0.014  0.018
   16  0.001  0.000  0.068  0.070
   17  0.002  0.001  0.013  0.017
   18  0.009  0.000  0.036  0.046
   19  0.000  0.000  0.030  0.030
   20  0.009  0.000  0.042  0.052
   21  0.002  0.001  0.031  0.034
   22  0.003  0.000  0.027  0.030
   23  0.002  0.001  0.031  0.035
   24  0.014  0.001  0.009  0.025
   25  0.002  0.000  0.013  0.015
   26  0.000  0.000  0.030  0.031
   27  0.004  0.000  0.026  0.030
   28  0.000  0.000  0.001  0.001
   29  0.001  0.000  0.004  0.006
   30  0.000  0.000  0.003  0.003
   31  0.001  0.000  0.004  0.006
   32  0.000  0.000  0.003  0.003
   33  0.000  0.000  0.003  0.003
   34  0.000  0.000  0.003  0.003
   35  0.000  0.000  0.006  0.006
   36  0.000  0.000  0.003  0.003
   37  0.000  0.000  0.000  0.000
tot    0.113  0.015  0.681  0.810
 
band     9 # energy   -5.07955429 # occ.  2.00000000
 
ion      s      p      d    tot
    1  0.000  0.000  0.003  0.003
    2  0.001  0.001  0.006  0.008
    3  0.000  0.000  0.002  0.003
    4  0.001  0.001  0.006  0.008
    5  0.000  0.000  0.009  0.009
    6  0.000  0.000  0.004  0.004
    7  0.000  0.000  0.003  0.003
    8  0.000  0.000  0.004  0.004
    9  0.000  0.000  0.002  0.002
   10  0.000  0.000  0.086  0.086
   11  0.022  0.001  0.033  0.056
   12  0.004  0.001  0.034  0.039
   13  0.023  0.001  0.031  0.055
   14  0.000  0.001  0.090  0.090
   15  0.007  0.001  0.028  0.035
   16  0.004  0.001  0.036  0.041
   17  0.007  0.001  0.029  0.037
   18  0.000  0.002  0.006  0.008
   19  0.001  0.000  0.019  0.021
   20  0.000  0.001  0.027  0.028
   21  0.007  0.001  0.039  0.047
   22  0.011  0.001  0.015  0.026
   23  0.007  0.001  0.038  0.046
   24  0.000  0.000  0.032  0.032
   25  0.000  0.000  0.036  0.036
   26  0.001  0.000  0.019  0.020
   27  0.011  0.001  0.015  0.027
   28  0.000  0.000  0.001  0.001
   29  0.000  0.000  0.002  0.002
   30  0.001  0.000  0.003  0.005
   31  0.000  0.000  0.002  0.002
   32  0.001  0.000  0.004  0.005
   33  0.001  0.000  0.003  0.005
   34  0.001  0.000  0.004  0.005
   35  0.000  0.000  0.006  0.006
   36  0.000  0.000  0.003  0.003
   37  0.000  0.000  0.000  0.000
tot    0.113  0.015  0.681  0.810
 
band    10 # energy   -5.07349374 # occ.  2.00000000
 
ion      s      p      d    tot
    1  0.003  0.001  0.001  0.005
    2  0.000  0.000  0.006  0.006
    3  0.000  0.000  0.006  0.006
    4  0.000  0.000  0.006  0.006
    5  0.001  0.001  0.010  0.012
    6  0.000  0.000  0.006  0.006
    7  0.000  0.000  0.006  0.006
    8  0.000  0.000  0.006  0.006
    9  0.000  0.000  0.000  0.001
   10  0.010  0.001  0.006  0.017
   11  0.012  0.000  0.069  0.081
   12  0.010  0.001  0.006  0.017
   13  0.012  0.000  0.069  0.081
   14  0.012  0.000  0.069  0.081
   15  0.000  0.000  0.039  0.040
   16  0.010  0.001  0.006  0.017
   17  0.000  0.000  0.039  0.040
   18  0.000  0.000  0.039  0.040
   19  0.007  0.001  0.026  0.034
   20  0.003  0.001  0.035  0.040
   21  0.003  0.001  0.035  0.039
   22  0.000  0.000  0.032  0.032
   23  0.003  0.001  0.035  0.039
   24  0.000  0.000  0.032  0.032
   25  0.007  0.001  0.026  0.034
   26  0.007  0.001  0.026  0.034
   27  0.000  0.000  0.032  0.032
   28  0.002  0.000  0.002  0.004
   29  0.000  0.000  0.003  0.003
   30  0.000  0.000  0.003  0.003
   31  0.000  0.000  0.003  0.003
   32  0.000  0.000  0.003  0.003
   33  0.000  0.000  0.003  0.003
   34  0.000  0.000  0.003  0.003
   35  0.001  0.000  0.003  0.004
   36  0.001  0.000  0.000  0.001
   37  0.000  0.000  0.000  0.000
tot    0.105  0.015  0.691  0.812
 
band    11 # energy   -5.06031080 # occ.  2.00000000
 
ion      s      p      d    tot
    1  0.003  0.001  0.005  0.008
    2  0.000  0.000  0.008  0.008
    3  0.000  0.000  0.008  0.008
    4  0.000  0.000  0.008  0.008
    5  0.004  0.000  0.005  0.009
    6  0.000  0.000  0.008  0.008
    7  0.000  0.000  0.008  0.008
    8  0.000  0.000  0.008  0.008
    9  0.004  0.001  0.008  0.013
   10  0.001  0.000  0.069  0.070
   11  0.003  0.001  0.028  0.031
   12  0.001  0.000  0.069  0.070
   13  0.003  0.001  0.028  0.031
   14  0.003  0.001  0.028  0.031
   15  0.013  0.000  0.016  0.030
   16  0.001  0.000  0.069  0.070
   17  0.013  0.000  0.016  0.030
   18  0.013  0.000  0.016  0.030
   19  0.006  0.000  0.016  0.022
   20  0.006  0.000  0.024  0.030
   21  0.006  0.000  0.024  0.031
   22  0.000  0.000  0.031  0.031
   23  0.006  0.000  0.024  0.031
   24  0.000  0.000  0.031  0.031
   25  0.006  0.000  0.016  0.022
   26  0.006  0.000  0.016  0.022
   27  0.000  0.000  0.031  0.031
   28  0.006  0.001  0.002  0.009
   29  0.000  0.000  0.012  0.012
   30  0.000  0.000  0.012  0.012
   31  0.000  0.000  0.012  0.012
   32  0.000  0.000  0.012  0.012
   33  0.000  0.000  0.012  0.012
   34  0.000  0.000  0.012  0.012
   35  0.000  0.000  0.003  0.003
   36  0.008  0.001  0.001  0.010
   37  0.000  0.000  0.000  0.000
tot    0.114  0.013  0.692  0.820
 
band    12 # energy   -5.04134482 # occ.  2.00000000
 
ion      s      p      d    tot
    1  0.002  0.000  0.009  0.010
    2  0.004  0.000  0.014  0.018
    3  0.004  0.000  0.013  0.018
    4  0.004  0.000  0.014  0.018
    5  0.004  0.000  0.005  0.010
    6  0.004  0.000  0.013  0.018
    7  0.004  0.000  0.013  0.018
    8  0.004  0.000  0.013  0.018
    9  0.007  0.000  0.024  0.031
   10  0.003  0.000  0.019  0.022
   11  0.000  0.000  0.006  0.007
   12  0.003  0.000  0.019  0.022
   13  0.000  0.000  0.006  0.007
   14  0.000  0.000  0.006  0.007
   15  0.003  0.000  0.040  0.044
   16  0.003  0.000  0.019  0.022
   17  0.003  0.000  0.040  0.044
   18  0.003  0.000  0.040  0.043
   19  0.000  0.001  0.004  0.006
   20  0.001  0.000  0.032  0.033
   21  0.001  0.000  0.032  0.033
   22  0.002  0.000  0.037  0.040
   23  0.001  0.000  0.032  0.033
   24  0.002  0.000  0.037  0.040
   25  0.000  0.001  0.004  0.006
   26  0.000  0.001  0.004  0.006
   27  0.002  0.000  0.037  0.040
   28  0.009  0.000  0.004  0.013
   29  0.007  0.000  0.016  0.023
   30  0.007  0.000  0.016  0.023
   31  0.007  0.000  0.016  0.023
   32  0.007  0.000  0.016  0.023
   33  0.007  0.000  0.016  0.023
   34  0.007  0.000  0.016  0.023
   35  0.008  0.000  0.030  0.039
   36  0.001  0.000  0.007  0.008
   37  0.000  0.001  0.000  0.001
tot    0.124  0.008  0.671  0.804
 
band    13 # energy   -5.03358204 # occ.  2.00000000
 
ion      s      p      d    tot
    1  0.000  0.001  0.010  0.011
    2  0.002  0.000  0.005  0.008
    3  0.003  0.001  0.009  0.012
    4  0.000  0.000  0.008  0.008
    5  0.000  0.000  0.009  0.009
    6  0.004  0.001  0.007  0.012
    7  0.000  0.000  0.009  0.010
    8  0.004  0.001  0.005  0.009
    9  0.000  0.000  0.010  0.010
   10  0.002  0.000  0.056  0.059
   11  0.000  0.000  0.024  0.025
   12  0.022  0.000  0.018  0.040
   13  0.001  0.000  0.036  0.037
   14  0.000  0.001  0.014  0.015
   15  0.007  0.000  0.052  0.060
   16  0.011  0.000  0.039  0.050
   17  0.014  0.000  0.012  0.027
   18  0.001  0.000  0.085  0.086
   19  0.002  0.000  0.032  0.034
   20  0.000  0.000  0.020  0.020
   21  0.001  0.001  0.026  0.028
   22  0.011  0.000  0.013  0.025
   23  0.001  0.000  0.022  0.023
   24  0.001  0.000  0.035  0.036
   25  0.000  0.000  0.044  0.044
   26  0.004  0.000  0.018  0.022
   27  0.005  0.000  0.025  0.031
   28  0.000  0.000  0.012  0.012
   29  0.002  0.000  0.004  0.006
   30  0.002  0.001  0.006  0.009
   31  0.004  0.001  0.004  0.009
   32  0.000  0.000  0.006  0.006
   33  0.004  0.001  0.006  0.010
   34  0.000  0.000  0.004  0.005
   35  0.000  0.000  0.004  0.005
   36  0.000  0.000  0.002  0.003
   37  0.000  0.000  0.000  0.000
tot    0.109  0.013  0.692  0.815
 
band    14 # energy   -5.03358079 # occ.  2.00000000
 
ion      s      p      d    tot
    1  0.000  0.001  0.010  0.011
    2  0.002  0.001  0.009  0.012
    3  0.002  0.000  0.005  0.007
    4  0.004  0.001  0.006  0.012
    5  0.000  0.000  0.009  0.009
    6  0.000  0.000  0.007  0.008
    7  0.004  0.001  0.005  0.010
    8  0.000  0.000  0.009  0.010
    9  0.000  0.000  0.010  0.010
   10  0.021  0.000  0.019  0.040
   11  0.000  0.000  0.026  0.026
   12  0.001  0.001  0.058  0.059
   13  0.000  0.001  0.013  0.014
   14  0.001  0.000  0.036  0.036
   15  0.008  0.000  0.047  0.055
   16  0.012  0.000  0.036  0.049
   17  0.001  0.000  0.087  0.088
   18  0.014  0.000  0.015  0.029
   19  0.002  0.000  0.030  0.033
   20  0.001  0.001  0.025  0.027
   21  0.000  0.000  0.019  0.020
   22  0.001  0.000  0.036  0.037
   23  0.001  0.000  0.023  0.024
   24  0.011  0.000  0.014  0.025
   25  0.004  0.000  0.019  0.023
   26  0.000  0.000  0.045  0.045
   27  0.006  0.000  0.024  0.030
   28  0.000  0.000  0.012  0.012
   29  0.002  0.001  0.006  0.009
   30  0.002  0.000  0.004  0.006
   31  0.000  0.000  0.006  0.006
   32  0.004  0.001  0.004  0.009
   33  0.000  0.000  0.004  0.005
   34  0.004  0.001  0.006  0.010
   35  0.000  0.000  0.004  0.005
   36  0.000  0.000  0.002  0.003
   37  0.000  0.000  0.000  0.000
tot    0.109  0.013  0.692  0.815
 
band    15 # energy   -5.02294519 # occ.  2.00000000
 
ion      s      p      d    tot
    1  0.000  0.000  0.007  0.007
    2  0.001  0.000  0.008  0.008
    3  0.000  0.000  0.007  0.008
    4  0.001  0.000  0.007  0.008
    5  0.000  0.000  0.003  0.004
    6  0.002  0.000  0.005  0.007
    7  0.000  0.000  0.007  0.007
    8  0.002  0.000  0.005  0.007
    9  0.000  0.000  0.016  0.016
   10  0.000  0.000  0.045  0.045
   11  0.001  0.000  0.053  0.054
   12  0.000  0.000  0.015  0.015
   13  0.001  0.000  0.049  0.050
   14  0.003  0.000  0.010  0.013
   15  0.001  0.000  0.057  0.058
   16  0.000  0.000  0.012  0.012
   17  0.002  0.000  0.054  0.056
   18  0.006  0.000  0.028  0.034
   19  0.001  0.000  0.070  0.071
   20  0.000  0.000  0.047  0.047
   21  0.000  0.000  0.022  0.022
   22  0.002  0.000  0.046  0.048
   23  0.000  0.000  0.019  0.019
   24  0.007  0.000  0.037  0.044
   25  0.005  0.000  0.005  0.010
   26  0.002  0.000  0.064  0.066
   27  0.001  0.000  0.048  0.049
   28  0.000  0.000  0.007  0.007
   29  0.001  0.000  0.007  0.008
   30  0.002  0.000  0.003  0.005
   31  0.001  0.000  0.007  0.008
   32  0.000  0.000  0.009  0.009
   33  0.002  0.000  0.003  0.005
   34  0.000  0.000  0.009  0.009
   35  0.000  0.000  0.013  0.013
   36  0.000  0.000  0.001  0.001
   37  0.000  0.000  0.000  0.000
tot    0.042  0.006  0.802  0.851
 
band    16 # energy   -5.02292914 # occ.  2.00000000
 
ion      s      p      d    tot
    1  0.000  0.000  0.007  0.007
    2  0.001  0.000  0.005  0.006
    3  0.002  0.000  0.006  0.007
    4  0.001  0.000  0.005  0.007
    5  0.000  0.000  0.003  0.004
    6  0.000  0.000  0.008  0.009
    7  0.002  0.000  0.006  0.008
    8  0.000  0.000  0.008  0.009
    9  0.000  0.000  0.016  0.016
   10  0.000  0.000  0.005  0.006
   11  0.003  0.000  0.022  0.025
   12  0.000  0.000  0.032  0.032
   13  0.002  0.000  0.026  0.029
   14  0.000  0.000  0.065  0.065
   15  0.005  0.000  0.035  0.039
   16  0.000  0.000  0.034  0.034
   17  0.004  0.000  0.038  0.042
   18  0.000  0.000  0.066  0.066
   19  0.004  0.000  0.024  0.029
   20  0.000  0.000  0.012  0.012
   21  0.000  0.000  0.037  0.037
   22  0.005  0.000  0.040  0.045
   23  0.000  0.000  0.040  0.040
   24  0.000  0.000  0.054  0.054
   25  0.000  0.000  0.085  0.085
   26  0.004  0.000  0.029  0.033
   27  0.005  0.000  0.037  0.042
   28  0.000  0.000  0.006  0.007
   29  0.001  0.000  0.005  0.006
   30  0.000  0.000  0.009  0.009
   31  0.001  0.000  0.005  0.006
   32  0.001  0.000  0.004  0.006
   33  0.000  0.000  0.009  0.009
   34  0.002  0.000  0.005  0.006
   35  0.000  0.000  0.013  0.013
   36  0.000  0.000  0.001  0.001
   37  0.000  0.000  0.000  0.000
tot    0.042  0.006  0.803  0.851
 
band    17 # energy   -5.02290034 # occ.  2.00000000
 
ion      s      p      d    tot
    1  0.008  0.000  0.012  0.021
    2  0.002  0.000  0.011  0.013
    3  0.002  0.000  0.011  0.013
    4  0.002  0.000  0.011  0.013
    5  0.000  0.000  0.010  0.010
    6  0.002  0.000  0.011  0.013
    7  0.002  0.000  0.011  0.013
    8  0.002  0.000  0.011  0.013
    9  0.001  0.000  0.000  0.001
   10  0.000  0.000  0.034  0.034
   11  0.005  0.000  0.010  0.015
   12  0.000  0.000  0.038  0.038
   13  0.005  0.000  0.010  0.015
   14  0.006  0.000  0.010  0.016
   15  0.000  0.000  0.031  0.032
   16  0.000  0.000  0.038  0.039
   17  0.000  0.000  0.031  0.031
   18  0.000  0.000  0.029  0.030
   19  0.003  0.000  0.049  0.052
   20  0.000  0.001  0.007  0.008
   21  0.000  0.001  0.007  0.008
   22  0.001  0.000  0.036  0.037
   23  0.000  0.001  0.007  0.008
   24  0.000  0.000  0.031  0.031
   25  0.004  0.000  0.052  0.057
   26  0.003  0.000  0.049  0.053
   27  0.001  0.000  0.037  0.038
   28  0.005  0.000  0.033  0.038
   29  0.005  0.000  0.016  0.021
   30  0.004  0.000  0.016  0.020
   31  0.005  0.000  0.016  0.020
   32  0.004  0.000  0.015  0.019
   33  0.004  0.000  0.016  0.020
   34  0.004  0.000  0.015  0.019
   35  0.001  0.000  0.004  0.005
   36  0.009  0.001  0.002  0.011
   37  0.000  0.000  0.000  0.000
tot    0.093  0.008  0.726  0.827
 
band    18 # energy   -4.90365215 # occ.  2.00000000
 
ion      s      p      d    tot
    1  0.000  0.000  0.001  0.001
    2  0.001  0.001  0.007  0.008
    3  0.000  0.000  0.007  0.007
    4  0.001  0.001  0.007  0.008
    5  0.000  0.001  0.015  0.016
    6  0.001  0.000  0.005  0.006
    7  0.000  0.000  0.007  0.007
    8  0.001  0.000  0.005  0.006
    9  0.000  0.000  0.008  0.009
   10  0.001  0.001  0.024  0.025
   11  0.001  0.000  0.071  0.072
   12  0.000  0.000  0.016  0.016
   13  0.001  0.000  0.072  0.073
   14  0.003  0.000  0.045  0.048
   15  0.001  0.000  0.015  0.016
   16  0.000  0.000  0.016  0.017
   17  0.001  0.000  0.015  0.015
   18  0.002  0.001  0.027  0.030
   19  0.000  0.000  0.007  0.008
   20  0.003  0.000  0.074  0.076
   21  0.001  0.000  0.104  0.105
   22  0.000  0.000  0.034  0.034
   23  0.001  0.000  0.103  0.104
   24  0.000  0.001  0.022  0.023
   25  0.001  0.001  0.026  0.028
   26  0.000  0.000  0.007  0.007
   27  0.000  0.000  0.033  0.033
   28  0.000  0.000  0.004  0.004
   29  0.000  0.000  0.006  0.007
   30  0.000  0.000  0.008  0.009
   31  0.000  0.000  0.006  0.007
   32  0.001  0.001  0.008  0.011
   33  0.000  0.000  0.008  0.009
   34  0.001  0.001  0.008  0.011
   35  0.000  0.000  0.000  0.001
   36  0.000  0.001  0.012  0.014
   37  0.000  0.001  0.000  0.001
tot    0.021  0.016  0.833  0.870
 
band    19 # energy   -4.90364109 # occ.  2.00000000
 
ion      s      p      d    tot
    1  0.000  0.000  0.001  0.001
    2  0.000  0.000  0.006  0.006
    3  0.001  0.001  0.005  0.007
    4  0.000  0.000  0.006  0.006
    5  0.000  0.001  0.015  0.016
    6  0.000  0.000  0.007  0.008
    7  0.001  0.001  0.005  0.007
    8  0.000  0.000  0.007  0.008
    9  0.000  0.000  0.008  0.009
   10  0.000  0.000  0.013  0.014
   11  0.002  0.000  0.055  0.057
   12  0.000  0.001  0.021  0.023
   13  0.002  0.000  0.054  0.056
   14  0.000  0.000  0.080  0.080
   15  0.002  0.000  0.023  0.025
   16  0.000  0.001  0.021  0.022
   17  0.002  0.000  0.023  0.025
   18  0.000  0.000  0.011  0.011
   19  0.001  0.001  0.019  0.020
   20  0.000  0.000  0.113  0.114
   21  0.002  0.000  0.083  0.085
   22  0.000  0.001  0.026  0.026
   23  0.002  0.000  0.084  0.086
   24  0.000  0.000  0.037  0.037
   25  0.000  0.000  0.001  0.001
   26  0.001  0.001  0.020  0.021
   27  0.000  0.001  0.026  0.027
   28  0.000  0.000  0.004  0.004
   29  0.001  0.001  0.009  0.011
   30  0.001  0.001  0.007  0.008
   31  0.001  0.001  0.009  0.011
   32  0.000  0.000  0.007  0.007
   33  0.001  0.001  0.007  0.009
   34  0.000  0.000  0.007  0.007
   35  0.000  0.000  0.000  0.001
   36  0.000  0.001  0.012  0.014
   37  0.000  0.001  0.000  0.001
tot    0.021  0.016  0.833  0.870
 
band    20 # energy   -4.90052469 # occ.  2.00000000
 
ion      s      p      d    tot
    1  0.000  0.000  0.000  0.000
    2  0.000  0.000  0.004  0.004
    3  0.000  0.000  0.004  0.004
    4  0.000  0.000  0.004  0.004
    5  0.001  0.001  0.014  0.016
    6  0.000  0.000  0.004  0.004
    7  0.000  0.000  0.004  0.004
    8  0.000  0.000  0.004  0.004
    9  0.001  0.001  0.008  0.009
   10  0.000  0.000  0.010  0.010
   11  0.000  0.001  0.080  0.081
   12  0.000  0.000  0.010  0.010
   13  0.000  0.001  0.080  0.081
   14  0.000  0.001  0.080  0.081
   15  0.000  0.001  0.038  0.039
   16  0.000  0.000  0.010  0.010
   17  0.000  0.001  0.038  0.039
   18  0.000  0.001  0.038  0.039
   19  0.001  0.000  0.014  0.015
   20  0.002  0.001  0.066  0.068
   21  0.002  0.001  0.066  0.068
   22  0.003  0.000  0.023  0.026
   23  0.002  0.001  0.066  0.068
   24  0.003  0.000  0.023  0.026
   25  0.001  0.000  0.014  0.015
   26  0.001  0.000  0.014  0.015
   27  0.003  0.000  0.023  0.026
   28  0.003  0.001  0.001  0.005
   29  0.000  0.001  0.013  0.013
   30  0.000  0.001  0.013  0.013
   31  0.000  0.001  0.013  0.013
   32  0.000  0.001  0.013  0.013
   33  0.000  0.001  0.013  0.013
   34  0.000  0.001  0.013  0.013
   35  0.005  0.001  0.002  0.007
   36  0.001  0.001  0.003  0.005
   37  0.001  0.001  0.000  0.002
tot    0.028  0.015  0.824  0.866
 
band    21 # energy   -4.86088418 # occ.  2.00000000
 
ion      s      p      d    tot
    1  0.001  0.000  0.005  0.005
    2  0.000  0.001  0.012  0.013
    3  0.000  0.001  0.012  0.013
    4  0.000  0.001  0.012  0.013
    5  0.005  0.001  0.000  0.005
    6  0.000  0.001  0.012  0.013
    7  0.000  0.001  0.012  0.013
    8  0.000  0.001  0.012  0.013
    9  0.002  0.000  0.003  0.005
   10  0.002  0.001  0.052  0.054
   11  0.000  0.000  0.021  0.022
   12  0.002  0.001  0.052  0.055
   13  0.000  0.000  0.021  0.022
   14  0.000  0.000  0.021  0.022
   15  0.003  0.000  0.025  0.028
   16  0.002  0.001  0.052  0.055
   17  0.003  0.000  0.025  0.028
   18  0.003  0.000  0.025  0.028
   19  0.001  0.000  0.054  0.056
   20  0.001  0.000  0.015  0.016
   21  0.001  0.000  0.015  0.016
   22  0.001  0.001  0.044  0.045
   23  0.001  0.000  0.015  0.016
   24  0.001  0.001  0.044  0.045
   25  0.001  0.000  0.054  0.056
   26  0.001  0.000  0.054  0.056
   27  0.001  0.001  0.044  0.045
   28  0.001  0.000  0.016  0.016
   29  0.000  0.000  0.011  0.011
   30  0.000  0.000  0.011  0.011
   31  0.000  0.000  0.011  0.011
   32  0.000  0.000  0.011  0.011
   33  0.000  0.000  0.011  0.011
   34  0.000  0.000  0.011  0.011
   35  0.003  0.001  0.003  0.007
   36  0.003  0.001  0.000  0.004