PROCAR new format
# of k-points:   10         # of bands:  252         # of ions:   38

 k-point     1 :    0.00000000 0.00000000 0.00000000     weight = 0.01562500

band     1 # energy  -22.40601191 # occ.  2.00000000
 
ion      s      p      d    tot
    1  0.000  0.000  0.000  0.000
    2  0.000  0.000  0.000  0.000
    3  0.000  0.000  0.000  0.000
    4  0.000  0.000  0.000  0.000
    5  0.000  0.000  0.000  0.000
    6  0.000  0.000  0.000  0.000
    7  0.000  0.000  0.000  0.000
    8  0.000  0.000  0.000  0.000
    9  0.000  0.000  0.000  0.000
   10  0.000  0.000  0.000  0.000
   11  0.000  0.000  0.000  0.000
   12  0.000  0.000  0.000  0.000
   13  0.000  0.000  0.000  0.000
   14  0.000  0.000  0.000  0.000
   15  0.000  0.000  0.000  0.000
   16  0.000  0.000  0.000  0.000
   17  0.000  0.000  0.000  0.000
   18  0.000  0.000  0.000  0.000
   19  0.000  0.000  0.000  0.000
   20  0.000  0.000  0.000  0.000
   21  0.000  0.000  0.000  0.000
   22  0.000  0.000  0.000  0.000
   23  0.000  0.000  0.000  0.000
   24  0.000  0.000  0.000  0.000
   25  0.000  0.000  0.000  0.000
   26  0.000  0.000  0.000  0.000
   27  0.000  0.000  0.000  0.000
   28  0.000  0.000  0.000  0.000
   29  0.000  0.000  0.000  0.000
   30  0.000  0.000  0.000  0.000
   31  0.000  0.000  0.000  0.000
   32  0.000  0.000  0.000  0.000
   33  0.000  0.000  0.000  0.000
   34  0.000  0.000  0.000  0.000
   35  0.000  0.000  0.000  0.000
   36  0.000  0.000  0.000  0.001
   37  0.157  0.113  0.000  0.270
   38  0.637  0.093  0.000  0.730
tot    0.794  0.206  0.000  1.000
 
band     2 # energy   -8.41245480 # occ.  2.00000000
 
ion      s      p      d    tot
    1  0.000  0.000  0.000  0.000
    2  0.000  0.000  0.000  0.000
    3  0.000  0.000  0.000  0.000
    4  0.000  0.000  0.000  0.000
    5  0.000  0.000  0.000  0.000
    6  0.000  0.000  0.000  0.000
    7  0.000  0.000  0.000  0.000
    8  0.000  0.000  0.000  0.000
    9  0.000  0.000  0.000  0.000
   10  0.000  0.000  0.000  0.000
   11  0.000  0.000  0.000  0.000
   12  0.000  0.000  0.000  0.000
   13  0.000  0.000  0.000  0.000
   14  0.000  0.000  0.000  0.000
   15  0.000  0.000  0.000  0.000
   16  0.000  0.000  0.000  0.000
   17  0.000  0.000  0.000  0.000
   18  0.000  0.000  0.000  0.000
   19  0.000  0.000  0.000  0.000
   20  0.001  0.000  0.001  0.001
   21  0.001  0.000  0.001  0.001
   22  0.000  0.000  0.000  0.000
   23  0.001  0.000  0.001  0.001
   24  0.000  0.000  0.000  0.000
   25  0.000  0.000  0.000  0.000
   26  0.000  0.000  0.000  0.000
   27  0.000  0.000  0.000  0.000
   28  0.000  0.000  0.000  0.000
   29  0.000  0.000  0.000  0.001
   30  0.000  0.000  0.000  0.001
   31  0.000  0.000  0.000  0.001
   32  0.000  0.000  0.000  0.001
   33  0.000  0.000  0.000  0.001
   34  0.000  0.000  0.000  0.001
   35  0.000  0.000  0.000  0.000
   36  0.045  0.035  0.106  0.186
   37  0.293  0.014  0.000  0.307
   38  0.130  0.175  0.000  0.304
tot    0.472  0.225  0.111  0.808
 
band     3 # energy   -6.26041573 # occ.  2.00000000
 
ion      s      p      d    tot
    1  0.005  0.001  0.000  0.006
    2  0.005  0.000  0.000  0.006
    3  0.005  0.000  0.000  0.006
    4  0.005  0.000  0.000  0.006
    5  0.005  0.000  0.000  0.005
    6  0.005  0.000  0.000  0.006
    7  0.005  0.000  0.000  0.006
    8  0.005  0.000  0.000  0.006
    9  0.005  0.000  0.000  0.005
   10  0.021  0.000  0.000  0.021
   11  0.020  0.000  0.000  0.021
   12  0.021  0.000  0.000  0.021
   13  0.020  0.000  0.000  0.021
   14  0.020  0.000  0.000  0.021
   15  0.020  0.000  0.000  0.020
   16  0.021  0.000  0.000  0.021
   17  0.020  0.000  0.000  0.020
   18  0.020  0.000  0.000  0.020
   19  0.020  0.000  0.000  0.021
   20  0.024  0.000  0.001  0.025
   21  0.024  0.000  0.001  0.025
   22  0.020  0.000  0.000  0.021
   23  0.024  0.000  0.001  0.025
   24  0.020  0.000  0.000  0.021
   25  0.020  0.000  0.000  0.021
   26  0.021  0.000  0.000  0.021
   27  0.020  0.000  0.000  0.021
   28  0.005  0.001  0.000  0.006
   29  0.005  0.000  0.000  0.006
   30  0.005  0.000  0.000  0.006
   31  0.005  0.000  0.000  0.006
   32  0.005  0.000  0.000  0.006
   33  0.005  0.000  0.000  0.006
   34  0.005  0.000  0.000  0.006
   35  0.005  0.001  0.000  0.006
   36  0.015  0.000  0.010  0.026
   37  0.000  0.022  0.000  0.022
   38  0.007  0.047  0.000  0.054
tot    0.485  0.079  0.017  0.582
 
band     4 # energy   -5.89031400 # occ.  2.00000000
 
ion      s      p      d    tot
    1  0.002  0.000  0.000  0.002
    2  0.002  0.000  0.000  0.002
    3  0.002  0.000  0.000  0.002
    4  0.002  0.000  0.000  0.002
    5  0.002  0.000  0.000  0.002
    6  0.002  0.000  0.000  0.002
    7  0.002  0.000  0.000  0.002
    8  0.002  0.000  0.000  0.002
    9  0.002  0.000  0.000  0.003
   10  0.005  0.000  0.001  0.006
   11  0.006  0.000  0.000  0.006
   12  0.005  0.000  0.001  0.006
   13  0.006  0.000  0.000  0.006
   14  0.006  0.000  0.000  0.006
   15  0.006  0.000  0.000  0.007
   16  0.005  0.000  0.001  0.006
   17  0.006  0.000  0.000  0.007
   18  0.006  0.000  0.000  0.007
   19  0.001  0.000  0.001  0.002
   20  0.000  0.001  0.009  0.011
   21  0.000  0.001  0.009  0.011
   22  0.002  0.000  0.000  0.002
   23  0.000  0.001  0.009  0.011
   24  0.002  0.000  0.000  0.002
   25  0.001  0.000  0.001  0.002
   26  0.001  0.000  0.001  0.002
   27  0.002  0.000  0.000  0.002
   28  0.000  0.000  0.000  0.000
   29  0.000  0.000  0.001  0.001
   30  0.000  0.000  0.001  0.001
   31  0.000  0.000  0.001  0.001
   32  0.000  0.000  0.001  0.001
   33  0.000  0.000  0.001  0.001
   34  0.000  0.000  0.001  0.001
   35  0.000  0.000  0.000  0.000
   36  0.042  0.019  0.147  0.209
   37  0.007  0.188  0.000  0.195
   38  0.031  0.288  0.000  0.319
tot    0.159  0.503  0.190  0.852
 
band     5 # energy   -5.44550597 # occ.  2.00000000
 
ion      s      p      d    tot
    1  0.000  0.000  0.000  0.000
    2  0.000  0.000  0.000  0.000
    3  0.000  0.000  0.000  0.000
    4  0.000  0.000  0.000  0.000
    5  0.000  0.000  0.000  0.000
    6  0.000  0.000  0.000  0.000
    7  0.000  0.000  0.000  0.000
    8  0.000  0.000  0.000  0.000
    9  0.000  0.000  0.000  0.000
   10  0.000  0.000  0.000  0.000
   11  0.000  0.000  0.000  0.000
   12  0.000  0.000  0.000  0.000
   13  0.000  0.000  0.000  0.000
   14  0.000  0.000  0.000  0.000
   15  0.000  0.000  0.000  0.000
   16  0.000  0.000  0.000  0.000
   17  0.000  0.000  0.000  0.000
   18  0.000  0.000  0.000  0.000
   19  0.000  0.000  0.001  0.001
   20  0.000  0.000  0.002  0.002
   21  0.000  0.000  0.001  0.002
   22  0.000  0.000  0.000  0.000
   23  0.000  0.000  0.001  0.002
   24  0.000  0.000  0.000  0.000
   25  0.000  0.000  0.000  0.000
   26  0.000  0.000  0.001  0.001
   27  0.000  0.000  0.000  0.000
   28  0.000  0.000  0.000  0.000
   29  0.001  0.000  0.003  0.004
   30  0.000  0.000  0.001  0.001
   31  0.001  0.000  0.003  0.004
   32  0.001  0.000  0.003  0.004
   33  0.000  0.000  0.001  0.001
   34  0.001  0.000  0.003  0.004
   35  0.000  0.000  0.000  0.000
   36  0.000  0.003  0.047  0.050
   37  0.000  0.179  0.000  0.179
   38  0.000  0.420  0.000  0.420
tot    0.004  0.604  0.070  0.677
 
band     6 # energy   -5.44539328 # occ.  2.00000000
 
ion      s      p      d    tot
    1  0.000  0.000  0.000  0.000
    2  0.000  0.000  0.000  0.000
    3  0.000  0.000  0.000  0.000
    4  0.000  0.000  0.000  0.000
    5  0.000  0.000  0.000  0.000
    6  0.000  0.000  0.000  0.000
    7  0.000  0.000  0.000  0.000
    8  0.000  0.000  0.000  0.000
    9  0.000  0.000  0.000  0.000
   10  0.000  0.000  0.000  0.000
   11  0.000  0.000  0.000  0.000
   12  0.000  0.000  0.000  0.000
   13  0.000  0.000  0.000  0.000
   14  0.000  0.000  0.000  0.000
   15  0.000  0.000  0.000  0.000
   16  0.000  0.000  0.000  0.000
   17  0.000  0.000  0.000  0.000
   18  0.000  0.000  0.000  0.000
   19  0.000  0.000  0.000  0.000
   20  0.000  0.000  0.001  0.001
   21  0.000  0.000  0.002  0.002
   22  0.000  0.000  0.000  0.000
   23  0.000  0.000  0.002  0.002
   24  0.000  0.000  0.000  0.000
   25  0.000  0.000  0.001  0.001
   26  0.000  0.000  0.000  0.000
   27  0.000  0.000  0.000  0.000
   28  0.000  0.000  0.000  0.000
   29  0.000  0.000  0.002  0.002
   30  0.001  0.000  0.004  0.005
   31  0.000  0.000  0.002  0.002
   32  0.000  0.000  0.002  0.002
   33  0.001  0.000  0.004  0.005
   34  0.000  0.000  0.002  0.002
   35  0.000  0.000  0.000  0.000
   36  0.000  0.003  0.047  0.050
   37  0.000  0.179  0.000  0.179
   38  0.000  0.420  0.000  0.420
tot    0.004  0.604  0.070  0.677
 
band     7 # energy   -5.32506515 # occ.  2.00000000
 
ion      s      p      d    tot
    1  0.008  0.000  0.000  0.008
    2  0.006  0.000  0.000  0.007
    3  0.006  0.000  0.000  0.007
    4  0.006  0.000  0.000  0.007
    5  0.006  0.000  0.000  0.006
    6  0.006  0.000  0.000  0.007
    7  0.006  0.000  0.000  0.007
    8  0.006  0.000  0.000  0.007
    9  0.006  0.000  0.000  0.006
   10  0.010  0.001  0.014  0.025
   11  0.008  0.001  0.017  0.026
   12  0.010  0.001  0.014  0.025
   13  0.008  0.001  0.017  0.026
   14  0.008  0.001  0.017  0.026
   15  0.007  0.001  0.017  0.025
   16  0.010  0.001  0.014  0.025
   17  0.007  0.001  0.017  0.025
   18  0.007  0.001  0.017  0.025
   19  0.014  0.001  0.020  0.035
   20  0.010  0.001  0.023  0.033
   21  0.010  0.001  0.023  0.033
   22  0.016  0.001  0.019  0.036
   23  0.010  0.001  0.023  0.033
   24  0.016  0.001  0.019  0.036
   25  0.014  0.001  0.020  0.035
   26  0.014  0.001  0.020  0.035
   27  0.016  0.001  0.019  0.036
   28  0.007  0.001  0.000  0.007
   29  0.005  0.001  0.000  0.006
   30  0.005  0.001  0.000  0.006
   31  0.005  0.001  0.000  0.006
   32  0.005  0.001  0.000  0.006
   33  0.005  0.001  0.000  0.006
   34  0.005  0.001  0.000  0.006
   35  0.007  0.001  0.000  0.008
   36  0.000  0.003  0.011  0.014
   37  0.002  0.008  0.000  0.010
   38  0.001  0.008  0.000  0.008
tot    0.301  0.041  0.343  0.686
 
band     8 # energy   -5.07299888 # occ.  2.00000000
 
ion      s      p      d    tot
    1  0.019  0.000  0.027  0.046
    2  0.016  0.000  0.026  0.042
    3  0.016  0.000  0.026  0.042
    4  0.016  0.000  0.026  0.042
    5  0.015  0.000  0.025  0.040
    6  0.016  0.000  0.026  0.042
    7  0.016  0.000  0.026  0.042
    8  0.016  0.000  0.026  0.042
    9  0.016  0.000  0.027  0.043
   10  0.000  0.001  0.024  0.025
   11  0.001  0.001  0.019  0.020
   12  0.000  0.001  0.024  0.025
   13  0.001  0.001  0.019  0.020
   14  0.001  0.001  0.019  0.020
   15  0.001  0.001  0.019  0.021
   16  0.000  0.001  0.024  0.025
   17  0.001  0.001  0.019  0.021
   18  0.001  0.001  0.019  0.021
   19  0.000  0.000  0.007  0.008
   20  0.000  0.000  0.009  0.009
   21  0.000  0.000  0.009  0.009
   22  0.000  0.000  0.008  0.009
   23  0.000  0.000  0.009  0.009
   24  0.000  0.000  0.008  0.009
   25  0.000  0.000  0.007  0.008
   26  0.000  0.000  0.007  0.008
   27  0.000  0.000  0.008  0.009
   28  0.006  0.000  0.005  0.012
   29  0.005  0.000  0.006  0.011
   30  0.005  0.000  0.006  0.011
   31  0.005  0.000  0.006  0.011
   32  0.005  0.000  0.006  0.011
   33  0.005  0.000  0.006  0.011
   34  0.005  0.000  0.006  0.011
   35  0.007  0.000  0.006  0.013
   36  0.002  0.000  0.007  0.008
   37  0.000  0.000  0.000  0.000
   38  0.000  0.000  0.000  0.000
tot    0.202  0.007  0.548  0.758
 
band     9 # energy   -4.95127537 # occ.  2.00000000
 
ion      s      p      d    tot
    1  0.000  0.000  0.003  0.003
    2  0.000  0.000  0.003  0.003
    3  0.002  0.001  0.006  0.008
    4  0.000  0.000  0.004  0.004
    5  0.000  0.000  0.009  0.009
    6  0.002  0.001  0.005  0.007
    7  0.001  0.000  0.004  0.005
    8  0.000  0.000  0.002  0.003
    9  0.000  0.000  0.003  0.003
   10  0.003  0.001  0.028  0.032
   11  0.021  0.001  0.028  0.050
   12  0.000  0.000  0.074  0.074
   13  0.000  0.001  0.069  0.070
   14  0.020  0.001  0.023  0.044
   15  0.007  0.001  0.025  0.032
   16  0.004  0.000  0.032  0.036
   17  0.000  0.002  0.010  0.012
   18  0.007  0.000  0.036  0.044
   19  0.001  0.000  0.028  0.030
   20  0.011  0.001  0.028  0.039
   21  0.000  0.001  0.016  0.017
   22  0.000  0.000  0.061  0.062
   23  0.008  0.001  0.026  0.034
   24  0.017  0.001  0.018  0.036
   25  0.001  0.000  0.022  0.023
   26  0.000  0.001  0.046  0.047
   27  0.015  0.001  0.024  0.040
   28  0.000  0.000  0.001  0.001
   29  0.001  0.000  0.004  0.006
   30  0.000  0.000  0.002  0.002
   31  0.001  0.000  0.004  0.005
   32  0.000  0.000  0.002  0.002
   33  0.001  0.000  0.003  0.004
   34  0.001  0.000  0.003  0.005
   35  0.000  0.000  0.008  0.008
   36  0.000  0.000  0.001  0.002
   37  0.000  0.000  0.000  0.000
   38  0.000  0.000  0.000  0.000
tot    0.125  0.017  0.661  0.803
 
band    10 # energy   -4.95126802 # occ.  2.00000000
 
ion      s      p      d    tot
    1  0.000  0.000  0.003  0.003
    2  0.001  0.000  0.005  0.007
    3  0.000  0.000  0.002  0.002
    4  0.001  0.001  0.005  0.006
    5  0.000  0.000  0.009  0.009
    6  0.000  0.000  0.003  0.003
    7  0.001  0.000  0.004  0.006
    8  0.001  0.000  0.005  0.007
    9  0.000  0.000  0.003  0.003
   10  0.001  0.000  0.063  0.065
   11  0.008  0.001  0.051  0.060
   12  0.005  0.000  0.015  0.020
   13  0.029  0.001  0.011  0.040
   14  0.005  0.001  0.059  0.064
   15  0.003  0.001  0.020  0.024
   16  0.001  0.000  0.056  0.058
   17  0.010  0.000  0.035  0.045
   18  0.002  0.001  0.016  0.019
   19  0.000  0.000  0.037  0.038
   20  0.003  0.001  0.018  0.022
   21  0.012  0.000  0.030  0.043
   22  0.021  0.001  0.007  0.030
   23  0.004  0.001  0.020  0.026
   24  0.004  0.000  0.052  0.056
   25  0.000  0.000  0.041  0.041
   26  0.001  0.000  0.019  0.020
   27  0.007  0.000  0.045  0.052
   28  0.000  0.000  0.001  0.001
   29  0.000  0.000  0.002  0.002
   30  0.001  0.000  0.004  0.006
   31  0.000  0.000  0.002  0.003
   32  0.001  0.000  0.004  0.006
   33  0.001  0.000  0.003  0.004
   34  0.000  0.000  0.003  0.003
   35  0.000  0.000  0.008  0.008
   36  0.000  0.000  0.001  0.002
   37  0.000  0.000  0.000  0.000
   38  0.000  0.000  0.000  0.000
tot    0.125  0.017  0.661  0.803
 
band    11 # energy   -4.95085728 # occ.  2.00000000
 
ion      s      p      d    tot
    1  0.000  0.000  0.001  0.001
    2  0.000  0.000  0.006  0.006
    3  0.000  0.000  0.005  0.006
    4  0.000  0.000  0.006  0.006
    5  0.003  0.001  0.004  0.008
    6  0.000  0.000  0.006  0.007
    7  0.000  0.000  0.006  0.006
    8  0.000  0.000  0.006  0.007
    9  0.004  0.001  0.005  0.010
   10  0.003  0.001  0.019  0.023
   11  0.015  0.001  0.019  0.035
   12  0.003  0.001  0.022  0.025
   13  0.015  0.001  0.019  0.035
   14  0.019  0.001  0.016  0.036
   15  0.004  0.000  0.070  0.075
   16  0.003  0.001  0.022  0.025
   17  0.004  0.000  0.070  0.074
   18  0.006  0.000  0.063  0.068
   19  0.007  0.000  0.036  0.044
   20  0.008  0.001  0.009  0.018
   21  0.010  0.001  0.008  0.019
   22  0.000  0.000  0.037  0.038
   23  0.010  0.001  0.008  0.020
   24  0.000  0.000  0.037  0.037
   25  0.008  0.000  0.039  0.047
   26  0.007  0.000  0.037  0.044
   27  0.000  0.000  0.037  0.038
   28  0.005  0.001  0.003  0.009
   29  0.000  0.000  0.004  0.004
   30  0.000  0.000  0.005  0.005
   31  0.000  0.000  0.004  0.004
   32  0.000  0.000  0.004  0.005
   33  0.000  0.000  0.005  0.005
   34  0.000  0.000  0.004  0.005
   35  0.001  0.000  0.004  0.005
   36  0.000  0.001  0.000  0.001
   37  0.000  0.000  0.000  0.000
   38  0.000  0.000  0.000  0.000
tot    0.135  0.018  0.646  0.799
 
band    12 # energy   -4.94661523 # occ.  2.00000000
 
ion      s      p      d    tot
    1  0.000  0.000  0.008  0.008
    2  0.001  0.000  0.005  0.007
    3  0.000  0.000  0.003  0.003
    4  0.001  0.001  0.004  0.006
    5  0.000  0.000  0.000  0.000
    6  0.000  0.000  0.003  0.003
    7  0.001  0.001  0.004  0.006
    8  0.001  0.000  0.005  0.007
    9  0.000  0.000  0.007  0.007
   10  0.018  0.001  0.028  0.046
   11  0.000  0.000  0.031  0.032
   12  0.000  0.001  0.027  0.029
   13  0.000  0.001  0.032  0.033
   14  0.000  0.000  0.031  0.032
   15  0.013  0.001  0.029  0.043
   16  0.017  0.001  0.028  0.045
   17  0.000  0.000  0.094  0.094
   18  0.014  0.001  0.025  0.039
   19  0.015  0.001  0.023  0.039
   20  0.008  0.001  0.021  0.030
   21  0.000  0.000  0.067  0.067
   22  0.000  0.001  0.022  0.024
   23  0.008  0.001  0.024  0.032
   24  0.001  0.000  0.029  0.031
   25  0.016  0.001  0.022  0.039
   26  0.000  0.001  0.033  0.034
   27  0.001  0.000  0.029  0.030
   28  0.000  0.000  0.007  0.007
   29  0.000  0.000  0.002  0.002
   30  0.001  0.000  0.004  0.005
   31  0.000  0.000  0.003  0.003
   32  0.001  0.000  0.004  0.005
   33  0.000  0.000  0.003  0.004
   34  0.000  0.000  0.002  0.002
   35  0.000  0.000  0.001  0.001
   36  0.000  0.000  0.001  0.001
   37  0.000  0.001  0.000  0.001
   38  0.000  0.004  0.000  0.004
tot    0.121  0.021  0.661  0.803
 
band    13 # energy   -4.94661047 # occ.  2.00000000
 
ion      s      p      d    tot
    1  0.000  0.000  0.008  0.008
    2  0.000  0.000  0.003  0.003
    3  0.002  0.001  0.006  0.008
    4  0.000  0.000  0.004  0.004
    5  0.000  0.000  0.000  0.000
    6  0.002  0.001  0.005  0.008
    7  0.001  0.000  0.004  0.005
    8  0.000  0.000  0.003  0.004
    9  0.000  0.000  0.007  0.007
   10  0.005  0.001  0.027  0.034
   11  0.000  0.001  0.032  0.033
   12  0.023  0.001  0.028  0.052
   13  0.000  0.000  0.031  0.032
   14  0.000  0.001  0.032  0.033
   15  0.005  0.000  0.070  0.075
   16  0.006  0.001  0.027  0.035
   17  0.018  0.001  0.004  0.023
   18  0.004  0.000  0.074  0.078
   19  0.006  0.001  0.029  0.036
   20  0.002  0.000  0.054  0.057
   21  0.011  0.001  0.008  0.019
   22  0.002  0.000  0.031  0.033
   23  0.003  0.000  0.051  0.054
   24  0.000  0.001  0.024  0.026
   25  0.005  0.001  0.030  0.036
   26  0.021  0.001  0.019  0.040
   27  0.000  0.001  0.025  0.026
   28  0.000  0.000  0.007  0.007
   29  0.001  0.000  0.004  0.005
   30  0.000  0.000  0.002  0.002
   31  0.001  0.000  0.003  0.004
   32  0.000  0.000  0.002  0.002
   33  0.001  0.000  0.003  0.004
   34  0.001  0.000  0.004  0.005
   35  0.000  0.000  0.001  0.001
   36  0.000  0.000  0.001  0.001
   37  0.000  0.001  0.000  0.001
   38  0.000  0.004  0.000  0.004
tot    0.121  0.021  0.661  0.803
 
band    14 # energy   -4.94298005 # occ.  2.00000000
 
ion      s      p      d    tot
    1  0.000  0.001  0.016  0.018
    2  0.000  0.000  0.005  0.005
    3  0.000  0.000  0.005  0.005
    4  0.000  0.000  0.005  0.005
    5  0.001  0.000  0.000  0.001
    6  0.000  0.000  0.005  0.005
    7  0.000  0.000  0.005  0.005
    8  0.000  0.000  0.005  0.005
    9  0.002  0.000  0.000  0.003
   10  0.009  0.000  0.069  0.079
   11  0.000  0.001  0.045  0.045
   12  0.010  0.000  0.069  0.079
   13  0.000  0.000  0.044  0.045
   14  0.000  0.001  0.045  0.045
   15  0.009  0.001  0.012  0.022
   16  0.010  0.000  0.069  0.079
   17  0.009  0.001  0.012  0.022
   18  0.009  0.001  0.012  0.022
   19  0.006  0.001  0.016  0.023
   20  0.001  0.001  0.024  0.025
   21  0.001  0.001  0.024  0.025
   22  0.005  0.000  0.040  0.046
   23  0.001  0.001  0.024  0.025
   24  0.005  0.000  0.040  0.046
   25  0.006  0.001  0.015  0.023
   26  0.006  0.001  0.016  0.023
   27  0.005  0.000  0.040  0.046
   28  0.000  0.000  0.004  0.004
   29  0.000  0.000  0.004  0.005
   30  0.000  0.000  0.005  0.005
   31  0.000  0.000  0.004  0.005
   32  0.000  0.000  0.004  0.005
   33  0.000  0.000  0.005  0.005
   34  0.000  0.000  0.004  0.005
   35  0.003  0.000  0.001  0.004
   36  0.000  0.001  0.000  0.001
   37  0.000  0.002  0.000  0.002
   38  0.000  0.002  0.000  0.002
tot    0.105  0.019  0.690  0.813
 
band    15 # energy   -4.91936528 # occ.  2.00000000
 
ion      s      p      d    tot
    1  0.000  0.000  0.010  0.010
    2  0.000  0.000  0.009  0.010
    3  0.000  0.000  0.009  0.010
    4  0.000  0.000  0.009  0.010
    5  0.000  0.000  0.002  0.003
    6  0.000  0.000  0.009  0.010
    7  0.000  0.000  0.009  0.010
    8  0.000  0.000  0.009  0.010
    9  0.006  0.000  0.003  0.009
   10  0.003  0.000  0.020  0.024
   11  0.000  0.000  0.050  0.050
   12  0.003  0.000  0.020  0.024
   13  0.000  0.000  0.050  0.050
   14  0.000  0.000  0.050  0.050
   15  0.001  0.000  0.024  0.025
   16  0.003  0.000  0.020  0.024
   17  0.001  0.000  0.024  0.025
   18  0.001  0.000  0.024  0.025
   19  0.003  0.001  0.004  0.007
   20  0.001  0.000  0.049  0.050
   21  0.001  0.000  0.049  0.050
   22  0.004  0.000  0.060  0.063
   23  0.001  0.000  0.049  0.050
   24  0.004  0.000  0.060  0.064
   25  0.003  0.001  0.004  0.007
   26  0.003  0.001  0.004  0.007
   27  0.004  0.000  0.060  0.063
   28  0.008  0.001  0.000  0.009
   29  0.001  0.000  0.010  0.011
   30  0.001  0.000  0.010  0.011
   31  0.001  0.000  0.010  0.011
   32  0.001  0.000  0.010  0.011
   33  0.001  0.000  0.010  0.011
   34  0.001  0.000  0.010  0.011
   35  0.001  0.000  0.022  0.023
   36  0.001  0.000  0.000  0.001
   37  0.000  0.000  0.000  0.000
   38  0.000  0.000  0.000  0.000
tot    0.060  0.007  0.774  0.841
 
band    16 # energy   -4.91000926 # occ.  2.00000000
 
ion      s      p      d    tot
    1  0.000  0.000  0.020  0.020
    2  0.003  0.000  0.006  0.009
    3  0.001  0.000  0.009  0.010
    4  0.003  0.000  0.006  0.009
    5  0.000  0.000  0.007  0.007
    6  0.001  0.000  0.007  0.009
    7  0.000  0.000  0.009  0.010
    8  0.001  0.000  0.008  0.009
    9  0.000  0.000  0.007  0.007
   10  0.000  0.000  0.039  0.039
   11  0.001  0.000  0.031  0.032
   12  0.002  0.000  0.036  0.038
   13  0.001  0.000  0.029  0.030
   14  0.000  0.000  0.021  0.021
   15  0.006  0.000  0.017  0.023
   16  0.002  0.000  0.035  0.038
   17  0.005  0.000  0.028  0.033
   18  0.000  0.000  0.068  0.068
   19  0.007  0.000  0.032  0.039
   20  0.000  0.000  0.083  0.083
   21  0.006  0.000  0.033  0.039
   22  0.000  0.000  0.031  0.031
   23  0.008  0.000  0.019  0.027
   24  0.000  0.000  0.017  0.017
   25  0.000  0.000  0.050  0.050
   26  0.005  0.000  0.036  0.042
   27  0.000  0.000  0.035  0.035
   28  0.000  0.000  0.012  0.013
   29  0.000  0.000  0.008  0.008
   30  0.002  0.000  0.005  0.007
   31  0.000  0.000  0.008  0.008
   32  0.002  0.001  0.006  0.008
   33  0.002  0.000  0.004  0.007
   34  0.002  0.001  0.005  0.008
   35  0.000  0.000  0.006  0.006
   36  0.000  0.001  0.001  0.002
   37  0.000  0.000  0.000  0.000
   38  0.000  0.000  0.000  0.000
tot    0.061  0.008  0.773  0.842
 
band    17 # energy   -4.90998565 # occ.  2.00000000
 
ion      s      p      d    tot
    1  0.000  0.000  0.020  0.020
    2  0.000  0.000  0.009  0.009
    3  0.002  0.001  0.006  0.009
    4  0.000  0.000  0.009  0.010
    5  0.000  0.000  0.007  0.007
    6  0.002  0.000  0.008  0.010
    7  0.003  0.001  0.006  0.009
    8  0.003  0.000  0.007  0.010
    9  0.000  0.000  0.007  0.007
   10  0.003  0.000  0.035  0.038
   11  0.000  0.000  0.023  0.023
   12  0.001  0.000  0.037  0.038
   13  0.000  0.000  0.025  0.026
   14  0.001  0.000  0.033  0.034
   15  0.001  0.000  0.058  0.059
   16  0.000  0.000  0.038  0.039
   17  0.003  0.000  0.047  0.050
   18  0.007  0.000  0.007  0.015
   19  0.001  0.000  0.047  0.048
   20  0.009  0.000  0.007  0.016
   21  0.003  0.000  0.057  0.060
   22  0.000  0.000  0.024  0.024
   23  0.002  0.000  0.071  0.072
   24  0.000  0.000  0.038  0.038
   25  0.008  0.000  0.029  0.037
   26  0.003  0.000  0.043  0.046
   27  0.000  0.000  0.020  0.020
   28  0.000  0.000  0.012  0.013
   29  0.003  0.001  0.004  0.007
   30  0.001  0.000  0.007  0.008
   31  0.003  0.000  0.004  0.007
   32  0.001  0.000  0.006  0.007
   33  0.000  0.000  0.008  0.008
   34  0.001  0.000  0.007  0.007
   35  0.000  0.000  0.006  0.006
   36  0.000  0.001  0.001  0.002
   37  0.000  0.000  0.000  0.000
   38  0.000  0.000  0.000  0.000
tot    0.061  0.008  0.773  0.842
 
band    18 # energy   -4.90099908 # occ.  2.00000000
 
ion      s      p      d    tot
    1  0.000  0.000  0.004  0.005
    2  0.003  0.000  0.006  0.010
    3  0.001  0.000  0.010  0.011
    4  0.003  0.000  0.006  0.010
    5  0.000  0.000  0.014  0.014
    6  0.001  0.000  0.008  0.010
    7  0.001  0.000  0.010  0.011
    8  0.001  0.000  0.008  0.010
    9  0.000  0.000  0.016  0.016
   10  0.006  0.000  0.014  0.020
   11  0.002  0.000  0.051  0.053
   12  0.001  0.000  0.044  0.045
   13  0.002  0.000  0.053  0.055
   14  0.007  0.000  0.018  0.025
   15  0.000  0.000  0.024  0.024
   16  0.002  0.000  0.042  0.044
   17  0.000  0.000  0.023  0.023
   18  0.000  0.000  0.046  0.047
   19  0.001  0.000  0.042  0.043
   20  0.002  0.000  0.044  0.046
   21  0.000  0.000  0.023  0.024
   22  0.002  0.000  0.067  0.069
   23  0.000  0.000  0.024  0.025
   24  0.011  0.000  0.011  0.022
   25  0.004  0.000  0.018  0.021
   26  0.001  0.000  0.044  0.044
   27  0.003  0.000  0.064  0.067
   28  0.000  0.000  0.003  0.003
   29  0.000  0.000  0.007  0.007
   30  0.001  0.000  0.002  0.004
   31  0.000  0.000  0.007  0.007
   32  0.001  0.001  0.005  0.007
   33  0.001  0.000  0.002  0.004
   34  0.001  0.001  0.005  0.007
   35  0.000  0.000  0.008  0.009
   36  0.000  0.000  0.003  0.003
   37  0.000  0.000  0.000  0.000
   38  0.000  0.000  0.000  0.000
tot    0.059  0.007  0.777  0.844
 
band    19 # energy   -4.90096878 # occ.  2.00000000
 
ion      s      p      d    tot
    1  0.000  0.000  0.004  0.005
    2  0.000  0.000  0.010  0.010
    3  0.003  0.001  0.006  0.009
    4  0.000  0.000  0.010  0.010
    5  0.000  0.000  0.014  0.014
    6  0.002  0.000  0.008  0.010
    7  0.003  0.001  0.006  0.009
    8  0.002  0.000  0.008  0.010
    9  0.000  0.000  0.016  0.016
   10  0.000  0.000  0.052  0.052
   11  0.005  0.000  0.030  0.035
   12  0.004  0.000  0.023  0.027
   13  0.005  0.000  0.028  0.034
   14  0.000  0.000  0.064  0.064
   15  0.000  0.000  0.038  0.038
   16  0.004  0.000  0.024  0.029
   17  0.000  0.000  0.039  0.040
   18  0.000  0.000  0.016  0.016
   19  0.003  0.000  0.027  0.030
   20  0.000  0.000  0.017  0.017
   21  0.001  0.000  0.038  0.039
   22  0.009  0.000  0.028  0.036
   23  0.001  0.000  0.036  0.038
   24  0.000  0.000  0.083  0.083
   25  0.000  0.000  0.051  0.051
   26  0.003  0.000  0.025  0.028
   27  0.008  0.000  0.031  0.039
   28  0.000  0.000  0.003  0.003
   29  0.002  0.000  0.003  0.005
   30  0.000  0.000  0.007  0.008
   31  0.002  0.000  0.003  0.005
   32  0.000  0.000  0.005  0.005
   33  0.001  0.000  0.007  0.008
   34  0.000  0.000  0.004  0.005
   35  0.000  0.000  0.008  0.009
   36  0.000  0.000  0.003  0.003
   37  0.000  0.000  0.000  0.000
   38  0.000  0.000  0.000  0.000
tot    0.059  0.007  0.777  0.844
 
band    20 # energy   -4.89572286 # occ.  2.00000000
 
ion      s      p      d    tot
    1  0.001  0.000  0.000  0.001
    2  0.001  0.000  0.012  0.013
    3  0.001  0.000  0.012  0.013
    4  0.001  0.000  0.012  0.013
    5  0.009  0.000  0.001  0.010
    6  0.001  0.000  0.012  0.013
    7  0.001  0.000  0.012  0.013
    8  0.001  0.000  0.012  0.013
    9  0.001  0.000  0.019  0.020
   10  0.002  0.000  0.024  0.026
   11  0.000  0.000  0.013  0.014
   12  0.002  0.000  0.024  0.026
   13  0.000  0.000  0.013  0.014
   14  0.000  0.000  0.013  0.014
   15  0.001  0.000  0.036  0.037
   16  0.002  0.000  0.024  0.026
   17  0.001  0.000  0.036  0.037
   18  0.001  0.000  0.036  0.037
   19  0.001  0.000  0.049  0.050
   20  0.007  0.000  0.046  0.053
   21  0.007  0.000  0.046  0.053
   22  0.003  0.001  0.010  0.013
   23  0.007  0.000  0.046  0.053
   24  0.003  0.001  0.010  0.013
   25  0.001  0.000  0.049  0.050
   26  0.001  0.000  0.049  0.050
   27  0.003  0.001  0.010  0.013
   28  0.001  0.000  0.000  0.001
   29  0.003  0.000  0.013  0.016
   30  0.003  0.000  0.013  0.016
   31  0.003  0.000  0.013  0.016
   32  0.003  0.000  0.013  0.016
   33  0.003  0.000  0.013  0.016
   34  0.003  0.000  0.013  0.016
   35  0.015  0.001  0.005  0.021
   36  0.002  0.003  0.002  0.007
   37  0.000  0.002  0.000  0.002
   38  0.000  0.003  0.000  0.003
tot    0.098  0.015  0.708  0.821
 
band    21 # energy   -4.85931812 # occ.  2.00000000
 
ion      s      p      d    tot
    1  0.009  0.000  0.002  0.012
    2  0.001  0.000  0.010  0.012
    3  0.001  0.000  0.010  0.012
    4  0.001  0.000  0.010  0.012
    5  0.000  0.000  0.017  0.018
    6  0.001  0.000  0.010  0.012
    7  0.001  0.000  0.010  0.012
    8  0.001  0.000  0.010  0.012
    9  0.000  0.000  0.001  0.002
   10  0.001  0.000  0.010  0.011
   11  0.002  0.000  0.030  0.032
   12  0.001  0.000  0.010  0.011
   13  0.002  0.000  0.030  0.032
   14  0.002  0.000  0.030  0.032
   15  0.005  0.000  0.009  0.014
   16  0.001  0.000  0.010  0.011