PROCAR new format
# of k-points:   10         # of bands:  252         # of ions:   38

 k-point     1 :    0.00000000 0.00000000 0.00000000     weight = 0.01562500

band     1 # energy  -19.66160808 # occ.  2.00000000
 
ion      s      p      d    tot
    1  0.000  0.000  0.000  0.000
    2  0.000  0.000  0.000  0.000
    3  0.000  0.000  0.000  0.000
    4  0.000  0.000  0.000  0.000
    5  0.000  0.000  0.000  0.000
    6  0.000  0.000  0.000  0.000
    7  0.000  0.000  0.000  0.000
    8  0.000  0.000  0.000  0.000
    9  0.000  0.000  0.000  0.000
   10  0.000  0.000  0.000  0.000
   11  0.000  0.000  0.000  0.000
   12  0.000  0.000  0.000  0.000
   13  0.000  0.000  0.000  0.000
   14  0.000  0.000  0.000  0.000
   15  0.000  0.000  0.000  0.000
   16  0.000  0.000  0.000  0.000
   17  0.000  0.000  0.000  0.000
   18  0.000  0.000  0.000  0.000
   19  0.000  0.000  0.000  0.000
   20  0.000  0.000  0.000  0.000
   21  0.000  0.000  0.000  0.000
   22  0.000  0.000  0.000  0.000
   23  0.000  0.000  0.000  0.000
   24  0.000  0.000  0.000  0.000
   25  0.000  0.000  0.000  0.000
   26  0.000  0.000  0.000  0.000
   27  0.000  0.000  0.000  0.000
   28  0.000  0.000  0.000  0.000
   29  0.000  0.000  0.000  0.000
   30  0.000  0.000  0.000  0.000
   31  0.000  0.000  0.000  0.000
   32  0.000  0.000  0.000  0.000
   33  0.000  0.000  0.000  0.000
   34  0.000  0.000  0.000  0.000
   35  0.000  0.000  0.000  0.000
   36  0.016  0.025  0.044  0.084
   37  0.746  0.013  0.000  0.759
   38  0.113  0.024  0.000  0.137
tot    0.875  0.062  0.044  0.981
 
band     2 # energy   -8.42082066 # occ.  2.00000000
 
ion      s      p      d    tot
    1  0.000  0.000  0.000  0.000
    2  0.000  0.000  0.000  0.000
    3  0.000  0.000  0.000  0.000
    4  0.000  0.000  0.000  0.000
    5  0.000  0.000  0.000  0.000
    6  0.000  0.000  0.000  0.000
    7  0.000  0.000  0.000  0.000
    8  0.000  0.000  0.000  0.000
    9  0.000  0.000  0.000  0.000
   10  0.001  0.000  0.000  0.002
   11  0.001  0.000  0.000  0.001
   12  0.001  0.000  0.000  0.002
   13  0.001  0.000  0.000  0.001
   14  0.001  0.000  0.000  0.001
   15  0.001  0.000  0.000  0.001
   16  0.001  0.000  0.000  0.002
   17  0.001  0.000  0.000  0.001
   18  0.001  0.000  0.000  0.001
   19  0.002  0.000  0.000  0.002
   20  0.009  0.001  0.004  0.014
   21  0.009  0.001  0.004  0.014
   22  0.002  0.000  0.000  0.002
   23  0.009  0.001  0.004  0.014
   24  0.002  0.000  0.000  0.002
   25  0.002  0.000  0.000  0.002
   26  0.002  0.000  0.000  0.002
   27  0.002  0.000  0.000  0.002
   28  0.001  0.000  0.000  0.001
   29  0.002  0.000  0.000  0.002
   30  0.002  0.000  0.000  0.002
   31  0.002  0.000  0.000  0.002
   32  0.002  0.000  0.000  0.002
   33  0.002  0.000  0.000  0.002
   34  0.002  0.000  0.000  0.002
   35  0.001  0.000  0.000  0.001
   36  0.108  0.032  0.153  0.293
   37  0.016  0.460  0.000  0.476
   38  0.154  0.017  0.000  0.171
tot    0.343  0.515  0.168  1.026
 
band     3 # energy   -7.80006059 # occ.  2.00000000
 
ion      s      p      d    tot
    1  0.006  0.001  0.000  0.007
    2  0.006  0.001  0.000  0.007
    3  0.006  0.001  0.000  0.007
    4  0.006  0.001  0.000  0.007
    5  0.006  0.001  0.000  0.007
    6  0.006  0.001  0.000  0.007
    7  0.006  0.001  0.000  0.007
    8  0.006  0.001  0.000  0.007
    9  0.006  0.000  0.000  0.007
   10  0.024  0.000  0.000  0.025
   11  0.026  0.000  0.000  0.026
   12  0.024  0.000  0.000  0.025
   13  0.026  0.000  0.000  0.026
   14  0.026  0.000  0.000  0.026
   15  0.024  0.000  0.000  0.025
   16  0.024  0.000  0.000  0.025
   17  0.024  0.000  0.000  0.025
   18  0.024  0.000  0.000  0.025
   19  0.020  0.000  0.000  0.020
   20  0.022  0.000  0.000  0.022
   21  0.022  0.000  0.000  0.022
   22  0.022  0.000  0.000  0.022
   23  0.022  0.000  0.000  0.022
   24  0.022  0.000  0.000  0.022
   25  0.020  0.000  0.000  0.020
   26  0.020  0.000  0.000  0.020
   27  0.022  0.000  0.000  0.022
   28  0.004  0.000  0.000  0.004
   29  0.004  0.000  0.000  0.004
   30  0.004  0.000  0.000  0.004
   31  0.004  0.000  0.000  0.004
   32  0.004  0.000  0.000  0.004
   33  0.004  0.000  0.000  0.004
   34  0.004  0.000  0.000  0.004
   35  0.004  0.000  0.000  0.005
   36  0.000  0.014  0.022  0.036
   37  0.004  0.056  0.000  0.059
   38  0.018  0.002  0.000  0.020
tot    0.524  0.082  0.027  0.633
 
band     4 # energy   -6.69636509 # occ.  2.00000000
 
ion      s      p      d    tot
    1  0.016  0.000  0.001  0.017
    2  0.016  0.000  0.001  0.017
    3  0.016  0.000  0.001  0.017
    4  0.016  0.000  0.001  0.017
    5  0.015  0.000  0.001  0.017
    6  0.016  0.000  0.001  0.017
    7  0.016  0.000  0.001  0.017
    8  0.016  0.000  0.001  0.017
    9  0.016  0.000  0.001  0.017
   10  0.011  0.001  0.002  0.015
   11  0.010  0.001  0.003  0.014
   12  0.011  0.001  0.002  0.015
   13  0.010  0.001  0.003  0.014
   14  0.010  0.001  0.003  0.014
   15  0.011  0.001  0.002  0.015
   16  0.011  0.001  0.002  0.015
   17  0.011  0.001  0.002  0.015
   18  0.011  0.001  0.002  0.015
   19  0.010  0.001  0.003  0.014
   20  0.014  0.001  0.002  0.018
   21  0.014  0.001  0.002  0.018
   22  0.011  0.001  0.003  0.015
   23  0.014  0.001  0.002  0.018
   24  0.011  0.001  0.003  0.015
   25  0.010  0.001  0.003  0.014
   26  0.010  0.001  0.003  0.014
   27  0.011  0.001  0.003  0.015
   28  0.013  0.000  0.001  0.014
   29  0.016  0.001  0.001  0.018
   30  0.016  0.001  0.001  0.018
   31  0.016  0.001  0.001  0.018
   32  0.016  0.001  0.001  0.018
   33  0.016  0.001  0.001  0.018
   34  0.016  0.001  0.001  0.018
   35  0.014  0.000  0.001  0.015
   36  0.017  0.007  0.015  0.039
   37  0.002  0.012  0.000  0.014
   38  0.003  0.000  0.000  0.004
tot    0.491  0.049  0.079  0.619
 
band     5 # energy   -5.81681001 # occ.  2.00000000
 
ion      s      p      d    tot
    1  0.003  0.000  0.002  0.005
    2  0.004  0.000  0.002  0.006
    3  0.004  0.000  0.002  0.006
    4  0.004  0.000  0.002  0.006
    5  0.005  0.000  0.002  0.007
    6  0.004  0.000  0.002  0.006
    7  0.004  0.000  0.002  0.006
    8  0.004  0.000  0.002  0.006
    9  0.004  0.000  0.002  0.006
   10  0.000  0.001  0.001  0.002
   11  0.000  0.001  0.000  0.001
   12  0.000  0.001  0.001  0.002
   13  0.000  0.001  0.000  0.001
   14  0.000  0.001  0.000  0.001
   15  0.000  0.001  0.000  0.001
   16  0.000  0.001  0.001  0.002
   17  0.000  0.001  0.000  0.001
   18  0.000  0.001  0.000  0.001
   19  0.012  0.001  0.013  0.026
   20  0.007  0.001  0.039  0.047
   21  0.007  0.001  0.039  0.047
   22  0.004  0.001  0.015  0.019
   23  0.007  0.001  0.039  0.047
   24  0.004  0.001  0.015  0.019
   25  0.012  0.001  0.013  0.026
   26  0.012  0.001  0.013  0.026
   27  0.004  0.001  0.015  0.019
   28  0.011  0.000  0.014  0.026
   29  0.024  0.000  0.020  0.044
   30  0.024  0.000  0.020  0.044
   31  0.024  0.000  0.020  0.044
   32  0.024  0.000  0.020  0.044
   33  0.024  0.000  0.020  0.044
   34  0.024  0.000  0.020  0.044
   35  0.019  0.000  0.014  0.033
   36  0.032  0.001  0.037  0.070
   37  0.000  0.000  0.000  0.001
   38  0.000  0.000  0.000  0.000
tot    0.313  0.017  0.404  0.734
 
band     6 # energy   -5.76657449 # occ.  2.00000000
 
ion      s      p      d    tot
    1  0.000  0.000  0.007  0.008
    2  0.000  0.000  0.002  0.003
    3  0.002  0.001  0.002  0.005
    4  0.005  0.001  0.003  0.008
    5  0.000  0.001  0.005  0.005
    6  0.003  0.001  0.002  0.006
    7  0.005  0.001  0.003  0.008
    8  0.000  0.000  0.003  0.003
    9  0.000  0.000  0.001  0.001
   10  0.011  0.001  0.021  0.033
   11  0.008  0.003  0.019  0.031
   12  0.036  0.002  0.006  0.045
   13  0.040  0.001  0.011  0.052
   14  0.013  0.003  0.018  0.034
   15  0.000  0.002  0.006  0.008
   16  0.007  0.000  0.024  0.031
   17  0.000  0.000  0.009  0.009
   18  0.000  0.002  0.006  0.008
   19  0.003  0.003  0.005  0.011
   20  0.023  0.002  0.035  0.060
   21  0.074  0.001  0.015  0.090
   22  0.013  0.002  0.005  0.020
   23  0.015  0.002  0.038  0.055
   24  0.004  0.001  0.018  0.023
   25  0.004  0.003  0.006  0.013
   26  0.013  0.000  0.013  0.026
   27  0.002  0.001  0.021  0.024
   28  0.000  0.000  0.001  0.002
   29  0.002  0.001  0.003  0.007
   30  0.007  0.001  0.006  0.014
   31  0.002  0.001  0.004  0.006
   32  0.007  0.001  0.006  0.014
   33  0.001  0.000  0.003  0.005
   34  0.002  0.000  0.003  0.005
   35  0.000  0.000  0.004  0.004
   36  0.000  0.006  0.018  0.024
   37  0.000  0.001  0.000  0.001
   38  0.000  0.000  0.000  0.000
tot    0.302  0.046  0.353  0.702
 
band     7 # energy   -5.76656205 # occ.  2.00000000
 
ion      s      p      d    tot
    1  0.000  0.000  0.007  0.008
    2  0.005  0.001  0.002  0.008
    3  0.003  0.001  0.003  0.006
    4  0.000  0.000  0.002  0.003
    5  0.000  0.001  0.005  0.005
    6  0.002  0.001  0.003  0.005
    7  0.001  0.000  0.002  0.003
    8  0.005  0.001  0.002  0.008
    9  0.000  0.000  0.001  0.001
   10  0.025  0.002  0.013  0.040
   11  0.033  0.001  0.013  0.047
   12  0.000  0.000  0.028  0.028
   13  0.000  0.004  0.021  0.025
   14  0.028  0.002  0.014  0.044
   15  0.000  0.001  0.008  0.009
   16  0.029  0.002  0.010  0.042
   17  0.000  0.003  0.005  0.008
   18  0.000  0.001  0.008  0.009
   19  0.011  0.001  0.011  0.023
   20  0.052  0.001  0.024  0.077
   21  0.000  0.002  0.044  0.046
   22  0.000  0.001  0.024  0.025
   23  0.060  0.001  0.021  0.082
   24  0.009  0.001  0.011  0.021
   25  0.009  0.001  0.010  0.021
   26  0.000  0.004  0.003  0.007
   27  0.010  0.001  0.009  0.021
   28  0.000  0.000  0.001  0.002
   29  0.004  0.001  0.005  0.010
   30  0.000  0.000  0.003  0.003
   31  0.005  0.001  0.005  0.011
   32  0.000  0.000  0.003  0.003
   33  0.006  0.001  0.005  0.012
   34  0.005  0.001  0.005  0.012
   35  0.000  0.000  0.004  0.004
   36  0.000  0.006  0.018  0.024
   37  0.000  0.001  0.000  0.001
   38  0.000  0.000  0.000  0.000
tot    0.302  0.046  0.353  0.702
 
band     8 # energy   -5.74319568 # occ.  2.00000000
 
ion      s      p      d    tot
    1  0.003  0.001  0.003  0.007
    2  0.000  0.000  0.004  0.005
    3  0.000  0.000  0.004  0.005
    4  0.000  0.000  0.004  0.005
    5  0.000  0.000  0.000  0.001
    6  0.000  0.000  0.004  0.005
    7  0.000  0.000  0.004  0.005
    8  0.000  0.000  0.004  0.005
    9  0.015  0.001  0.000  0.016
   10  0.008  0.000  0.025  0.033
   11  0.008  0.003  0.010  0.021
   12  0.008  0.000  0.025  0.033
   13  0.008  0.003  0.010  0.021
   14  0.008  0.003  0.010  0.021
   15  0.022  0.002  0.009  0.032
   16  0.008  0.000  0.025  0.033
   17  0.022  0.002  0.009  0.032
   18  0.022  0.002  0.009  0.032
   19  0.002  0.001  0.023  0.025
   20  0.023  0.001  0.028  0.052
   21  0.023  0.001  0.028  0.052
   22  0.023  0.003  0.002  0.028
   23  0.023  0.001  0.028  0.052
   24  0.023  0.003  0.002  0.028
   25  0.002  0.001  0.023  0.025
   26  0.002  0.001  0.023  0.025
   27  0.023  0.003  0.002  0.028
   28  0.002  0.000  0.001  0.003
   29  0.000  0.001  0.006  0.007
   30  0.000  0.001  0.006  0.007
   31  0.000  0.001  0.006  0.007
   32  0.000  0.001  0.006  0.007
   33  0.000  0.001  0.006  0.007
   34  0.000  0.001  0.006  0.007
   35  0.008  0.001  0.000  0.009
   36  0.015  0.015  0.001  0.030
   37  0.001  0.007  0.000  0.008
   38  0.002  0.000  0.000  0.003
tot    0.303  0.060  0.358  0.721
 
band     9 # energy   -5.69460216 # occ.  2.00000000
 
ion      s      p      d    tot
    1  0.026  0.000  0.017  0.043
    2  0.018  0.000  0.019  0.037
    3  0.018  0.000  0.019  0.037
    4  0.018  0.000  0.019  0.037
    5  0.014  0.000  0.020  0.034
    6  0.018  0.000  0.019  0.037
    7  0.018  0.000  0.019  0.037
    8  0.018  0.000  0.019  0.037
    9  0.016  0.000  0.018  0.034
   10  0.003  0.000  0.030  0.033
   11  0.011  0.000  0.023  0.035
   12  0.003  0.000  0.030  0.033
   13  0.011  0.000  0.023  0.035
   14  0.011  0.000  0.023  0.035
   15  0.011  0.001  0.022  0.034
   16  0.003  0.000  0.030  0.033
   17  0.011  0.001  0.022  0.034
   18  0.011  0.001  0.022  0.034
   19  0.003  0.000  0.005  0.008
   20  0.001  0.000  0.013  0.015
   21  0.001  0.000  0.013  0.015
   22  0.000  0.000  0.007  0.007
   23  0.001  0.000  0.013  0.015
   24  0.000  0.000  0.007  0.007
   25  0.003  0.000  0.005  0.008
   26  0.003  0.000  0.005  0.008
   27  0.000  0.000  0.007  0.007
   28  0.001  0.000  0.000  0.001
   29  0.000  0.000  0.000  0.000
   30  0.000  0.000  0.000  0.000
   31  0.000  0.000  0.000  0.000
   32  0.000  0.000  0.000  0.000
   33  0.000  0.000  0.000  0.000
   34  0.000  0.000  0.000  0.000
   35  0.000  0.000  0.000  0.000
   36  0.000  0.001  0.000  0.002
   37  0.000  0.001  0.000  0.001
   38  0.000  0.000  0.000  0.000
tot    0.256  0.011  0.470  0.737
 
band    10 # energy   -5.65384676 # occ.  2.00000000
 
ion      s      p      d    tot
    1  0.006  0.001  0.002  0.009
    2  0.000  0.001  0.006  0.007
    3  0.000  0.001  0.006  0.007
    4  0.000  0.001  0.006  0.007
    5  0.019  0.002  0.000  0.020
    6  0.000  0.001  0.006  0.007
    7  0.000  0.001  0.006  0.007
    8  0.000  0.001  0.006  0.007
    9  0.000  0.000  0.002  0.003
   10  0.026  0.003  0.001  0.029
   11  0.018  0.001  0.023  0.042
   12  0.026  0.003  0.001  0.029
   13  0.018  0.001  0.023  0.042
   14  0.018  0.001  0.023  0.042
   15  0.001  0.001  0.022  0.023
   16  0.026  0.003  0.001  0.029
   17  0.001  0.001  0.022  0.023
   18  0.001  0.001  0.022  0.023
   19  0.021  0.002  0.006  0.029
   20  0.006  0.003  0.021  0.029
   21  0.006  0.003  0.021  0.029
   22  0.010  0.000  0.026  0.035
   23  0.006  0.003  0.021  0.029
   24  0.010  0.000  0.026  0.035
   25  0.021  0.002  0.006  0.029
   26  0.021  0.002  0.006  0.029
   27  0.010  0.000  0.026  0.035
   28  0.016  0.001  0.000  0.017
   29  0.001  0.000  0.005  0.005
   30  0.001  0.000  0.005  0.005
   31  0.001  0.000  0.005  0.005
   32  0.001  0.000  0.005  0.005
   33  0.001  0.000  0.005  0.005
   34  0.001  0.000  0.005  0.005
   35  0.002  0.001  0.004  0.007
   36  0.000  0.000  0.000  0.000
   37  0.000  0.000  0.000  0.000
   38  0.000  0.000  0.000  0.000
tot    0.291  0.038  0.369  0.697
 
band    11 # energy   -5.62939579 # occ.  2.00000000
 
ion      s      p      d    tot
    1  0.000  0.001  0.003  0.003
    2  0.006  0.001  0.004  0.012
    3  0.008  0.001  0.004  0.013
    4  0.001  0.000  0.004  0.005
    5  0.000  0.000  0.005  0.005
    6  0.000  0.000  0.003  0.004
    7  0.006  0.001  0.003  0.011
    8  0.003  0.001  0.003  0.007
    9  0.000  0.001  0.011  0.012
   10  0.017  0.001  0.015  0.033
   11  0.000  0.001  0.029  0.030
   12  0.012  0.002  0.011  0.024
   13  0.008  0.001  0.015  0.024
   14  0.011  0.001  0.009  0.022
   15  0.002  0.001  0.038  0.041
   16  0.001  0.005  0.003  0.008
   17  0.037  0.001  0.019  0.058
   18  0.055  0.001  0.011  0.067
   19  0.001  0.000  0.035  0.036
   20  0.000  0.001  0.017  0.018
   21  0.000  0.001  0.015  0.017
   22  0.023  0.002  0.014  0.039
   23  0.000  0.002  0.011  0.014
   24  0.034  0.001  0.012  0.046
   25  0.031  0.002  0.007  0.040
   26  0.021  0.001  0.016  0.039
   27  0.001  0.003  0.018  0.023
   28  0.000  0.000  0.006  0.006
   29  0.000  0.000  0.001  0.002
   30  0.001  0.000  0.001  0.002
   31  0.002  0.000  0.002  0.005
   32  0.004  0.001  0.002  0.007
   33  0.004  0.001  0.002  0.006
   34  0.005  0.001  0.002  0.008
   35  0.000  0.001  0.004  0.005
   36  0.000  0.000  0.001  0.002
   37  0.000  0.001  0.000  0.001
   38  0.000  0.000  0.000  0.000
tot    0.294  0.041  0.359  0.694
 
band    12 # energy   -5.62937495 # occ.  2.00000000
 
ion      s      p      d    tot
    1  0.000  0.001  0.003  0.003
    2  0.002  0.001  0.003  0.006
    3  0.000  0.000  0.003  0.004
    4  0.007  0.001  0.004  0.012
    5  0.000  0.000  0.005  0.005
    6  0.008  0.001  0.004  0.014
    7  0.002  0.001  0.004  0.007
    8  0.005  0.001  0.004  0.010
    9  0.000  0.001  0.011  0.012
   10  0.002  0.004  0.004  0.011
   11  0.013  0.001  0.007  0.021
   12  0.008  0.003  0.008  0.019
   13  0.005  0.001  0.020  0.026
   14  0.002  0.001  0.026  0.029
   15  0.061  0.001  0.007  0.070
   16  0.019  0.000  0.016  0.035
   17  0.025  0.001  0.026  0.052
   18  0.008  0.001  0.035  0.044
   19  0.035  0.002  0.004  0.041
   20  0.000  0.002  0.012  0.014
   21  0.000  0.002  0.014  0.016
   22  0.016  0.002  0.015  0.033
   23  0.000  0.001  0.018  0.019
   24  0.005  0.003  0.018  0.026
   25  0.004  0.000  0.032  0.036
   26  0.014  0.001  0.022  0.038
   27  0.037  0.001  0.011  0.049
   28  0.000  0.000  0.006  0.006
   29  0.005  0.001  0.003  0.008
   30  0.004  0.001  0.003  0.007
   31  0.003  0.001  0.002  0.005
   32  0.001  0.000  0.002  0.003
   33  0.001  0.000  0.002  0.003
   34  0.000  0.000  0.002  0.002
   35  0.000  0.001  0.004  0.005
   36  0.000  0.000  0.001  0.002
   37  0.000  0.001  0.000  0.001
   38  0.000  0.000  0.000  0.000
tot    0.294  0.041  0.359  0.694
 
band    13 # energy   -5.27988781 # occ.  2.00000000
 
ion      s      p      d    tot
    1  0.000  0.001  0.004  0.005
    2  0.004  0.001  0.005  0.010
    3  0.006  0.001  0.005  0.012
    4  0.000  0.000  0.004  0.004
    5  0.000  0.001  0.009  0.010
    6  0.001  0.000  0.004  0.005
    7  0.009  0.001  0.003  0.013
    8  0.007  0.001  0.003  0.011
    9  0.000  0.000  0.007  0.007
   10  0.002  0.001  0.044  0.046
   11  0.025  0.001  0.011  0.037
   12  0.004  0.001  0.035  0.040
   13  0.009  0.000  0.031  0.040
   14  0.004  0.000  0.037  0.041
   15  0.002  0.000  0.019  0.021
   16  0.011  0.001  0.007  0.020
   17  0.001  0.001  0.014  0.016
   18  0.000  0.001  0.013  0.014
   19  0.002  0.000  0.018  0.021
   20  0.002  0.000  0.086  0.089
   21  0.005  0.001  0.068  0.074
   22  0.002  0.001  0.023  0.025
   23  0.015  0.001  0.009  0.026
   24  0.001  0.001  0.025  0.027
   25  0.000  0.000  0.011  0.012
   26  0.001  0.000  0.013  0.014
   27  0.005  0.002  0.016  0.022
   28  0.000  0.000  0.007  0.008
   29  0.008  0.001  0.008  0.017
   30  0.009  0.001  0.008  0.018
   31  0.002  0.000  0.005  0.007
   32  0.001  0.000  0.004  0.005
   33  0.005  0.001  0.005  0.011
   34  0.003  0.001  0.004  0.008
   35  0.000  0.000  0.002  0.002
   36  0.000  0.005  0.016  0.021
   37  0.000  0.001  0.000  0.001
   38  0.000  0.000  0.000  0.000
tot    0.146  0.032  0.582  0.759
 
band    14 # energy   -5.27988291 # occ.  2.00000000
 
ion      s      p      d    tot
    1  0.000  0.001  0.004  0.005
    2  0.005  0.001  0.003  0.009
    3  0.003  0.001  0.003  0.007
    4  0.009  0.001  0.004  0.014
    5  0.000  0.001  0.009  0.010
    6  0.008  0.001  0.004  0.014
    7  0.000  0.001  0.004  0.005
    8  0.002  0.001  0.005  0.007
    9  0.000  0.000  0.007  0.007
   10  0.009  0.001  0.014  0.024
   11  0.000  0.000  0.041  0.042
   12  0.007  0.001  0.022  0.031
   13  0.017  0.001  0.022  0.039
   14  0.021  0.001  0.016  0.038
   15  0.000  0.001  0.011  0.013
   16  0.000  0.001  0.050  0.051
   17  0.001  0.001  0.017  0.018
   18  0.001  0.000  0.018  0.020
   19  0.000  0.001  0.009  0.010
   20  0.013  0.001  0.023  0.037
   21  0.010  0.001  0.041  0.052
   22  0.003  0.001  0.020  0.024
   23  0.000  0.000  0.100  0.100
   24  0.004  0.001  0.017  0.023
   25  0.002  0.000  0.017  0.019
   26  0.002  0.000  0.015  0.017
   27  0.000  0.000  0.027  0.027
   28  0.000  0.000  0.007  0.008
   29  0.001  0.000  0.004  0.005
   30  0.000  0.000  0.004  0.004
   31  0.007  0.001  0.007  0.015
   32  0.009  0.001  0.007  0.017
   33  0.004  0.001  0.006  0.011
   34  0.006  0.001  0.007  0.015
   35  0.000  0.000  0.002  0.002
   36  0.000  0.005  0.016  0.021
   37  0.000  0.001  0.000  0.001
   38  0.000  0.000  0.000  0.000
tot    0.146  0.032  0.582  0.759
 
band    15 # energy   -5.25703585 # occ.  2.00000000
 
ion      s      p      d    tot
    1  0.014  0.002  0.001  0.016
    2  0.000  0.001  0.005  0.006
    3  0.000  0.001  0.005  0.006
    4  0.000  0.001  0.005  0.006
    5  0.003  0.001  0.002  0.005
    6  0.000  0.001  0.005  0.006
    7  0.000  0.001  0.005  0.006
    8  0.000  0.001  0.005  0.006
    9  0.003  0.000  0.000  0.004
   10  0.006  0.001  0.009  0.017
   11  0.008  0.001  0.027  0.036
   12  0.006  0.001  0.009  0.017
   13  0.008  0.001  0.027  0.036
   14  0.008  0.001  0.027  0.036
   15  0.000  0.000  0.028  0.029
   16  0.006  0.001  0.009  0.017
   17  0.000  0.000  0.028  0.029
   18  0.000  0.000  0.028  0.028
   19  0.007  0.002  0.003  0.012
   20  0.000  0.000  0.058  0.059
   21  0.000  0.000  0.058  0.059
   22  0.008  0.000  0.031  0.040
   23  0.000  0.000  0.058  0.059
   24  0.008  0.000  0.031  0.040
   25  0.007  0.002  0.003  0.012
   26  0.007  0.002  0.003  0.012
   27  0.008  0.000  0.031  0.040
   28  0.022  0.001  0.000  0.023
   29  0.000  0.001  0.013  0.014
   30  0.000  0.001  0.013  0.014
   31  0.000  0.001  0.013  0.014
   32  0.000  0.001  0.013  0.014
   33  0.000  0.001  0.013  0.014
   34  0.000  0.001  0.013  0.014
   35  0.000  0.000  0.004  0.005
   36  0.011  0.002  0.003  0.016
   37  0.000  0.001  0.000  0.001
   38  0.000  0.000  0.000  0.000
tot    0.146  0.029  0.588  0.763
 
band    16 # energy   -5.20604371 # occ.  2.00000000
 
ion      s      p      d    tot
    1  0.000  0.000  0.002  0.002
    2  0.000  0.001  0.009  0.010
    3  0.000  0.001  0.009  0.010
    4  0.000  0.001  0.009  0.010
    5  0.014  0.001  0.000  0.016
    6  0.000  0.001  0.009  0.010
    7  0.000  0.001  0.009  0.010
    8  0.000  0.001  0.009  0.010
    9  0.016  0.002  0.002  0.020
   10  0.004  0.000  0.043  0.048
   11  0.003  0.001  0.023  0.027
   12  0.004  0.000  0.043  0.048
   13  0.003  0.001  0.023  0.027
   14  0.003  0.001  0.023  0.027
   15  0.016  0.002  0.010  0.028
   16  0.004  0.000  0.043  0.048
   17  0.016  0.002  0.010  0.028
   18  0.016  0.002  0.010  0.028
   19  0.004  0.000  0.031  0.035
   20  0.007  0.002  0.022  0.031
   21  0.007  0.002  0.022  0.031
   22  0.003  0.001  0.020  0.024
   23  0.007  0.002  0.022  0.031
   24  0.003  0.001  0.020  0.024
   25  0.004  0.000  0.031  0.035
   26  0.004  0.000  0.031  0.035
   27  0.003  0.001  0.020  0.024
   28  0.000  0.000  0.001  0.002
   29  0.000  0.000  0.006  0.007
   30  0.000  0.000  0.006  0.007
   31  0.000  0.000  0.006  0.007
   32  0.000  0.000  0.006  0.007
   33  0.000  0.000  0.006  0.007
   34  0.000  0.000  0.006  0.007
   35  0.010  0.001  0.000  0.011
   36  0.014  0.011  0.000  0.025
   37  0.001  0.004  0.000  0.005
   38  0.001  0.000  0.000  0.002
tot    0.169  0.048  0.545  0.762
 
band    17 # energy   -5.15550664 # occ.  2.00000000
 
ion      s      p      d    tot
    1  0.000  0.001  0.013  0.014
    2  0.000  0.000  0.005  0.005
    3  0.009  0.001  0.004  0.014
    4  0.003  0.001  0.005  0.009
    5  0.000  0.000  0.006  0.006
    6  0.007  0.001  0.004  0.012
    7  0.006  0.001  0.005  0.012
    8  0.002  0.000  0.005  0.007
    9  0.000  0.001  0.005  0.006
   10  0.011  0.000  0.018  0.030
   11  0.000  0.001  0.019  0.020
   12  0.000  0.001  0.031  0.032
   13  0.000  0.001  0.016  0.017
   14  0.000  0.001  0.020  0.021
   15  0.007  0.001  0.028  0.037
   16  0.007  0.000  0.023  0.031
   17  0.000  0.000  0.057  0.058
   18  0.011  0.002  0.011  0.025
   19  0.011  0.001  0.031  0.042
   20  0.000  0.001  0.028  0.029
   21  0.000  0.002  0.024  0.026
   22  0.001  0.001  0.028  0.029
   23  0.000  0.001  0.027  0.028
   24  0.019  0.001  0.018  0.038
   25  0.017  0.001  0.010  0.028
   26  0.001  0.000  0.064  0.065
   27  0.012  0.001  0.022  0.034
   28  0.000  0.001  0.005  0.006
   29  0.000  0.000  0.007  0.008
   30  0.007  0.001  0.003  0.011
   31  0.005  0.001  0.004  0.009
   32  0.004  0.001  0.005  0.010
   33  0.007  0.001  0.003  0.011
   34  0.000  0.001  0.007  0.008
   35  0.000  0.001  0.009  0.010
   36  0.000  0.000  0.005  0.005
   37  0.000  0.000  0.000  0.000
   38  0.000  0.000  0.000  0.000
tot    0.148  0.029  0.573  0.750
 
band    18 # energy   -5.15550128 # occ.  2.00000000
 
ion      s      p      d    tot
    1  0.000  0.001  0.013  0.014
    2  0.009  0.001  0.004  0.014
    3  0.000  0.000  0.005  0.005
    4  0.006  0.001  0.004  0.011
    5  0.000  0.000  0.006  0.006
    6  0.002  0.001  0.005  0.007
    7  0.003  0.000  0.004  0.008
    8  0.007  0.001  0.004  0.013
    9  0.000  0.001  0.005  0.006
   10  0.001  0.001  0.030  0.032
   11  0.000  0.001  0.018  0.019
   12  0.012  0.000  0.017  0.030
   13  0.000  0.001  0.021  0.022
   14  0.000  0.001  0.016  0.017
   15  0.006  0.001  0.036  0.043
   16  0.005  0.000  0.025  0.031
   17  0.012  0.002  0.008  0.022
   18  0.001  0.000  0.053  0.055
   19  0.008  0.001  0.039  0.048
   20  0.000  0.002  0.025  0.026
   21  0.000  0.000  0.029  0.029
   22  0.021  0.001  0.017  0.038
   23  0.000  0.001  0.026  0.027
   24  0.002  0.001  0.027  0.030
   25  0.002  0.000  0.059  0.062
   26  0.018  0.001  0.006  0.025
   27  0.009  0.001  0.023  0.033
   28  0.000  0.001  0.005  0.006
   29  0.007  0.001  0.003  0.011
   30  0.001  0.000  0.006  0.008
   31  0.003  0.001  0.005  0.009
   32  0.003  0.001  0.005  0.009
   33  0.001  0.001  0.007  0.008
   34  0.007  0.001  0.003  0.011
   35  0.000  0.001  0.009  0.010
   36  0.000  0.000  0.005  0.005
   37  0.000  0.000  0.000  0.000
   38  0.000  0.000  0.000  0.000
tot    0.148  0.029  0.573  0.750
 
band    19 # energy   -4.91849031 # occ.  2.00000000
 
ion      s      p      d    tot
    1  0.000  0.000  0.016  0.016
    2  0.000  0.000  0.007  0.007
    3  0.001  0.000  0.007  0.008
    4  0.008  0.001  0.005  0.015
    5  0.000  0.001  0.011  0.012
    6  0.008  0.001  0.005  0.014
    7  0.006  0.000  0.007  0.013
    8  0.004  0.000  0.007  0.012
    9  0.000  0.001  0.005  0.006
   10  0.000  0.000  0.017  0.017
   11  0.000  0.000  0.039  0.040
   12  0.000  0.001  0.019  0.020
   13  0.002  0.001  0.037  0.039
   14  0.002  0.000  0.037  0.039
   15  0.000  0.000  0.006  0.006
   16  0.000  0.000  0.005  0.005
   17  0.001  0.000  0.007  0.008
   18  0.001  0.000  0.007  0.008
   19  0.000  0.000  0.005  0.005
   20  0.001  0.001  0.094  0.096
   21  0.001  0.001  0.101  0.103
   22  0.001  0.000  0.013  0.015
   23  0.000  0.001  0.053  0.054
   24  0.001  0.000  0.014  0.015
   25  0.000  0.000  0.012  0.012
   26  0.000  0.000  0.013  0.013
   27  0.000  0.000  0.017  0.017
   28  0.000  0.001  0.002  0.002
   29  0.010  0.001  0.025  0.036
   30  0.011  0.001  0.027  0.039
   31  0.007  0.001  0.020  0.029
   32  0.009  0.001  0.023  0.033
   33  0.000  0.000  0.009  0.009
   34  0.000  0.000  0.010  0.010
   35  0.000  0.000  0.022  0.022
   36  0.000  0.006  0.029  0.035
   37  0.000  0.000  0.000  0.000
   38  0.000  0.000  0.000  0.000
tot    0.075  0.023  0.733  0.831
 
band    20 # energy   -4.91847981 # occ.  2.00000000
 
ion      s      p      d    tot
    1  0.000  0.000  0.016  0.016
    2  0.009  0.001  0.006  0.016
    3  0.008  0.001  0.006  0.015
    4  0.001  0.000  0.007  0.008
    5  0.000  0.001  0.011  0.012
    6  0.001  0.000  0.008  0.009
    7  0.003  0.001  0.006  0.010
    8  0.005  0.001  0.006  0.011
    9  0.000  0.001  0.005  0.006
   10  0.000  0.000  0.010  0.010
   11  0.002  0.001  0.036  0.039
   12  0.000  0.000  0.008  0.008
   13  0.000  0.000  0.039  0.039
   14  0.001  0.000  0.038  0.039
   15  0.001  0.000  0.007  0.008
   16  0.000  0.001  0.022  0.023
   17  0.000  0.000  0.006  0.007
   18  0.000  0.000  0.006  0.007
   19  0.000  0.000  0.015  0.015
   20  0.001  0.001  0.071  0.073
   21  0.000  0.001  0.064  0.065
   22  0.000  0.000  0.016  0.017
   23  0.002  0.001  0.112  0.115
   24  0.000  0.000  0.016  0.016
   25  0.000  0.000  0.008  0.008
   26  0.000  0.000  0.007  0.007
   27  0.002  0.000  0.012  0.014
   28  0.000  0.001  0.002  0.002
   29  0.003  0.001  0.013  0.016
   30  0.001  0.000  0.011  0.013
   31  0.005  0.000  0.018  0.023
   32  0.004  0.000  0.015  0.019
   33  0.013  0.002  0.029  0.043
   34  0.012  0.002  0.028  0.042
   35  0.000  0.000  0.022  0.022
   36  0.000  0.006  0.029  0.035
   37  0.000  0.000  0.000  0.000
   38  0.000  0.000  0.000  0.000
tot    0.075  0.023  0.733  0.831
 
band    21 # energy   -4.90649526 # occ.  2.00000000
 
ion      s      p      d    tot
    1  0.012  0.000  0.004  0.016
    2  0.000  0.001  0.015  0.016
    3  0.000  0.001  0.015  0.016
    4  0.000  0.001  0.015  0.016
    5  0.001  0.000  0.001  0.003
    6  0.000  0.001  0.015  0.016
    7  0.000  0.001  0.015  0.016
    8  0.000  0.001  0.015  0.016
    9  0.021  0.001  0.002  0.024
   10  0.001  0.001  0.013  0.015
   11  0.000  0.000  0.015  0.015
   12  0.001  0.001  0.013  0.015
   13  0.000  0.000  0.015  0.015
   14  0.000  0.000  0.015  0.015
   15  0.000  0.000  0.031  0.031
   16  0.001  0.001  0.013  0.015