 vasp.6.2.0 18Jan21 (build Jun 12 2021 23:27:24) complex                        
  
 executed on             LinuxIFC date 2022.05.26  19:20:09
 running on   28 total cores
 distrk:  each k-point on   28 cores,    1 groups
 distr:  one band on NCORE=   1 cores,   28 groups


--------------------------------------------------------------------------------------------------------


 INCAR:
   ISMEAR = -5
   SIGMA = 0.1
   ISPIN = 1
   EDIFF = 1.d-5
   EDIFFG = -0.01
   NSW = 0
   NELM = 150
   ENCUT = 500
   ISIF = 2
   IBRION = 2
   LREAL = Auto
   ALGO = Fast
   ICHARG = 11
   LORBIT = 10
   LCHARG = .F.
   LWAVE = .F.

 POTCAR:    PAW_PBE Au 04Oct2007                  
 POTCAR:    PAW_PBE Mn 06Sep2000                  
 POTCAR:    PAW_PBE N 08Apr2002                   
 -----------------------------------------------------------------------------
|                                                                             |
|           W    W    AA    RRRRR   N    N  II  N    N   GGGG   !!!           |
|           W    W   A  A   R    R  NN   N  II  NN   N  G    G  !!!           |
|           W    W  A    A  R    R  N N  N  II  N N  N  G       !!!           |
|           W WW W  AAAAAA  RRRRR   N  N N  II  N  N N  G  GGG   !            |
|           WW  WW  A    A  R   R   N   NN  II  N   NN  G    G                |
|           W    W  A    A  R    R  N    N  II  N    N   GGGG   !!!           |
|                                                                             |
|     For optimal performance we recommend to set                             |
|       NCORE = 2 up to number-of-cores-per-socket                            |
|     NCORE specifies how many cores store one orbital (NPAR=cpu/NCORE).      |
|     This setting can greatly improve the performance of VASP for DFT.       |
|     The default, NCORE=1 might be grossly inefficient on modern             |
|     multi-core architectures or massively parallel machines. Do your        |
|     own testing! More info at https://www.vasp.at/wiki/index.php/NCORE      |
|     Unfortunately you need to use the default for GW and RPA                |
|     calculations (for HF NCORE is supported but not extensively tested      |
|     yet).                                                                   |
|                                                                             |
 -----------------------------------------------------------------------------

 POTCAR:    PAW_PBE Au 04Oct2007                  
   VRHFIN =Au: s1d10                                                                                
   LEXCH  = PE                                                                                      
   EATOM  =   926.0867 eV,   68.0654 Ry                                                             
                                                                                                    
   TITEL  = PAW_PBE Au 04Oct2007                                                                    
   LULTRA =        F    use ultrasoft PP ?                                                          
   IUNSCR =        1    unscreen: 0-lin 1-nonlin 2-no                                               
   RPACOR =    2.330    partial core radius                                                         
   POMASS =  196.966; ZVAL   =   11.000    mass and valenz                                          
   RCORE  =    2.500    outmost cutoff radius                                                       
   RWIGS  =    2.840; RWIGS  =    1.503    wigner-seitz radius (au A)                               
   ENMAX  =  229.943; ENMIN  =  172.457 eV                                                          
   ICORE  =        3    local potential                                                             
   LCOR   =        T    correct aug charges                                                         
   LPAW   =        T    paw PP                                                                      
   EAUG   =  356.670                                                                                
   DEXC   =    0.000                                                                                
   RMAX   =    2.562    core radius for proj-oper                                                   
   RAUG   =    1.300    factor for augmentation sphere                                              
   RDEP   =    2.598    radius for radial grids                                                     
   RDEPT  =    2.193    core radius for aug-charge                                                  
                                                                                                    
   Atomic configuration                                                                             
   16 entries                                                                                       
     n  l   j            E        occ.                                                              
     1  0  0.50    -80748.5001   2.0000                                                             
     2  0  0.50    -14244.7466   2.0000                                                             
     2  1  1.50    -12310.9591   6.0000                                                             
     3  0  0.50     -3362.1768   2.0000                                                             
     3  1  1.50     -2801.5463   6.0000                                                             
     3  2  2.50     -2203.8206  10.0000                                                             
     4  0  0.50      -729.8168   2.0000                                                             
     4  1  1.50      -546.0527   6.0000                                                             
     4  2  2.50      -325.7302  10.0000                                                             
     4  3  3.50       -81.1472  14.0000                                                             
     5  0  0.50      -108.3201   2.0000                                                             
     5  1  1.50       -59.7479   6.0000                                                             
     5  2  2.50        -6.8783  10.0000                                                             
     6  0  0.50        -5.7602   1.0000                                                             
     6  1  1.50        -6.8029   0.0000                                                             
     5  3  2.50        -1.3606   0.0000                                                             
   Description                                                                                      
     l       E           TYP  RCUT    TYP  RCUT                                                     
     2     -6.8782861     23  2.500                                                                 
     2     -8.2388687     23  2.500                                                                 
     0     -5.7601759     23  2.500                                                                 
     0     -0.8493231     23  2.500                                                                 
     1     -2.7211652     23  2.500                                                                 
     1     27.2116520     23  2.500                                                                 
     3     -1.3605826     23  2.500                                                                 
  local pseudopotential read in
  partial core-charges read in
  partial kinetic energy density read in
  atomic valenz-charges read in
  non local Contribution for L=           2  read in
    real space projection operators read in
  non local Contribution for L=           2  read in
    real space projection operators read in
  non local Contribution for L=           0  read in
    real space projection operators read in
  non local Contribution for L=           0  read in
    real space projection operators read in
  non local Contribution for L=           1  read in
    real space projection operators read in
  non local Contribution for L=           1  read in
    real space projection operators read in
    PAW grid and wavefunctions read in
 
   number of l-projection  operators is LMAX  =           6
   number of lm-projection operators is LMMAX =          18
 
 POTCAR:    PAW_PBE Mn 06Sep2000                  
   VRHFIN =Mn: d6 s1                                                                                
   LEXCH  = PE                                                                                      
   EATOM  =   416.7541 eV,   30.6306 Ry                                                             
                                                                                                    
   TITEL  = PAW_PBE Mn 06Sep2000                                                                    
   LULTRA =        F    use ultrasoft PP ?                                                          
   IUNSCR =        1    unscreen: 0-lin 1-nonlin 2-no                                               
   RPACOR =    2.000    partial core radius                                                         
   POMASS =   54.938; ZVAL   =    7.000    mass and valenz                                          
   RCORE  =    2.300    outmost cutoff radius                                                       
   RWIGS  =    2.500; RWIGS  =    1.323    wigner-seitz radius (au A)                               
   ENMAX  =  269.864; ENMIN  =  202.398 eV                                                          
   RCLOC  =    1.725    cutoff for local pot                                                        
   LCOR   =        T    correct aug charges                                                         
   LPAW   =        T    paw PP                                                                      
   EAUG   =  500.711                                                                                
   DEXC   =    0.000                                                                                
   RMAX   =    2.343    core radius for proj-oper                                                   
   RAUG   =    1.300    factor for augmentation sphere                                              
   RDEP   =    2.338    radius for radial grids                                                     
   RDEPT  =    1.911    core radius for aug-charge                                                  
                                                                                                    
   Atomic configuration                                                                             
    9 entries                                                                                       
     n  l   j            E        occ.                                                              
     1  0  0.50     -6424.8288   2.0000                                                             
     2  0  0.50      -739.1154   2.0000                                                             
     2  1  1.50      -625.3949   6.0000                                                             
     3  0  0.50       -81.6100   2.0000                                                             
     3  1  1.50       -50.4667   6.0000                                                             
     3  2  2.50        -3.3745   6.0000                                                             
     4  0  0.50        -4.1331   1.0000                                                             
     4  1  0.50        -4.0817   0.0000                                                             
     4  3  2.50        -1.3606   0.0000                                                             
   Description                                                                                      
     l       E           TYP  RCUT    TYP  RCUT                                                     
     2     -3.3744664     23  2.300                                                                 
     2     -4.7350490     23  2.300                                                                 
     0     -4.1331408     23  2.300                                                                 
     0      7.6656614     23  2.300                                                                 
     1     -2.7211652     23  2.300                                                                 
     1     20.4087390     23  2.300                                                                 
  local pseudopotential read in
  partial core-charges read in
  partial kinetic energy density read in
  atomic valenz-charges read in
  non local Contribution for L=           2  read in
    real space projection operators read in
  non local Contribution for L=           2  read in
    real space projection operators read in
  non local Contribution for L=           0  read in
    real space projection operators read in
  non local Contribution for L=           0  read in
    real space projection operators read in
  non local Contribution for L=           1  read in
    real space projection operators read in
  non local Contribution for L=           1  read in
    real space projection operators read in
    PAW grid and wavefunctions read in
 
   number of l-projection  operators is LMAX  =           6
   number of lm-projection operators is LMMAX =          18
 
 POTCAR:    PAW_PBE N 08Apr2002                   
   VRHFIN =N: s2p3                                                                                  
   LEXCH  = PE                                                                                      
   EATOM  =   264.5486 eV,   19.4438 Ry                                                             
                                                                                                    
   TITEL  = PAW_PBE N 08Apr2002                                                                     
   LULTRA =        F    use ultrasoft PP ?                                                          
   IUNSCR =        1    unscreen: 0-lin 1-nonlin 2-no                                               
   RPACOR =    1.200    partial core radius                                                         
   POMASS =   14.001; ZVAL   =    5.000    mass and valenz                                          
   RCORE  =    1.500    outmost cutoff radius                                                       
   RWIGS  =    1.400; RWIGS  =    0.741    wigner-seitz radius (au A)                               
   ENMAX  =  400.000; ENMIN  =  300.000 eV                                                          
   ICORE  =        2    local potential                                                             
   LCOR   =        T    correct aug charges                                                         
   LPAW   =        T    paw PP                                                                      
   EAUG   =  627.112                                                                                
   DEXC   =    0.000                                                                                
   RMAX   =    1.529    core radius for proj-oper                                                   
   RAUG   =    1.300    factor for augmentation sphere                                              
   RDEP   =    1.514    radius for radial grids                                                     
   RDEPT  =    1.338    core radius for aug-charge                                                  
                                                                                                    
   Atomic configuration                                                                             
    4 entries                                                                                       
     n  l   j            E        occ.                                                              
     1  0  0.50      -384.7179   2.0000                                                             
     2  0  0.50       -18.5828   2.0000                                                             
     2  1  0.50        -7.0898   3.0000                                                             
     3  2  1.50        -6.8029   0.0000                                                             
   Description                                                                                      
     l       E           TYP  RCUT    TYP  RCUT                                                     
     0    -18.5828119     23  1.200                                                                 
     0    -13.5018863     23  1.200                                                                 
     1     -7.0897853     23  1.500                                                                 
     1      9.5240782     23  1.500                                                                 
     2     -6.8029130      7  1.500                                                                 
  local pseudopotential read in
  partial core-charges read in
  partial kinetic energy density read in
  atomic valenz-charges read in
  non local Contribution for L=           0  read in
    real space projection operators read in
  non local Contribution for L=           0  read in
    real space projection operators read in
  non local Contribution for L=           1  read in
    real space projection operators read in
  non local Contribution for L=           1  read in
    real space projection operators read in
    PAW grid and wavefunctions read in
 
   number of l-projection  operators is LMAX  =           4
   number of lm-projection operators is LMMAX =           8
 
 Optimization of the real space projectors (new method)

 maximal supplied QI-value         = 15.12
 optimisation between [QCUT,QGAM] = [ 11.34, 22.83] = [ 36.00,145.93] Ry 
 Optimized for a Real-space Cutoff    1.39 Angstroem

   l    n(q)    QCUT    max X(q) W(low)/X(q) W(high)/X(q)  e(spline) 
   2      9    11.338    60.898    0.39E-03    0.42E-03    0.21E-06
   2      9    11.338    58.894    0.40E-03    0.42E-03    0.22E-06
   0      9    11.338   109.617    0.13E-03    0.20E-04    0.13E-06
   0      9    11.338    75.026    0.13E-03    0.20E-04    0.13E-06
   1      9    11.338    16.344    0.33E-04    0.24E-03    0.18E-06
   1      9    11.338    10.160    0.26E-04    0.19E-03    0.15E-06
 Optimization of the real space projectors (new method)

 maximal supplied QI-value         = 16.25
 optimisation between [QCUT,QGAM] = [ 11.38, 22.75] = [ 36.24,144.96] Ry 
 Optimized for a Real-space Cutoff    1.39 Angstroem

   l    n(q)    QCUT    max X(q) W(low)/X(q) W(high)/X(q)  e(spline) 
   2      8    11.376   110.144    0.49E-03    0.27E-04    0.26E-06
   2      8    11.376   103.200    0.49E-03    0.28E-04    0.27E-06
   0      9    11.376    68.437    0.57E-04    0.92E-04    0.15E-06
   0      9    11.376    33.971    0.51E-04    0.83E-04    0.14E-06
   1      9    11.376    17.065    0.34E-03    0.68E-04    0.14E-06
   1      9    11.376    12.540    0.27E-03    0.59E-04    0.11E-06
 Optimization of the real space projectors (new method)

 maximal supplied QI-value         = 25.13
 optimisation between [QCUT,QGAM] = [ 11.31, 22.87] = [ 35.82,146.48] Ry 
 Optimized for a Real-space Cutoff    1.27 Angstroem

   l    n(q)    QCUT    max X(q) W(low)/X(q) W(high)/X(q)  e(spline) 
   0      9    11.310    79.467    0.75E-04    0.16E-03    0.36E-06
   0      9    11.310    66.151    0.74E-04    0.16E-03    0.36E-06
   1      8    11.310    17.416    0.35E-03    0.12E-03    0.95E-06
   1      8    11.310    12.382    0.37E-03    0.13E-03    0.98E-06
  PAW_PBE Au 04Oct2007                  :
 energy of atom  1       EATOM= -926.0867
 kinetic energy error for atom=    0.0042 (will be added to EATOM!!)
  PAW_PBE Mn 06Sep2000                  :
 energy of atom  2       EATOM= -416.7541
 kinetic energy error for atom=    0.0024 (will be added to EATOM!!)
  PAW_PBE N 08Apr2002                   :
 energy of atom  3       EATOM= -264.5486
 kinetic energy error for atom=    0.0138 (will be added to EATOM!!)
 
 
 POSCAR: Au-Mn-N
  positions in direct lattice
  velocities in cartesian coordinates
 exchange correlation table for  LEXCH =        8
   RHO(1)=    0.500       N(1)  =     2000
   RHO(2)=  100.500       N(2)  =     4000

 VTST: version 3.2, (02/03/18)

 CHAIN: initializing optimizer
 
 OPT: Using VASP Conjugate-Gradient optimizer
 CHAIN: Read ICHAIN            0
 
 POSCAR: Au-Mn-N
  positions in direct lattice
  velocities in cartesian coordinates
 


--------------------------------------------------------------------------------------------------------


 ion  position               nearest neighbor table
   1  0.000  0.000  0.238-  16 2.94  12 2.94   6 2.94   8 2.94   7 2.94   3 2.94  10 2.94   4 2.94
                             2 2.94
   2  0.333  0.000  0.238-   9 2.94  11 2.94  17 2.94  10 2.94   8 2.94   4 2.94   5 2.94   1 2.94
                             3 2.94
   3  0.667  0.000  0.238-   7 2.94  18 2.94  12 2.94   1 2.94  11 2.94   5 2.94   6 2.94   9 2.94
                             2 2.94
   4  0.000  0.333  0.238-  10 2.94   6 2.94   5 2.94  13 2.94   2 2.94  15 2.94   9 2.94   1 2.94
                             7 2.94
   5  0.333  0.333  0.238-  13 2.94   7 2.94  11 2.94   4 2.94   2 2.94  14 2.94   3 2.94   8 2.94
                             6 2.94
   6  0.667  0.333  0.238-  15 2.94  14 2.94   1 2.94  12 2.94   4 2.94   9 2.94   8 2.94   3 2.94
                             5 2.94
   7  0.000  0.667  0.238-  18 2.94   3 2.94  16 2.94   5 2.94   1 2.94  13 2.94   8 2.94   4 2.94
                             9 2.94
   8  0.333  0.667  0.238-   9 2.94  17 2.94   1 2.94   2 2.94  14 2.94  16 2.94   6 2.94   7 2.94
                             5 2.94
   9  0.667  0.667  0.238-   2 2.94   8 2.94  17 2.94   6 2.94  15 2.94   4 2.94   3 2.94  18 2.94
                             7 2.94
  10  0.111  0.111  0.346-  20 2.93  26 2.94  19 2.94  11 2.94  17 2.94   2 2.94   4 2.94   1 2.94
                            12 2.94  16 2.94  13 2.94  15 2.94
  11  0.444  0.111  0.346-  20 2.91  21 2.91  27 2.93  13 2.94   2 2.94  10 2.94  17 2.94   5 2.94
                             3 2.94  18 2.94  14 2.94  12 2.94
  12  0.778  0.111  0.346-  21 2.93  25 2.94  19 2.94  16 2.94  18 2.94   1 2.94  14 2.94  15 2.94
                             3 2.94   6 2.94  10 2.94  11 2.94
  13  0.111  0.444  0.346-  23 2.91  20 2.91  22 2.93   5 2.94  18 2.94  11 2.94   7 2.94   4 2.94
                            16 2.94  10 2.94  14 2.94  15 2.94
  14  0.444  0.444  0.346-  21 2.91  23 2.91  24 2.93  15 2.94   6 2.94  12 2.94   8 2.94  17 2.94
                             5 2.94  16 2.94  13 2.94  11 2.94
  15  0.778  0.444  0.346-  24 2.92  22 2.92  19 2.94  14 2.94   6 2.94  17 2.94  12 2.94   9 2.94
                             4 2.94  10 2.94  13 2.94  18 2.94
  16  0.111  0.778  0.346-  23 2.93  25 2.94  26 2.94  18 2.94  12 2.94   7 2.94   1 2.94   8 2.94
                            13 2.94  10 2.94  14 2.94  17 2.94
  17  0.444  0.778  0.346-  27 2.92  24 2.92  26 2.94   9 2.94  15 2.94   2 2.94  10 2.94  11 2.94
                             8 2.94  14 2.94  16 2.94  18 2.94
  18  0.778  0.778  0.346-  22 2.92  27 2.92  25 2.94  16 2.94   7 2.94  13 2.94  12 2.94   3 2.94
                            11 2.94   9 2.94  15 2.94  17 2.94
  19  0.889  0.222  0.454-  10 2.94  12 2.94  15 2.94  26 2.94  25 2.94  24 2.94  22 2.94  28 2.95
                            21 2.95  20 2.95  32 2.99  31 2.99
  20  0.223  0.223  0.453-  36 2.70  23 2.91  21 2.91  11 2.91  13 2.91  29 2.92  31 2.92  10 2.93
                            26 2.95  19 2.95  27 2.95  22 2.95
  21  0.553  0.223  0.453-  36 2.70  20 2.91  23 2.91  14 2.91  11 2.91  30 2.92  32 2.92  12 2.93
                            25 2.95  19 2.95  27 2.95  24 2.95
  22  0.886  0.557  0.453-  24 2.91  27 2.91  18 2.92  15 2.92  13 2.93  25 2.94  19 2.94  23 2.95
                            20 2.95  33 2.96  31 2.96  35 2.96
  23  0.223  0.553  0.453-  36 2.70  20 2.91  21 2.91  13 2.91  14 2.91  33 2.92  34 2.92  16 2.93
                            25 2.95  26 2.95  22 2.95  24 2.95
  24  0.557  0.557  0.453-  27 2.91  22 2.91  15 2.92  17 2.92  14 2.93  26 2.94  19 2.94  21 2.95
                            23 2.95  32 2.96  34 2.96  35 2.96
  25  0.889  0.889  0.454-  16 2.94  12 2.94  18 2.94  19 2.94  26 2.94  22 2.94  27 2.94  28 2.95
                            23 2.95  21 2.95  33 2.99  30 2.99
  26  0.222  0.889  0.454-  10 2.94  16 2.94  17 2.94  19 2.94  25 2.94  27 2.94  24 2.94  28 2.95
                            20 2.95  23 2.95  29 2.99  34 2.99
  27  0.557  0.886  0.453-  24 2.91  22 2.91  17 2.92  18 2.92  11 2.93  26 2.94  25 2.94  20 2.95
                            21 2.95  29 2.96  30 2.96  35 2.96
  28  0.000  0.000  0.563-  25 2.95  19 2.95  26 2.95  34 2.99  32 2.99  33 2.99  30 2.99  31 2.99
                            29 2.99
  29  0.334  0.010  0.562-  30 2.84  31 2.85  36 2.86  20 2.92  27 2.96  35 2.98  26 2.99  28 2.99
                            34 3.12
  30  0.656  0.010  0.562-  29 2.84  32 2.85  36 2.86  21 2.92  27 2.96  35 2.98  25 2.99  28 2.99
                            33 3.12
  31  0.010  0.334  0.562-  33 2.84  29 2.85  36 2.86  20 2.92  22 2.96  35 2.98  19 2.99  28 2.99
                            32 3.12
  32  0.656  0.334  0.562-  34 2.84  30 2.85  36 2.86  21 2.92  24 2.96  35 2.98  19 2.99  28 2.99
                            31 3.12
  33  0.010  0.656  0.562-  31 2.84  34 2.85  36 2.86  23 2.92  22 2.96  35 2.98  25 2.99  28 2.99
                            30 3.12
  34  0.334  0.656  0.562-  32 2.84  33 2.85  36 2.86  23 2.92  24 2.96  35 2.98  26 2.99  28 2.99
                            29 3.12
  35  0.667  0.667  0.563-  24 2.96  27 2.96  22 2.96  29 2.98  34 2.98  32 2.98  31 2.98  30 2.98
                            33 2.98
  36  0.333  0.333  0.548-  37 1.56  20 2.70  23 2.70  21 2.70  33 2.86  31 2.86  29 2.86  30 2.86
                            34 2.86  32 2.86
  37  0.333  0.333  0.618-  36 1.56
 
  LATTYP: Found a hexagonal cell.
 ALAT       =     8.8135128021
 C/A-ratio  =     2.5184286595
  
  Lattice vectors:
  
 A1 = (  -4.4067569092,  -7.6327256898,   0.0000000000)
 A2 = (   8.8135128021,   0.0000000000,   0.0000000000)
 A3 = (   0.0000000000,   0.0000000000,  22.1962032318)


Analysis of symmetry for initial positions (statically):
=====================================================================
 Subroutine PRICEL returns:
 Original cell was already a primitive cell.
 

 Routine SETGRP: Setting up the symmetry group for a 
 hexagonal supercell.


 Subroutine GETGRP returns: Found  6 space group operations
 (whereof  6 operations were pure point group operations)
 out of a pool of 24 trial point group operations.


The static configuration has the point symmetry C_3v.


Analysis of symmetry for dynamics (positions and initial velocities):
=====================================================================
 Subroutine PRICEL returns:
 Original cell was already a primitive cell.
 

 Routine SETGRP: Setting up the symmetry group for a 
 hexagonal supercell.


 Subroutine GETGRP returns: Found  6 space group operations
 (whereof  6 operations were pure point group operations)
 out of a pool of 24 trial point group operations.


The dynamic configuration has the point symmetry C_3v.


Analysis of constrained symmetry for selective dynamics:
=====================================================================
 Subroutine PRICEL returns:
 Original cell was already a primitive cell.
 

 Routine SETGRP: Setting up the symmetry group for a 
 hexagonal supercell.


 Subroutine GETGRP returns: Found  6 space group operations
 (whereof  6 operations were pure point group operations)
 out of a pool of 24 trial point group operations.


The constrained configuration has the point symmetry C_3v.


 Subroutine INISYM returns: Found  6 space group operations
 (whereof  6 operations are pure point group operations),
 and found     1 'primitive' translations


----------------------------------------------------------------------------------------

                                     Primitive cell                                     

  volume of cell :    1493.1636

  direct lattice vectors                    reciprocal lattice vectors
     8.813512802  0.000000000  0.000000000     0.113462137 -0.065507406  0.000000000
     4.406756909  7.632725690  0.000000000     0.000000000  0.131014796  0.000000000
     0.000000000  0.000000000 22.196203232     0.000000000  0.000000000  0.045052750

  length of vectors
     8.813512802  8.813512802 22.196203232     0.131014796  0.131014796  0.045052750

  position of ions in fractional coordinates (direct lattice)
     0.000000000  0.000000000  0.237895638
     0.333333343  0.000000000  0.237895638
     0.666666687  0.000000000  0.237895638
     1.000000000  0.333333343  0.237895638
     0.333333313  0.333333343  0.237895638
     0.666666687  0.333333343  0.237895638
     1.000000000  0.666666687  0.237895638
     0.333333343  0.666666687  0.237895638
     0.666666627  0.666666687  0.237895638
     0.111111119  0.111111112  0.345965207
     0.444444418  0.111111112  0.345965207
     0.777777791  0.111111112  0.345965207
     0.111111127  0.444444448  0.345965207
     0.444444478  0.444444448  0.345965207
     0.777777731  0.444444448  0.345965207
     0.111111090  0.777777791  0.345965207
     0.444444448  0.777777791  0.345965207
     0.777777851  0.777777791  0.345965207
     0.888897538  0.222204939  0.453896923
     0.223374012  0.223373997  0.452775625
     0.553252035  0.223373997  0.452775625
     0.886463792  0.556768134  0.453145880
     0.223373967  0.553252035  0.452775625
     0.556768134  0.556768134  0.453145880
     0.888897538  0.888897538  0.453896923
     0.222204969  0.888897538  0.453896923
     0.556768074  0.886463792  0.453145880
     0.000000000  0.000000000  0.562607014
     0.333521667  0.010275925  0.562008141
     0.656202438  0.010275925  0.562008141
     0.010275925  0.333521667  0.562008141
     0.656202438  0.333521667  0.562008141
     0.010275925  0.656202438  0.562008141
     0.333521667  0.656202438  0.562008141
     0.666666627  0.666666687  0.562952649
     0.333333313  0.333333343  0.548217096
     0.333333313  0.333333343  0.618359773

  ion indices of the primitive-cell ions
   primitive index   ion index
                 1           1
                 2           2
                 3           3
                 4           4
                 5           5
                 6           6
                 7           7
                 8           8
                 9           9
                10          10
                11          11
                12          12
                13          13
                14          14
                15          15
                16          16
                17          17
                18          18
                19          19
                20          20
                21          21
                22          22
                23          23
                24          24
                25          25
                26          26
                27          27
                28          28
                29          29
                30          30
                31          31
                32          32
                33          33
                34          34
                35          35
                36          36
                37          37

----------------------------------------------------------------------------------------

 
 
 KPOINTS: Automatic mesh                          

Automatic generation of k-mesh.
 Grid dimensions read from file:
 generate k-points for:    8    8    1

 Generating k-lattice:

  Cartesian coordinates                     Fractional coordinates (reciprocal lattice)
     0.014182767 -0.008188426  0.000000000     0.125000000 -0.000000000  0.000000000
     0.000000000  0.016376850  0.000000000     0.000000000  0.125000000  0.000000000
     0.000000000  0.000000000  0.045052750     0.000000000  0.000000000  1.000000000

  Length of vectors
     0.016376850  0.016376850  0.045052750

  Shift w.r.t. Gamma in fractional coordinates (k-lattice)
     0.000000000  0.000000000  0.000000000

 TETIRR: Found     36 inequivalent tetrahedra from      384
 
 Subroutine IBZKPT returns following result:
 ===========================================
 
 Found     10 irreducible k-points:
 
 Following reciprocal coordinates:
            Coordinates               Weight
  0.000000  0.000000  0.000000      1.000000
  0.125000 -0.000000  0.000000      6.000000
  0.250000 -0.000000  0.000000      6.000000
  0.375000  0.000000  0.000000      6.000000
  0.500000 -0.000000  0.000000      3.000000
  0.250000  0.125000  0.000000      6.000000
  0.375000  0.125000  0.000000     12.000000
  0.500000  0.125000  0.000000     12.000000
  0.500000  0.250000  0.000000      6.000000
 -0.375000  0.250000  0.000000      6.000000
 
 Following cartesian coordinates:
            Coordinates               Weight
  0.000000  0.000000  0.000000      1.000000
  0.014183 -0.008188  0.000000      6.000000
  0.028366 -0.016377  0.000000      6.000000
  0.042548 -0.024565  0.000000      6.000000
  0.056731 -0.032754  0.000000      3.000000
  0.028366 -0.000000  0.000000      6.000000
  0.042548 -0.008188  0.000000     12.000000
  0.056731 -0.016377  0.000000     12.000000
  0.056731 -0.000000  0.000000      6.000000
 -0.042548  0.057319  0.000000      6.000000
 


--------------------------------------------------------------------------------------------------------




 Dimension of arrays:
   k-points           NKPTS =     10   k-points in BZ     NKDIM =     10   number of bands    NBANDS=    252
   number of dos      NEDOS =    301   number of ions     NIONS =     37
   non local maximal  LDIM  =      6   non local SUM 2l+1 LMDIM =     18
   total plane-waves  NPLWV = 290304
   max r-space proj   IRMAX =   2236   max aug-charges    IRDMAX=  12088
   dimension x,y,z NGX =    48 NGY =   48 NGZ =  126
   dimension x,y,z NGXF=    96 NGYF=   96 NGZF=  252
   support grid    NGXF=    96 NGYF=   96 NGZF=  252
   ions per type =              35   1   1
   NGX,Y,Z   is equivalent  to a cutoff of   9.05,  9.05,  9.44 a.u.
   NGXF,Y,Z  is equivalent  to a cutoff of  18.11, 18.11, 18.87 a.u.

 SYSTEM =  unknown system                          
 POSCAR =  Au-Mn-N                                 

 Startparameter for this run:
   NWRITE =      2    write-flag & timer
   PREC   = normal    normal or accurate (medium, high low for compatibility)
   ISTART =      0    job   : 0-new  1-cont  2-samecut
   ICHARG =     11    charge: 1-file 2-atom 10-const
   ISPIN  =      1    spin polarized calculation?
   LNONCOLLINEAR =      F non collinear calculations
   LSORBIT =      F    spin-orbit coupling
   INIWAV =      1    electr: 0-lowe 1-rand  2-diag
   LASPH  =      F    aspherical Exc in radial PAW
   METAGGA=      F    non-selfconsistent MetaGGA calc.

 Electronic Relaxation 1
   ENCUT  =  500.0 eV  36.75 Ry    6.06 a.u.  16.07 16.07 40.47*2*pi/ulx,y,z
   ENINI  =  500.0     initial cutoff
   ENAUG  =  627.1 eV  augmentation charge cutoff
   NELM   =    150;   NELMIN=  2; NELMDL= -5     # of ELM steps 
   EDIFF  = 0.1E-04   stopping-criterion for ELM
   LREAL  =      T    real-space projection
   NLSPLINE    = F    spline interpolate recip. space projectors
   LCOMPAT=      F    compatible to vasp.4.4
   GGA_COMPAT  = T    GGA compatible to vasp.4.4-vasp.4.6
   LMAXPAW     = -100 max onsite density
   LMAXMIX     =    2 max onsite mixed and CHGCAR
   VOSKOWN=      0    Vosko Wilk Nusair interpolation
   ROPT   =   -0.00050  -0.00050  -0.00050
 Ionic relaxation
   EDIFFG = -.1E-01   stopping-criterion for IOM
   NSW    =      0    number of steps for IOM
   NBLOCK =      1;   KBLOCK =      1    inner block; outer block 
   IBRION =     -1    ionic relax: 0-MD 1-quasi-New 2-CG
   NFREE  =      1    steps in history (QN), initial steepest desc. (CG)
   ISIF   =      2    stress and relaxation
   IWAVPR =     10    prediction:  0-non 1-charg 2-wave 3-comb
   ISYM   =      2    0-nonsym 1-usesym 2-fastsym
   LCORR  =      T    Harris-Foulkes like correction to forces

   POTIM  = 0.5000    time-step for ionic-motion
   TEIN   =    0.0    initial temperature
   TEBEG  =    0.0;   TEEND  =   0.0 temperature during run
   SMASS  =  -3.00    Nose mass-parameter (am)
   estimated Nose-frequenzy (Omega)   =  0.10E-29 period in steps = 0.13E+47 mass=  -0.178E-26a.u.
   SCALEE = 1.0000    scale energy and forces
   NPACO  =    256;   APACO  = 16.0  distance and # of slots for P.C.
   PSTRESS=    0.0 pullay stress

  Mass of Ions in am
   POMASS = 196.97 54.94 14.00
  Ionic Valenz
   ZVAL   =  11.00  7.00  5.00
  Atomic Wigner-Seitz radii
   RWIGS  =  -1.00 -1.00 -1.00
  virtual crystal weights 
   VCA    =   1.00  1.00  1.00
   NELECT =     397.0000    total number of electrons
   NUPDOWN=      -1.0000    fix difference up-down

 DOS related values:
   EMIN   =  10.00;   EMAX   =-10.00  energy-range for DOS
   EFERMI =   0.00
   ISMEAR =    -5;   SIGMA  =   0.10  broadening in eV -4-tet -1-fermi 0-gaus

 Electronic relaxation 2 (details)
   IALGO  =     68    algorithm
   LDIAG  =      T    sub-space diagonalisation (order eigenvalues)
   LSUBROT=      F    optimize rotation matrix (better conditioning)
   TURBO    =      0    0=normal 1=particle mesh
   IRESTART =      0    0=no restart 2=restart with 2 vectors
   NREBOOT  =      0    no. of reboots
   NMIN     =      0    reboot dimension
   EREF     =   0.00    reference energy to select bands
   IMIX   =      4    mixing-type and parameters
     AMIX     =   0.40;   BMIX     =  1.00
     AMIX_MAG =   1.60;   BMIX_MAG =  1.00
     AMIN     =   0.10
     WC   =   100.;   INIMIX=   1;  MIXPRE=   1;  MAXMIX= -45

 Intra band minimization:
   WEIMIN = 0.0000     energy-eigenvalue tresh-hold
   EBREAK =  0.99E-08  absolut break condition
   DEPER  =   0.30     relativ break condition  

   TIME   =   0.40     timestep for ELM

  volume/ion in A,a.u.               =      40.36       272.33
  Fermi-wavevector in a.u.,A,eV,Ry     =   1.052695  1.989305 15.077523  1.108167
  Thomas-Fermi vector in A             =   2.187788
 
 Write flags
   LWAVE        =      F    write WAVECAR
   LDOWNSAMPLE  =      F    k-point downsampling of WAVECAR
   LCHARG       =      F    write CHGCAR
   LVTOT        =      F    write LOCPOT, total local potential
   LVHAR        =      F    write LOCPOT, Hartree potential only
   LELF         =      F    write electronic localiz. function (ELF)
   LORBIT       =     10    0 simple, 1 ext, 2 COOP (PROOUT), +10 PAW based schemes


 Dipole corrections
   LMONO  =      F    monopole corrections only (constant potential shift)
   LDIPOL =      F    correct potential (dipole corrections)
   IDIPOL =      0    1-x, 2-y, 3-z, 4-all directions 
   EPSILON=  1.0000000 bulk dielectric constant

 Exchange correlation treatment:
   GGA     =    --    GGA type
   LEXCH   =     8    internal setting for exchange type
   VOSKOWN=      0    Vosko Wilk Nusair interpolation
   LHFCALC =     F    Hartree Fock is set to
   LHFONE  =     F    Hartree Fock one center treatment
   AEXX    =    0.0000 exact exchange contribution

 Linear response parameters
   LEPSILON=     F    determine dielectric tensor
   LRPA    =     F    only Hartree local field effects (RPA)
   LNABLA  =     F    use nabla operator in PAW spheres
   LVEL    =     F    velocity operator in full k-point grid
   LINTERFAST=   F  fast interpolation
   KINTER  =     0    interpolate to denser k-point grid
   CSHIFT  =0.1000    complex shift for real part using Kramers Kronig
   OMEGAMAX=  -1.0    maximum frequency
   DEG_THRESHOLD= 0.2000000E-02 threshold for treating states as degnerate
   RTIME   =   -0.100 relaxation time in fs
  (WPLASMAI=    0.000 imaginary part of plasma frequency in eV, 0.658/RTIME)
   DFIELD  = 0.0000000 0.0000000 0.0000000 field for delta impulse in time
 
 Orbital magnetization related:
   ORBITALMAG=     F  switch on orbital magnetization
   LCHIMAG   =     F  perturbation theory with respect to B field
   DQ        =  0.001000  dq finite difference perturbation B field
   LLRAUG    =     F  two centre corrections for induced B field



--------------------------------------------------------------------------------------------------------


 Static calculation
 charge density and potential remain constant during run
 non-spin polarized calculation
 RMM-DIIS sequential band-by-band and
  variant of blocked Davidson during initial phase
 perform sub-space diagonalisation
    before iterative eigenvector-optimisation
 no mixing
 using additional bands           53
 real space projection scheme for non local part
 use partial core corrections
 calculate Harris-corrections to forces 
   (improved forces if not selfconsistent)
 use gradient corrections 
 WARNING: stress and forces are not correct
  (second derivative of E(xc) not defined)
 use of overlap-Matrix (Vanderbilt PP)
 Fermi weights with tetrahedron method with Bloechl corrections


--------------------------------------------------------------------------------------------------------


  energy-cutoff  :      500.00
  volume of cell :     1493.16
      direct lattice vectors                 reciprocal lattice vectors
     8.813512802  0.000000000  0.000000000     0.113462137 -0.065507406  0.000000000
     4.406756909  7.632725690  0.000000000     0.000000000  0.131014796  0.000000000
     0.000000000  0.000000000 22.196203232     0.000000000  0.000000000  0.045052750

  length of vectors
     8.813512802  8.813512802 22.196203232     0.131014796  0.131014796  0.045052750


 
 k-points in units of 2pi/SCALE and weight: Automatic mesh                          
   0.00000000  0.00000000  0.00000000       0.016
   0.01418277 -0.00818843  0.00000000       0.094
   0.02836553 -0.01637685  0.00000000       0.094
   0.04254830 -0.02456528  0.00000000       0.094
   0.05673107 -0.03275370  0.00000000       0.047
   0.02836553 -0.00000000  0.00000000       0.094
   0.04254830 -0.00818843  0.00000000       0.188
   0.05673107 -0.01637685  0.00000000       0.188
   0.05673107 -0.00000000  0.00000000       0.094
  -0.04254830  0.05731898  0.00000000       0.094
 
 k-points in reciprocal lattice and weights: Automatic mesh                          
   0.00000000  0.00000000  0.00000000       0.016
   0.12500000 -0.00000000  0.00000000       0.094
   0.25000000 -0.00000000  0.00000000       0.094
   0.37500000  0.00000000  0.00000000       0.094
   0.50000000 -0.00000000  0.00000000       0.047
   0.25000000  0.12500000  0.00000000       0.094
   0.37500000  0.12500000  0.00000000       0.188
   0.50000000  0.12500000  0.00000000       0.188
   0.50000000  0.25000000  0.00000000       0.094
  -0.37500000  0.25000000  0.00000000       0.094
 
 position of ions in fractional coordinates (direct lattice) 
   0.00000000  0.00000000  0.23789564
   0.33333334  0.00000000  0.23789564
   0.66666669  0.00000000  0.23789564
   0.00000000  0.33333334  0.23789564
   0.33333331  0.33333334  0.23789564
   0.66666669  0.33333334  0.23789564
   0.00000000  0.66666669  0.23789564
   0.33333334  0.66666669  0.23789564
   0.66666663  0.66666669  0.23789564
   0.11111112  0.11111111  0.34596521
   0.44444442  0.11111111  0.34596521
   0.77777779  0.11111111  0.34596521
   0.11111113  0.44444445  0.34596521
   0.44444448  0.44444445  0.34596521
   0.77777773  0.44444445  0.34596521
   0.11111109  0.77777779  0.34596521
   0.44444445  0.77777779  0.34596521
   0.77777785  0.77777779  0.34596521
   0.88889754  0.22220494  0.45389692
   0.22337401  0.22337400  0.45277563
   0.55325204  0.22337400  0.45277563
   0.88646379  0.55676813  0.45314588
   0.22337397  0.55325204  0.45277563
   0.55676813  0.55676813  0.45314588
   0.88889754  0.88889754  0.45389692
   0.22220497  0.88889754  0.45389692
   0.55676807  0.88646379  0.45314588
   0.00000000  0.00000000  0.56260701
   0.33352167  0.01027593  0.56200814
   0.65620244  0.01027593  0.56200814
   0.01027593  0.33352167  0.56200814
   0.65620244  0.33352167  0.56200814
   0.01027593  0.65620244  0.56200814
   0.33352167  0.65620244  0.56200814
   0.66666663  0.66666669  0.56295265
   0.33333331  0.33333334  0.54821710
   0.33333331  0.33333334  0.61835977
 
 position of ions in cartesian coordinates  (Angst):
   0.00000000  0.00000000  5.28037993
   2.93783769  0.00000000  5.28037993
   5.87567538  0.00000000  5.28037993
   1.46891901  2.54424197  5.28037993
   4.40675643  2.54424197  5.28037993
   7.34459439  2.54424197  5.28037993
   2.93783803  5.08848395  5.28037993
   5.87567571  5.08848395  5.28037993
   8.81351288  5.08848395  5.28037993
   1.46891893  0.84808064  7.67911405
   4.40675623  0.84808064  7.67911405
   7.34459418  0.84808064  7.67911405
   2.93783798  3.39232256  7.67911405
   5.87567574  3.39232256  7.67911405
   8.81351263  3.39232256  7.67911405
   4.40675667  5.93656453  7.67911405
   7.34459449  5.93656453  7.67911405
  10.28243270  5.93656453  7.67911405
   8.81351299  1.69602935 10.07478836
   2.95306462  1.70495245 10.04989979
   5.86044880  1.70495245 10.04989979
  10.26640180  4.24965844 10.05811804
   4.40675655  4.22282102 10.04989979
   7.36062490  4.24965844 10.05811804
  11.75146520  6.78471108 10.07478836
   5.87556171  6.78471108 10.07478836
   8.81351299  6.76613496 10.05811804
   0.00000000  0.00000000 12.48773962
   2.98478098  0.07843332 12.47444691
   5.82873209  0.07843332 12.47444691
   1.56031591  2.54567939 12.47444691
   7.25319750  2.54567939 12.47444691
   2.98229163  5.00861321 12.47444691
   5.83122211  5.00861321 12.47444691
   8.81351288  5.08848395 12.49541140
   4.40675643  2.54424197 12.16833808
   4.40675643  2.54424197 13.72523919
 


--------------------------------------------------------------------------------------------------------


 k-point   1 :   0.0000 0.0000 0.0000  plane waves:   37827
 k-point   2 :   0.1250-0.0000 0.0000  plane waves:   37876
 k-point   3 :   0.2500-0.0000 0.0000  plane waves:   37924
 k-point   4 :   0.3750 0.0000 0.0000  plane waves:   37904
 k-point   5 :   0.5000-0.0000 0.0000  plane waves:   37912
 k-point   6 :   0.2500 0.1250 0.0000  plane waves:   37858
 k-point   7 :   0.3750 0.1250 0.0000  plane waves:   37928
 k-point   8 :   0.5000 0.1250 0.0000  plane waves:   37924
 k-point   9 :   0.5000 0.2500 0.0000  plane waves:   37926
 k-point  10 :  -0.3750 0.2500 0.0000  plane waves:   37916

 maximum and minimum number of plane-waves per node :     37928    37827

 maximum number of plane-waves:     37928
 maximum index in each direction: 
   IXMAX=   16   IYMAX=   16   IZMAX=   40
   IXMIN=  -16   IYMIN=  -16   IZMIN=  -40


 serial   3D FFT for wavefunctions
 parallel 3D FFT for charge:
    minimum data exchange during FFTs selected (reduces bandwidth)


 total amount of memory used by VASP MPI-rank0   121929. kBytes
=======================================================================

   base      :      30000. kBytes
   nonlr-proj:      13544. kBytes
   fftplans  :       4330. kBytes
   grid      :      17879. kBytes
   one-center:        575. kBytes
   wavefun   :      55601. kBytes
 
     INWAV:  cpu time    0.0000: real time    0.0000
 initial charge density was supplied:
 number of electron     397.0000039 magnetization 
 keeping initial charge density in first step


--------------------------------------------------------------------------------------------------------


 Maximum index for non-local projection operator         2121
 Maximum index for augmentation-charges          858 (set IRDMAX)


--------------------------------------------------------------------------------------------------------


 First call to EWALD:  gamma=   0.155
 Maximum number of real-space cells 4x 4x 2
 Maximum number of reciprocal cells 2x 2x 5

    FEWALD:  cpu time    0.0013: real time    0.0013


--------------------------------------- Iteration      1(   1)  ---------------------------------------


    POTLOK:  cpu time    0.0510: real time    0.0514
    SETDIJ:  cpu time    0.0049: real time    0.0050
     EDDAV:  cpu time    7.1728: real time    7.1746
 BZINTS: Fermi energy:   11.575679;  397.000000 electrons
         Band energy: 0.156725E+04;  BLOECHL correction:   -0.038860
       DOS:  cpu time    0.0108: real time    0.0108
    --------------------------------------------
      LOOP:  cpu time    7.2395: real time    7.2417

 eigenvalue-minimisations  :  5040
 total energy-change (2. order) : 0.2672466E+04  (-0.1791171E+05)
 number of electron     397.0000039 magnetization 
 augmentation part      397.0000039 magnetization 

 Free energy of the ion-electron system (eV)
  ---------------------------------------------------
  alpha Z        PSCENC =      1012.08917209
  Ewald energy   TEWEN  =     96887.74198946
  -Hartree energ DENC   =   -131155.75235494
  -exchange      EXHF   =         0.00000000
  -V(xc)+E(xc)   XCENC  =       524.35485555
  PAW double counting   =     36088.99087582   -35346.38374927
  entropy T*S    EENTRO =         0.00000000
  eigenvalues    EBANDS =      1567.25229482
  atomic energy  EATOM  =     33094.17276307
  Solvation  Ediel_sol  =         0.00000000
  ---------------------------------------------------
  free energy    TOTEN  =      2672.46584660 eV

  energy without entropy =     2672.46584660  energy(sigma->0) =     2672.46584660


--------------------------------------------------------------------------------------------------------




--------------------------------------- Iteration      1(   2)  ---------------------------------------


     EDDAV:  cpu time    7.5776: real time    7.5808
 BZINTS: Fermi energy:    1.506078;  397.000000 electrons
         Band energy:-0.107831E+04;  BLOECHL correction:   -0.095466
       DOS:  cpu time    0.0092: real time    0.0092
    --------------------------------------------
      LOOP:  cpu time    7.5869: real time    7.5900

 eigenvalue-minimisations  :  5432
 total energy-change (2. order) :-0.2645562E+04  (-0.2435523E+04)
 number of electron     397.0000039 magnetization 
 augmentation part      397.0000039 magnetization 

 Free energy of the ion-electron system (eV)
  ---------------------------------------------------
  alpha Z        PSCENC =      1012.08917209
  Ewald energy   TEWEN  =     96887.74198946
  -Hartree energ DENC   =   -131155.75235494
  -exchange      EXHF   =         0.00000000
  -V(xc)+E(xc)   XCENC  =       524.35485555
  PAW double counting   =     36088.99087582   -35346.38374927
  entropy T*S    EENTRO =         0.00000000
  eigenvalues    EBANDS =     -1078.30989421
  atomic energy  EATOM  =     33094.17276307
  Solvation  Ediel_sol  =         0.00000000
  ---------------------------------------------------
  free energy    TOTEN  =        26.90365757 eV

  energy without entropy =       26.90365757  energy(sigma->0) =       26.90365757


--------------------------------------------------------------------------------------------------------




--------------------------------------- Iteration      1(   3)  ---------------------------------------


     EDDAV:  cpu time    8.1563: real time    8.1568
 BZINTS: Fermi energy:    0.674184;  397.000000 electrons
         Band energy:-0.122310E+04;  BLOECHL correction:   -0.065680
       DOS:  cpu time    0.0103: real time    0.0103
    --------------------------------------------
      LOOP:  cpu time    8.1666: real time    8.1671

 eigenvalue-minimisations  :  5936
 total energy-change (2. order) :-0.1447942E+03  (-0.1384042E+03)
 number of electron     397.0000039 magnetization 
 augmentation part      397.0000039 magnetization 

 Free energy of the ion-electron system (eV)
  ---------------------------------------------------
  alpha Z        PSCENC =      1012.08917209
  Ewald energy   TEWEN  =     96887.74198946
  -Hartree energ DENC   =   -131155.75235494
  -exchange      EXHF   =         0.00000000
  -V(xc)+E(xc)   XCENC  =       524.35485555
  PAW double counting   =     36088.99087582   -35346.38374927
  entropy T*S    EENTRO =         0.00000000
  eigenvalues    EBANDS =     -1223.10414091
  atomic energy  EATOM  =     33094.17276307
  Solvation  Ediel_sol  =         0.00000000
  ---------------------------------------------------
  free energy    TOTEN  =      -117.89058913 eV

  energy without entropy =     -117.89058913  energy(sigma->0) =     -117.89058913


--------------------------------------------------------------------------------------------------------




--------------------------------------- Iteration      1(   4)  ---------------------------------------


     EDDAV:  cpu time    7.7109: real time    7.7112
 BZINTS: Fermi energy:    0.655922;  397.000000 electrons
         Band energy:-0.122676E+04;  BLOECHL correction:   -0.059305
       DOS:  cpu time    0.0101: real time    0.0101
    --------------------------------------------
      LOOP:  cpu time    7.7210: real time    7.7213

 eigenvalue-minimisations  :  5544
 total energy-change (2. order) :-0.3653687E+01  (-0.3646854E+01)
 number of electron     397.0000039 magnetization 
 augmentation part      397.0000039 magnetization 

 Free energy of the ion-electron system (eV)
  ---------------------------------------------------
  alpha Z        PSCENC =      1012.08917209
  Ewald energy   TEWEN  =     96887.74198946
  -Hartree energ DENC   =   -131155.75235494
  -exchange      EXHF   =         0.00000000
  -V(xc)+E(xc)   XCENC  =       524.35485555
  PAW double counting   =     36088.99087582   -35346.38374927
  entropy T*S    EENTRO =         0.00000000
  eigenvalues    EBANDS =     -1226.75782841
  atomic energy  EATOM  =     33094.17276307
  Solvation  Ediel_sol  =         0.00000000
  ---------------------------------------------------
  free energy    TOTEN  =      -121.54427663 eV

  energy without entropy =     -121.54427663  energy(sigma->0) =     -121.54427663


--------------------------------------------------------------------------------------------------------




--------------------------------------- Iteration      1(   5)  ---------------------------------------


     EDDAV:  cpu time    8.6477: real time    8.6480
 BZINTS: Fermi energy:    0.655359;  397.000000 electrons
         Band energy:-0.122689E+04;  BLOECHL correction:   -0.059229
       DOS:  cpu time    0.0097: real time    0.0096
    --------------------------------------------
      LOOP:  cpu time    8.6574: real time    8.6576

 eigenvalue-minimisations  :  6356
 total energy-change (2. order) :-0.1361898E+00  (-0.1361738E+00)
 number of electron     397.0000039 magnetization 
 augmentation part      397.0000039 magnetization 

 Free energy of the ion-electron system (eV)
  ---------------------------------------------------
  alpha Z        PSCENC =      1012.08917209
  Ewald energy   TEWEN  =     96887.74198946
  -Hartree energ DENC   =   -131155.75235494
  -exchange      EXHF   =         0.00000000
  -V(xc)+E(xc)   XCENC  =       524.35485555
  PAW double counting   =     36088.99087582   -35346.38374927
  entropy T*S    EENTRO =         0.00000000
  eigenvalues    EBANDS =     -1226.89401823
  atomic energy  EATOM  =     33094.17276307
  Solvation  Ediel_sol  =         0.00000000
  ---------------------------------------------------
  free energy    TOTEN  =      -121.68046645 eV

  energy without entropy =     -121.68046645  energy(sigma->0) =     -121.68046645


--------------------------------------------------------------------------------------------------------




--------------------------------------- Iteration      1(   6)  ---------------------------------------


    EDDIAG:  cpu time    1.4025: real time    1.4027
  RMM-DIIS:  cpu time    4.0194: real time    4.0195
    ORTHCH:  cpu time    0.2625: real time    0.2625
 BZINTS: Fermi energy:    0.655356;  397.000000 electrons
         Band energy:-0.122690E+04;  BLOECHL correction:   -0.059228
       DOS:  cpu time    0.0096: real time    0.0096
    --------------------------------------------
      LOOP:  cpu time    5.6940: real time    5.6943

 eigenvalue-minimisations  :  5152
 total energy-change (2. order) :-0.3860463E-02  (-0.3860613E-02)
 number of electron     397.0000039 magnetization 
 augmentation part      397.0000039 magnetization 

 Free energy of the ion-electron system (eV)
  ---------------------------------------------------
  alpha Z        PSCENC =      1012.08917209
  Ewald energy   TEWEN  =     96887.74198946
  -Hartree energ DENC   =   -131155.75235494
  -exchange      EXHF   =         0.00000000
  -V(xc)+E(xc)   XCENC  =       524.35485555
  PAW double counting   =     36088.99087582   -35346.38374927
  entropy T*S    EENTRO =         0.00000000
  eigenvalues    EBANDS =     -1226.89787869
  atomic energy  EATOM  =     33094.17276307
  Solvation  Ediel_sol  =         0.00000000
  ---------------------------------------------------
  free energy    TOTEN  =      -121.68432691 eV

  energy without entropy =     -121.68432691  energy(sigma->0) =     -121.68432691


--------------------------------------------------------------------------------------------------------




--------------------------------------- Iteration      1(   7)  ---------------------------------------


    EDDIAG:  cpu time    1.4012: real time    1.4013
  RMM-DIIS:  cpu time    5.7843: real time    5.7844
    ORTHCH:  cpu time    0.2628: real time    0.2628
 BZINTS: Fermi energy:    0.655356;  397.000000 electrons
         Band energy:-0.122690E+04;  BLOECHL correction:   -0.059227
       DOS:  cpu time    0.0102: real time    0.0102
    --------------------------------------------
      LOOP:  cpu time    7.4585: real time    7.4587

 eigenvalue-minimisations  :  7471
 total energy-change (2. order) :-0.2189440E-02  (-0.2130603E-02)
 number of electron     397.0000039 magnetization 
 augmentation part      397.0000039 magnetization 

 Free energy of the ion-electron system (eV)
  ---------------------------------------------------
  alpha Z        PSCENC =      1012.08917209
  Ewald energy   TEWEN  =     96887.74198946
  -Hartree energ DENC   =   -131155.75235494
  -exchange      EXHF   =         0.00000000
  -V(xc)+E(xc)   XCENC  =       524.35485555
  PAW double counting   =     36088.99087582   -35346.38374927
  entropy T*S    EENTRO =         0.00000000
  eigenvalues    EBANDS =     -1226.90006813
  atomic energy  EATOM  =     33094.17276307
  Solvation  Ediel_sol  =         0.00000000
  ---------------------------------------------------
  free energy    TOTEN  =      -121.68651635 eV

  energy without entropy =     -121.68651635  energy(sigma->0) =     -121.68651635


--------------------------------------------------------------------------------------------------------




--------------------------------------- Iteration      1(   8)  ---------------------------------------


    EDDIAG:  cpu time    1.4017: real time    1.4019
  RMM-DIIS:  cpu time    5.5020: real time    5.5022
    ORTHCH:  cpu time    0.2623: real time    0.2623
 BZINTS: Fermi energy:    0.655355;  397.000000 electrons
         Band energy:-0.122690E+04;  BLOECHL correction:   -0.059227
       DOS:  cpu time    0.0096: real time    0.0096
    --------------------------------------------
      LOOP:  cpu time    7.1756: real time    7.1760

 eigenvalue-minimisations  :  7048
 total energy-change (2. order) :-0.2374231E-03  (-0.2349306E-03)
 number of electron     397.0000039 magnetization 
 augmentation part      397.0000039 magnetization 

 Free energy of the ion-electron system (eV)
  ---------------------------------------------------
  alpha Z        PSCENC =      1012.08917209
  Ewald energy   TEWEN  =     96887.74198946
  -Hartree energ DENC   =   -131155.75235494
  -exchange      EXHF   =         0.00000000
  -V(xc)+E(xc)   XCENC  =       524.35485555
  PAW double counting   =     36088.99087582   -35346.38374927
  entropy T*S    EENTRO =         0.00000000
  eigenvalues    EBANDS =     -1226.90030555
  atomic energy  EATOM  =     33094.17276307
  Solvation  Ediel_sol  =         0.00000000
  ---------------------------------------------------
  free energy    TOTEN  =      -121.68675377 eV

  energy without entropy =     -121.68675377  energy(sigma->0) =     -121.68675377


--------------------------------------------------------------------------------------------------------




--------------------------------------- Iteration      1(   9)  ---------------------------------------


    EDDIAG:  cpu time    1.4022: real time    1.4023
  RMM-DIIS:  cpu time    5.1849: real time    5.1851
    ORTHCH:  cpu time    0.2626: real time    0.2626
 BZINTS: Fermi energy:    0.655355;  397.000000 electrons
         Band energy:-0.122690E+04;  BLOECHL correction:   -0.059227
       DOS:  cpu time    0.0103: real time    0.0103
    --------------------------------------------
      LOOP:  cpu time    6.8600: real time    6.8604

 eigenvalue-minimisations  :  6319
 total energy-change (2. order) :-0.3695642E-04  (-0.3675737E-04)
 number of electron     397.0000039 magnetization 
 augmentation part      397.0000039 magnetization 

 Free energy of the ion-electron system (eV)
  ---------------------------------------------------
  alpha Z        PSCENC =      1012.08917209
  Ewald energy   TEWEN  =     96887.74198946
  -Hartree energ DENC   =   -131155.75235494
  -exchange      EXHF   =         0.00000000
  -V(xc)+E(xc)   XCENC  =       524.35485555
  PAW double counting   =     36088.99087582   -35346.38374927
  entropy T*S    EENTRO =         0.00000000
  eigenvalues    EBANDS =     -1226.90034251
  atomic energy  EATOM  =     33094.17276307
  Solvation  Ediel_sol  =         0.00000000
  ---------------------------------------------------
  free energy    TOTEN  =      -121.68679073 eV

  energy without entropy =     -121.68679073  energy(sigma->0) =     -121.68679073


--------------------------------------------------------------------------------------------------------




--------------------------------------- Iteration      1(  10)  ---------------------------------------


    EDDIAG:  cpu time    1.4009: real time    1.4012
  RMM-DIIS:  cpu time    3.4048: real time    3.4049
    ORTHCH:  cpu time    0.2628: real time    0.2628
 BZINTS: Fermi energy:    0.655355;  397.000000 electrons
         Band energy:-0.122690E+04;  BLOECHL correction:   -0.059227
       DOS:  cpu time    0.0098: real time    0.0098
    --------------------------------------------
      LOOP:  cpu time    5.0784: real time    5.0788

 eigenvalue-minimisations  :  3819
 total energy-change (2. order) :-0.4134665E-05  (-0.4094150E-05)
 number of electron     397.0000039 magnetization 
 augmentation part      397.0000039 magnetization 

 Free energy of the ion-electron system (eV)
  ---------------------------------------------------
  alpha Z        PSCENC =      1012.08917209
  Ewald energy   TEWEN  =     96887.74198946
  -Hartree energ DENC   =   -131155.75235494
  -exchange      EXHF   =         0.00000000
  -V(xc)+E(xc)   XCENC  =       524.35485555
  PAW double counting   =     36088.99087582   -35346.38374927
  entropy T*S    EENTRO =         0.00000000
  eigenvalues    EBANDS =     -1226.90034665
  atomic energy  EATOM  =     33094.17276307
  Solvation  Ediel_sol  =         0.00000000
  ---------------------------------------------------
  free energy    TOTEN  =      -121.68679487 eV

  energy without entropy =     -121.68679487  energy(sigma->0) =     -121.68679487


--------------------------------------------------------------------------------------------------------




 average (electrostatic) potential at core
  the test charge radii are     1.2098  1.0210  0.7089
  (the norm of the test charge is              1.0000)
       1 -72.3743       2 -72.3653       3 -72.3652       4 -72.3653       5 -72.3702
       6 -72.3650       7 -72.3652       8 -72.3650       9 -72.3633      10 -72.7137
      11 -72.6991      12 -72.7134      13 -72.6991      14 -72.6987      15 -72.7087
      16 -72.7134      17 -72.7087      18 -72.7087      19 -72.6431      20 -72.8822
      21 -72.8818      22 -72.6856      23 -72.8818      24 -72.6854      25 -72.6429
      26 -72.6430      27 -72.6856      28 -72.2774      29 -72.3314      30 -72.3313
      31 -72.3314      32 -72.3311      33 -72.3313      34 -72.3311      35 -72.2358
      36 -49.4747      37 -68.9323
 
 
 
 E-fermi :   0.6554     XC(G=0):  -6.1208     alpha+bet : -5.7373

 Fermi energy:         0.6553554675

 k-point     1 :       0.0000    0.0000    0.0000
  band No.  band energies     occupation 
      1     -12.9728      2.00000
      2      -8.1612      2.00000
      3      -6.9574      2.00000
      4      -6.0514      2.00000
      5      -6.0250      2.00000
      6      -6.0250      2.00000
      7      -6.0222      2.00000
      8      -5.9958      2.00000
      9      -5.9696      2.00000
     10      -5.9696      2.00000
     11      -5.8465      2.00000
     12      -5.5453      2.00000
     13      -5.5375      2.00000
     14      -5.5375      2.00000
     15      -5.5061      2.00000
     16      -5.4768      2.00000
     17      -5.4768      2.00000
     18      -5.1532      2.00000
     19      -5.1532      2.00000
     20      -5.1388      2.00000
     21      -5.1223      2.00000
     22      -5.0895      2.00000
     23      -5.0895      2.00000
     24      -4.9787      2.00000
     25      -4.9680      2.00000
     26      -4.9679      2.00000
     27      -4.9362      2.00000
     28      -4.9354      2.00000
     29      -4.9353      2.00000
     30      -4.8061      2.00000
     31      -4.8061      2.00000
     32      -4.7869      2.00000
     33      -4.7816      2.00000
     34      -4.7815      2.00000
     35      -4.7651      2.00000
     36      -4.7618      2.00000
     37      -4.7617      2.00000
     38      -4.7499      2.00000
     39      -4.6293      2.00000
     40      -4.5980      2.00000
     41      -4.5980      2.00000
     42      -4.2819      2.00000
     43      -4.2819      2.00000
     44      -4.2788      2.00000
     45      -4.2511      2.00000
     46      -4.2511      2.00000
     47      -4.2166      2.00000
     48      -4.2165      2.00000
     49      -4.1955      2.00000
     50      -4.1677      2.00000
     51      -4.1677      2.00000
     52      -4.1296      2.00000
     53      -4.1172      2.00000
     54      -4.1113      2.00000
     55      -4.0725      2.00000
     56      -3.7733      2.00000
     57      -3.7733      2.00000
     58      -3.7043      2.00000
     59      -3.6885      2.00000
     60      -3.6705      2.00000
     61      -3.6705      2.00000
     62      -3.6670      2.00000
     63      -3.6276      2.00000
     64      -3.6276      2.00000
     65      -3.6146      2.00000
     66      -3.6146      2.00000
     67      -3.5760      2.00000
     68      -3.5760      2.00000
     69      -3.5238      2.00000
     70      -3.5144      2.00000
     71      -3.5144      2.00000
     72      -3.4865      2.00000
     73      -3.4388      2.00000
     74      -3.4388      2.00000
     75      -3.4352      2.00000
     76      -3.4272      2.00000
     77      -3.4216      2.00000
     78      -3.4216      2.00000
     79      -3.4154      2.00000
     80      -3.4153      2.00000
     81      -3.4093      2.00000
     82      -3.4093      2.00000
     83      -3.3684      2.00000
     84      -3.3457      2.00000
     85      -3.3457      2.00000
     86      -3.3321      2.00000
     87      -3.3157      2.00000
     88      -3.3157      2.00000
     89      -3.2886      2.00000
     90      -3.2885      2.00000
     91      -3.2750      2.00000
     92      -3.1956      2.00000
     93      -3.1956      2.00000
     94      -3.0350      2.00000
     95      -3.0350      2.00000
     96      -3.0068      2.00000
     97      -3.0068      2.00000
     98      -2.9979      2.00000
     99      -2.9979      2.00000
    100      -2.9078      2.00000
    101      -2.8333      2.00000
    102      -2.8332      2.00000
    103      -2.8116      2.00000
    104      -2.8099      2.00000
    105      -2.8099      2.00000
    106      -2.6719      2.00000
    107      -2.6489      2.00000
    108      -2.6340      2.00000
    109      -2.6340      2.00000
    110      -2.6133      2.00000
    111      -2.6133      2.00000
    112      -2.5894      2.00000
    113      -2.5894      2.00000
    114      -2.5651      2.00000
    115      -2.5277      2.00000
    116      -2.5036      2.00000
    117      -2.4570      2.00000
    118      -2.4569      2.00000
    119      -2.4182      2.00000
    120      -2.3582      2.00000
    121      -2.3146      2.00000
    122      -2.3146      2.00000
    123      -2.2533      2.00000
    124      -2.2532      2.00000
    125      -2.2487      2.00000
    126      -2.2303      2.00000
    127      -2.2303      2.00000
    128      -2.1919      2.00000
    129      -2.1919      2.00000
    130      -2.1793      2.00000
    131      -2.1793      2.00000
    132      -2.0715      2.00000
    133      -2.0715      2.00000
    134      -2.0702      2.00000
    135      -2.0511      2.00000
    136      -2.0511      2.00000
    137      -2.0409      2.00000
    138      -2.0244      2.00000
    139      -2.0141      2.00000
    140      -2.0141      2.00000
    141      -1.9218      2.00000
    142      -1.9218      2.00000
    143      -1.8865      2.00000
    144      -1.8187      2.00000
    145      -1.8187      2.00000
    146      -1.8084      2.00000
    147      -1.8050      2.00000
    148      -1.8050      2.00000
    149      -1.7851      2.00000
    150      -1.7851      2.00000
    151      -1.7684      2.00000
    152      -1.7479      2.00000
    153      -1.7478      2.00000
    154      -1.7313      2.00000
    155      -1.7194      2.00000
    156      -1.6705      2.00000
    157      -1.6705      2.00000
    158      -1.6289      2.00000
    159      -1.6038      2.00000
    160      -1.5944      2.00000
    161      -1.5944      2.00000
    162      -1.5942      2.00000
    163      -1.5723      2.00000
    164      -1.5723      2.00000
    165      -1.5618      2.00000
    166      -1.5507      2.00000
    167      -1.5507      2.00000
    168      -1.5306      2.00000
    169      -1.5306      2.00000
    170      -1.4955      2.00000
    171      -1.4955      2.00000
    172      -1.4775      2.00000
    173      -1.4755      2.00000
    174      -1.4711      2.00000
    175      -1.4685      2.00000
    176      -1.4685      2.00000
    177      -1.4486      2.00000
    178      -1.4179      2.00000
    179      -1.4178      2.00000
    180      -1.4017      2.00000
    181      -1.3788      2.00000
    182      -1.3788      2.00000
    183      -1.3711      2.00000
    184      -1.3596      2.00000
    185      -1.3596      2.00000
    186      -1.3326      2.00000
    187      -1.2260      2.00000
    188      -1.2259      2.00000
    189      -1.1799      2.00000
    190      -1.1799      2.00000
    191      -1.1741      2.00000
    192      -1.1370      2.00000
    193      -1.1369      2.00000
    194      -1.1279      2.00000
    195      -0.2840      2.00000
    196       0.0740      2.00000
    197       0.0905      2.00000
    198       0.0906      2.00000
    199       0.1551      2.00000
    200       0.1952      2.00000
    201       0.1953      2.00000
    202       0.5456      2.00000
    203       0.5456      2.43833
    204       1.1572      0.00000
    205       1.9463      0.00000
    206       2.0793      0.00000
    207       2.0793      0.00000
    208       2.2407      0.00000
    209       2.2946      0.00000
    210       2.2947      0.00000
    211       2.3460      0.00000
    212       2.3460      0.00000
    213       3.4367      0.00000
    214       3.4367      0.00000
    215       3.4487      0.00000
    216       3.5202      0.00000
    217       3.5497      0.00000
    218       3.5497      0.00000
    219       3.7941      0.00000
    220       4.1107      0.00000
    221       4.8733      0.00000
    222       5.2436      0.00000
    223       5.2436      0.00000
    224       5.3024      0.00000
    225       5.3737      0.00000
    226       5.3737      0.00000
    227       5.3936      0.00000
    228       5.4177      0.00000
    229       5.4177      0.00000
    230       5.6196      0.00000
    231       5.6196      0.00000
    232       5.7305      0.00000
    233       5.7450      0.00000
    234       6.1388      0.00000
    235       6.7706      0.00000
    236       6.9310      0.00000
    237       6.9442      0.00000
    238       6.9444      0.00000
    239       7.0038      0.00000
    240       7.0044      0.00000
    241       7.0113      0.00000
    242       7.0809      0.00000
    243       7.0826      0.00000
    244       7.0857      0.00000
    245       7.2561      0.00000
    246       7.2572      0.00000
    247       7.2670      0.00000
    248       7.3804      0.00000
    249       7.3866      0.00000
    250       7.4758      0.00000
    251       7.5436      0.00000
    252       7.5962      0.00000

 k-point     2 :       0.1250   -0.0000    0.0000
  band No.  band energies     occupation 
      1     -12.9726      2.00000
      2      -8.1105      2.00000
      3      -6.9083      2.00000
      4      -6.2624      2.00000
      5      -6.0871      2.00000
      6      -6.0770      2.00000
      7      -5.9767      2.00000
      8      -5.9086      2.00000
      9      -5.8797      2.00000
     10      -5.8699      2.00000
     11      -5.8032      2.00000
     12      -5.5721      2.00000
     13      -5.5256      2.00000
     14      -5.5136      2.00000
     15      -5.5136      2.00000
     16      -5.4679      2.00000
     17      -5.4540      2.00000
     18      -5.2003      2.00000
     19      -5.1490      2.00000
     20      -5.1441      2.00000
     21      -5.1011      2.00000
     22      -5.0721      2.00000
     23      -5.0695      2.00000
     24      -5.0239      2.00000
     25      -4.9791      2.00000
     26      -4.9689      2.00000
     27      -4.9290      2.00000
     28      -4.9101      2.00000
     29      -4.8690      2.00000
     30      -4.8682      2.00000
     31      -4.8547      2.00000
     32      -4.8439      2.00000
     33      -4.8253      2.00000
     34      -4.7551      2.00000
     35      -4.7412      2.00000
     36      -4.7260      2.00000
     37      -4.6717      2.00000
     38      -4.6494      2.00000
     39      -4.5957      2.00000
     40      -4.5831      2.00000
     41      -4.5756      2.00000
     42      -4.3531      2.00000
     43      -4.3502      2.00000
     44      -4.3163      2.00000
     45      -4.2957      2.00000
     46      -4.2819      2.00000
     47      -4.2698      2.00000
     48      -4.2394      2.00000
     49      -4.1656      2.00000
     50      -4.1479      2.00000
     51      -4.1108      2.00000
     52      -4.0985      2.00000
     53      -4.0874      2.00000
     54      -4.0711      2.00000
     55      -4.0604      2.00000
     56      -3.7992      2.00000
     57      -3.7809      2.00000
     58      -3.7526      2.00000
     59      -3.7266      2.00000
     60      -3.7060      2.00000
     61      -3.6848      2.00000
     62      -3.6799      2.00000
     63      -3.6728      2.00000
     64      -3.6620      2.00000
     65      -3.6531      2.00000
     66      -3.6444      2.00000
     67      -3.6166      2.00000
     68      -3.6132      2.00000
     69      -3.5792      2.00000
     70      -3.5732      2.00000
     71      -3.5507      2.00000
     72      -3.5343      2.00000
     73      -3.5161      2.00000
     74      -3.5019      2.00000
     75      -3.4748      2.00000
     76      -3.4639      2.00000
     77      -3.4348      2.00000
     78      -3.4276      2.00000
     79      -3.3991      2.00000
     80      -3.3990      2.00000
     81      -3.3744      2.00000
     82      -3.3742      2.00000
     83      -3.3580      2.00000
     84      -3.3186      2.00000
     85      -3.3147      2.00000
     86      -3.2932      2.00000
     87      -3.2890      2.00000
     88      -3.2623      2.00000
     89      -3.2562      2.00000
     90      -3.2302      2.00000
     91      -3.2141      2.00000
     92      -3.1674      2.00000
     93      -3.1464      2.00000
     94      -3.1078      2.00000
     95      -3.1046      2.00000
     96      -3.0215      2.00000
     97      -3.0180      2.00000
     98      -2.9786      2.00000
     99      -2.9307      2.00000
    100      -2.9292      2.00000
    101      -2.8676      2.00000
    102      -2.8636      2.00000
    103      -2.8505      2.00000
    104      -2.8013      2.00000
    105      -2.8004      2.00000
    106      -2.7504      2.00000
    107      -2.7269      2.00000
    108      -2.6854      2.00000
    109      -2.6592      2.00000
    110      -2.6508      2.00000
    111      -2.6321      2.00000
    112      -2.6289      2.00000
    113      -2.6068      2.00000
    114      -2.5909      2.00000
    115      -2.5765      2.00000
    116      -2.5674      2.00000
    117      -2.5419      2.00000
    118      -2.5397      2.00000
    119      -2.5103      2.00000
    120      -2.4587      2.00000
    121      -2.4060      2.00000
    122      -2.3873      2.00000
    123      -2.3729      2.00000
    124      -2.3106      2.00000
    125      -2.2909      2.00000
    126      -2.2681      2.00000
    127      -2.2254      2.00000
[...]
  0.000   0.000   0.000   0.000   0.000   0.000   0.000   0.000   0.000   0.000   0.000   0.000   0.000   0.000   0.000   0.000
  0.000   0.000   0.000   0.000   0.000   0.000   0.000   0.000   0.000   0.000   0.000   0.000   0.000   0.000   0.000   0.000
  0.000   0.000   0.000   0.000   0.000   0.000   0.000   0.000   0.000   0.000   0.000   0.000   0.000   0.000   0.000   0.000
  0.000   0.000   0.000   0.000   0.000   0.000   0.000   0.000   0.000   0.000   0.000   0.000   0.000   0.000   0.000   0.000
  0.000   0.000   0.000   0.000   0.000   0.000   0.000   0.000   0.000   0.000   0.000   0.000   0.000   0.000   0.000   0.000
  0.000   0.000   0.000   0.000   0.000   0.000   0.000   0.000   0.000   0.000   1.000   0.000   0.000   0.000   0.000   0.000
  0.000   0.000   0.000   0.000   0.000   0.000   0.000   0.000   0.000   0.000   0.000   0.000   0.000   0.000   0.000   0.000
  0.000   0.000   0.000   0.000   0.000   0.000   0.000   0.000   0.000   0.000   0.000   0.000   0.000   0.000   0.000   0.000
  0.000   0.000   0.000   0.000   0.000   0.000   0.000   0.000   0.000   0.000   0.000   0.000   0.000   0.000   0.000   0.000
  0.000   0.000   0.000   0.000   0.000   0.000   0.000   0.000   0.000   0.000   0.000   0.000   0.000   0.000   0.000   0.000
  0.000   0.000   0.000   0.000   0.000   0.000   0.000   0.000   0.000   0.000   0.000   0.000   0.000   0.000   0.000   0.000
  0.000   0.000   0.000   0.000   0.000   0.000   0.000   0.000   0.000   0.000   0.000   0.000   0.000   0.000   0.000   0.000
  0.000   0.000   0.000   0.000   0.000   0.000   0.000   0.000   0.000   0.000   0.000   0.000   0.000   0.000   0.000   0.000


------------------------ aborting loop because EDIFF is reached ----------------------------------------





 total charge

# of ion       s       p       d       tot
------------------------------------------
    1        0.547   0.239   8.766   9.552
    2        0.543   0.241   8.764   9.549
    3        0.543   0.241   8.764   9.549
    4        0.543   0.241   8.764   9.549
    5        0.543   0.240   8.764   9.547
    6        0.543   0.241   8.764   9.549
    7        0.543   0.241   8.764   9.549
    8        0.543   0.241   8.764   9.549
    9        0.544   0.241   8.766   9.550
   10        0.519   0.308   8.771   9.597
   11        0.518   0.310   8.775   9.603
   12        0.519   0.308   8.771   9.597
   13        0.518   0.310   8.775   9.603
   14        0.518   0.310   8.775   9.603
   15        0.516   0.310   8.772   9.598
   16        0.519   0.308   8.771   9.597
   17        0.516   0.310   8.772   9.598
   18        0.516   0.310   8.772   9.598
   19        0.517   0.297   8.777   9.591
   20        0.547   0.333   8.750   9.630
   21        0.547   0.333   8.750   9.630
   22        0.512   0.312   8.772   9.595
   23        0.547   0.333   8.750   9.630
   24        0.512   0.312   8.772   9.595
   25        0.517   0.297   8.777   9.591
   26        0.517   0.297   8.777   9.591
   27        0.512   0.312   8.772   9.595
   28        0.544   0.221   8.763   9.528
   29        0.546   0.238   8.765   9.550
   30        0.546   0.238   8.765   9.550
   31        0.546   0.238   8.765   9.550
   32        0.546   0.238   8.765   9.550
   33        0.546   0.238   8.765   9.550
   34        0.546   0.238   8.765   9.550
   35        0.539   0.222   8.768   9.529
   36        0.363   0.428   5.325   6.117
   37        1.364   2.175   0.000   3.539
--------------------------------------------------
tot         20.366  12.253 312.180 344.800
 
    CHARGE:  cpu time    0.3352: real time    0.3353
    FORLOC:  cpu time    0.0101: real time    0.0101
    FORNL :  cpu time    1.4410: real time    1.4412
    STRESS:  cpu time    4.3180: real time    4.3182
    FORCOR:  cpu time    0.0448: real time    0.0449
    FORHAR:  cpu time    0.0165: real time    0.0166
    OFIELD:  cpu time    0.0002: real time    0.0002

  FORCE on cell =-STRESS in cart. coord.  units (eV):
  Direction    XX          YY          ZZ          XY          YZ          ZX
  --------------------------------------------------------------------------------------
  Alpha Z  1012.08917  1012.08917  1012.08917
  Ewald  119474.55524119474.55566************    -0.00032    -0.00009    -0.00013
  Hartree128147.01118128147.01119************     0.00001    -0.00002    -0.00003
  E(xc)   -1780.95838 -1780.95836 -1788.24823    -0.00002     0.00000     0.00000
  Local  ************************260083.31064     0.00193     0.00003     0.00001
  n-local  -112.30080   -64.58270   -64.10666    23.19912    -1.56123     1.64981
  augment  2397.95662  2397.95814  2407.04344    -0.00132    -0.00000     0.00006
  Kinetic  5510.30534  5520.42460  5548.29442     5.60479     0.11288     0.30689
  Fock        0.00000     0.00000     0.00000     0.00000     0.00000     0.00000
  -------------------------------------------------------------------------------------
  Total     -19.88583   -19.88583     1.74260    -0.00000     0.00000     0.00000
  in kB     -21.33767   -21.33767     1.86983    -0.00000     0.00000     0.00000
  external pressure =      -13.60 kB  Pullay stress =        0.00 kB


 VOLUME and BASIS-vectors are now :
 -----------------------------------------------------------------------------
  energy-cutoff  :      500.00
  volume of cell :     1493.16
      direct lattice vectors                 reciprocal lattice vectors
     8.813512802  0.000000000  0.000000000     0.113462137 -0.065507406  0.000000000
     4.406756909  7.632725690  0.000000000     0.000000000  0.131014796  0.000000000
     0.000000000  0.000000000 22.196203232     0.000000000  0.000000000  0.045052750

  length of vectors
     8.813512802  8.813512802 22.196203232     0.131014796  0.131014796  0.045052750


 FORCES acting on ions
    electron-ion (+dipol)            ewald-force                    non-local-force                 convergence-correction
 -----------------------------------------------------------------------------------------------
   -.195E-04 -.162E-04 0.248E+04   0.519E-04 0.434E-04 -.248E+04   0.487E-17 0.942E-18 -.533E+00   -.296E-03 -.184E-03 -.767E-01
   0.599E+00 0.276E+00 0.249E+04   -.627E+00 -.317E+00 -.248E+04   -.366E-02 0.116E-01 -.352E+00   0.323E-01 0.287E-01 -.101E+00
   -.599E+00 0.276E+00 0.249E+04   0.626E+00 -.317E+00 -.248E+04   0.366E-02 0.116E-01 -.352E+00   -.319E-01 0.306E-01 -.101E+00
   0.539E+00 0.381E+00 0.249E+04   -.588E+00 -.384E+00 -.248E+04   0.819E-02 -.896E-02 -.352E+00   0.410E-01 0.136E-01 -.101E+00
   0.915E-05 -.229E-04 0.249E+04   0.951E-04 0.174E-05 -.249E+04   -.539E-18 -.182E-17 -.382E+00   0.432E-02 0.263E-02 -.890E-01
   -.539E+00 0.381E+00 0.249E+04   0.588E+00 -.384E+00 -.248E+04   -.819E-02 -.896E-02 -.352E+00   -.426E-01 0.144E-01 -.100E+00
   -.605E-01 -.657E+00 0.249E+04   0.387E-01 0.701E+00 -.248E+04   0.119E-01 -.261E-02 -.352E+00   0.106E-01 -.429E-01 -.100E+00
   0.605E-01 -.657E+00 0.249E+04   -.389E-01 0.701E+00 -.248E+04   -.119E-01 -.261E-02 -.352E+00   -.880E-02 -.441E-01 -.100E+00
   0.196E-04 -.416E-04 0.249E+04   0.166E-03 -.201E-04 -.248E+04   -.300E-17 0.418E-18 -.411E+00   -.456E-02 -.236E-02 -.872E-01
   0.441E+01 0.255E+01 0.832E+03   -.430E+01 -.248E+01 -.832E+03   -.171E+00 -.985E-01 -.468E+00   0.430E-01 0.247E-01 -.309E-01
   0.149E-04 0.502E+01 0.841E+03   0.147E-03 -.515E+01 -.840E+03   0.378E-08 0.568E-01 -.441E+00   0.436E-02 0.319E-01 -.983E-01
   -.441E+01 0.255E+01 0.832E+03   0.430E+01 -.248E+01 -.832E+03   0.171E+00 -.985E-01 -.468E+00   -.448E-01 0.260E-01 -.302E-01
   0.435E+01 -.251E+01 0.841E+03   -.446E+01 0.258E+01 -.840E+03   0.492E-01 -.284E-01 -.441E+00   0.301E-01 -.119E-01 -.983E-01
   -.435E+01 -.251E+01 0.841E+03   0.446E+01 0.258E+01 -.840E+03   -.492E-01 -.284E-01 -.441E+00   -.224E-01 -.131E-01 -.989E-01
   0.311E-04 0.386E+01 0.836E+03   0.236E-03 -.390E+01 -.836E+03   0.814E-09 0.122E-01 -.411E+00   -.249E-02 -.106E-01 -.522E-01
   -.214E-04 -.510E+01 0.832E+03   0.163E-03 0.497E+01 -.832E+03   0.131E-07 0.197E+00 -.468E+00   -.178E-03 -.518E-01 -.302E-01
   0.334E+01 -.193E+01 0.836E+03   -.338E+01 0.195E+01 -.836E+03   0.106E-01 -.612E-02 -.411E+00   -.102E-01 0.357E-02 -.522E-01
   -.334E+01 -.193E+01 0.836E+03   0.338E+01 0.195E+01 -.836E+03   -.106E-01 -.612E-02 -.411E+00   0.108E-01 0.597E-02 -.509E-01
   -.411E-04 0.203E+01 -.850E+03   0.543E-04 -.207E+01 0.850E+03   0.208E-08 0.312E-01 0.685E+00   -.463E-02 -.286E-01 -.192E+00
   0.212E+02 0.123E+02 -.811E+03   -.204E+02 -.118E+02 0.811E+03   -.923E+00 -.533E+00 -.605E+00   -.842E-02 -.499E-02 -.213E+00
   -.212E+02 0.123E+02 -.811E+03   0.204E+02 -.118E+02 0.811E+03   0.923E+00 -.533E+00 -.605E+00   0.107E-01 -.537E-02 -.213E+00
   0.213E+01 -.123E+01 -.835E+03   -.254E+01 0.147E+01 0.834E+03   0.387E+00 -.223E+00 0.650E+00   0.528E-01 -.286E-01 -.241E+00
   -.926E-05 -.245E+02 -.811E+03   0.141E-03 0.236E+02 0.811E+03   0.710E-07 0.107E+01 -.605E+00   0.440E-03 0.120E-01 -.213E+00
   -.213E+01 -.123E+01 -.835E+03   0.254E+01 0.147E+01 0.834E+03   -.387E+00 -.223E+00 0.650E+00   -.528E-01 -.305E-01 -.241E+00
   -.176E+01 -.102E+01 -.850E+03   0.179E+01 0.103E+01 0.850E+03   -.271E-01 -.156E-01 0.685E+00   0.204E-01 0.117E-01 -.192E+00
   0.176E+01 -.102E+01 -.850E+03   -.179E+01 0.103E+01 0.850E+03   0.271E-01 -.156E-01 0.685E+00   -.268E-01 0.103E-01 -.192E+00
   0.117E-04 0.246E+01 -.835E+03   0.196E-03 -.293E+01 0.834E+03   0.297E-07 0.446E+00 0.650E+00   0.106E-02 0.600E-01 -.241E+00
   -.126E-04 -.131E-04 -.247E+04   0.296E-04 0.338E-04 0.247E+04   0.479E-18 -.282E-17 0.597E+00   -.366E-03 -.228E-03 0.528E-01
   0.300E+02 0.486E+02 -.245E+04   -.296E+02 -.482E+02 0.245E+04   -.548E+00 -.785E+00 0.725E+00   -.290E-01 0.128E-01 0.534E-01
   -.300E+02 0.486E+02 -.245E+04   0.296E+02 -.482E+02 0.245E+04   0.548E+00 -.785E+00 0.725E+00   0.297E-01 0.143E-01 0.526E-01
   0.571E+02 0.166E+01 -.245E+04   -.565E+02 -.154E+01 0.245E+04   -.954E+00 -.819E-01 0.725E+00   -.331E-02 -.316E-01 0.535E-01
   -.571E+02 0.166E+01 -.245E+04   0.565E+02 -.154E+01 0.245E+04   0.954E+00 -.819E-01 0.725E+00   0.223E-02 -.312E-01 0.528E-01
   0.271E+02 -.503E+02 -.245E+04   -.269E+02 0.497E+02 0.245E+04   -.406E+00 0.867E+00 0.725E+00   0.273E-01 0.186E-01 0.526E-01
   -.271E+02 -.503E+02 -.245E+04   0.269E+02 0.497E+02 0.245E+04   0.406E+00 0.867E+00 0.725E+00   -.259E-01 0.176E-01 0.528E-01
   0.349E-04 -.291E-04 -.248E+04   0.141E-03 -.491E-04 0.248E+04   -.195E-16 0.556E-17 0.602E+00   -.427E-02 -.217E-02 0.111E+00
   -.222E-04 -.149E-04 -.131E+04   0.740E-04 0.688E-05 0.131E+04   0.238E-17 0.211E-17 0.379E+01   0.324E-02 0.198E-02 -.479E-02
   0.108E-03 -.561E-04 -.140E+04   0.249E-04 0.158E-05 0.142E+04   0.339E-18 -.384E-18 -.202E+02   0.179E-02 0.109E-02 -.993E-01
 -----------------------------------------------------------------------------------------------
   -.669E-03 -.834E-03 0.193E+02   -.114E-14 0.192E-12 0.659E-11   -.627E-15 -.437E-15 -.160E+02   0.242E-02 0.208E-02 -.296E+01
 
 
 POSITION                                       TOTAL-FORCE (eV/Angst)
 -----------------------------------------------------------------------------------
      0.00000      0.00000      5.28038         0.000000      0.000000     -0.106301
      2.93784      0.00000      5.28038         0.001817      0.000537     -0.049180
      5.87568      0.00000      5.28038        -0.001817      0.000537     -0.049180
      1.46892      2.54424      5.28038         0.001373      0.001305     -0.049180
      4.40676      2.54424      5.28038         0.000000      0.000000     -0.088205
      7.34459      2.54424      5.28038        -0.001373      0.001305     -0.049180
      2.93784      5.08848      5.28038        -0.000444     -0.001842     -0.049180
      5.87568      5.08848      5.28038         0.000444     -0.001842     -0.049180
      8.81351      5.08848      5.28038         0.000000     -0.000000     -0.062785
      1.46892      0.84808      7.67911        -0.016144     -0.009320      0.107847
      4.40676      0.84808      7.67911        -0.000000     -0.043027      0.046976
      7.34459      0.84808      7.67911         0.016144     -0.009320      0.107847
      2.93784      3.39232      7.67911        -0.037262      0.021513      0.046976
      5.87568      3.39232      7.67911         0.037262      0.021513      0.046976
      8.81351      3.39232      7.67911        -0.000000     -0.046255      0.102915
      4.40676      5.93656      7.67911         0.000000      0.018641      0.107847
      7.34459      5.93656      7.67911        -0.040058      0.023127      0.102915
     10.28243      5.93656      7.67911         0.040058      0.023127      0.102915
      8.81351      1.69603     10.07479        -0.000000     -0.027310     -0.004118
      2.95306      1.70495     10.04990        -0.116750     -0.067406     -0.090396
      5.86045      1.70495     10.04990         0.116750     -0.067406     -0.090396
     10.26640      4.24966     10.05812         0.026025     -0.015026      0.021081
      4.40676      4.22282     10.04990         0.000000      0.134812     -0.090396
      7.36062      4.24966     10.05812        -0.026025     -0.015026      0.021081
     11.75147      6.78471     10.07479         0.023651      0.013655     -0.004118
      5.87556      6.78471     10.07479        -0.023651      0.013655     -0.004118
      8.81351      6.76613     10.05812         0.000000      0.030052      0.021081
      0.00000      0.00000     12.48774         0.000000      0.000000     -0.022546
      2.98478      0.07843     12.47445        -0.162528     -0.296510     -0.195201
      5.82873      0.07843     12.47445         0.162528     -0.296510     -0.195201
      1.56032      2.54568     12.47445        -0.338049      0.007501     -0.195201
      7.25320      2.54568     12.47445         0.338049      0.007501     -0.195201
      2.98229      5.00861     12.47445        -0.175521      0.289008     -0.195201
      5.83122      5.00861     12.47445         0.175521      0.289008     -0.195201
      8.81351      5.08848     12.49541         0.000000      0.000000      0.003002
      4.40676      2.54424     12.16834         0.000000     -0.000000      1.234207
      4.40676      2.54424     13.72524         0.000000      0.000000     -0.044005
 -----------------------------------------------------------------------------------
    total drift:                                0.001751      0.001250      0.326804


--------------------------------------------------------------------------------------------------------



  FREE ENERGIE OF THE ION-ELECTRON SYSTEM (eV)
  ---------------------------------------------------
  free  energy   TOTEN  =      -121.68679487 eV

  energy  without entropy=     -121.68679487  energy(sigma->0) =     -121.68679487
 


--------------------------------------------------------------------------------------------------------


    POTLOK:  cpu time    0.0427: real time    0.0427


--------------------------------------------------------------------------------------------------------


 stress matrix after NEB project (eV)
    -19.88583     -0.00000      0.00000
     -0.00000    -19.88583      0.00000
      0.00000      0.00000      1.74260
  FORCES: max atom, RMS     0.044005    0.007234
  FORCE total and by dimension    0.044005    0.044005
  Stress total and by dimension   28.176754   19.885835
     LOOP+:  cpu time   77.8935: real time   77.9064
 -----------------------------------------------------------------------------
|                                                                             |
|           W    W    AA    RRRRR   N    N  II  N    N   GGGG   !!!           |
|           W    W   A  A   R    R  NN   N  II  NN   N  G    G  !!!           |
|           W    W  A    A  R    R  N N  N  II  N N  N  G       !!!           |
|           W WW W  AAAAAA  RRRRR   N  N N  II  N  N N  G  GGG   !            |
|           WW  WW  A    A  R   R   N   NN  II  N   NN  G    G                |
|           W    W  A    A  R    R  N    N  II  N    N   GGGG   !!!           |
|                                                                             |
|     Tetrahedron method does not include variations of the Fermi             |
|     occupations, so forces and stress will be inaccurate. We suggest        |
|     using a different smearing scheme ISMEAR = 1 or 2 for metals in         |
|     relaxations.                                                            |
|                                                                             |
 -----------------------------------------------------------------------------

    4ORBIT:  cpu time    0.0000: real time    0.0000



 total charge

# of ion       s       p       d       tot
------------------------------------------
    1        0.547   0.239   8.766   9.552
    2        0.543   0.241   8.764   9.549
    3        0.543   0.241   8.764   9.549
    4        0.543   0.241   8.764   9.549
    5        0.543   0.240   8.764   9.547
    6        0.543   0.241   8.764   9.549
    7        0.543   0.241   8.764   9.549
    8        0.543   0.241   8.764   9.549
    9        0.544   0.241   8.766   9.550
   10        0.519   0.308   8.771   9.597
   11        0.518   0.310   8.775   9.603
   12        0.519   0.308   8.771   9.597
   13        0.518   0.310   8.775   9.603
   14        0.518   0.310   8.775   9.603
   15        0.516   0.310   8.772   9.598
   16        0.519   0.308   8.771   9.597
   17        0.516   0.310   8.772   9.598
   18        0.516   0.310   8.772   9.598
   19        0.517   0.297   8.777   9.591
   20        0.547   0.333   8.750   9.630
   21        0.547   0.333   8.750   9.630
   22        0.512   0.312   8.772   9.595
   23        0.547   0.333   8.750   9.630
   24        0.512   0.312   8.772   9.595
   25        0.517   0.297   8.777   9.591
   26        0.517   0.297   8.777   9.591
   27        0.512   0.312   8.772   9.595
   28        0.544   0.221   8.763   9.528
   29        0.546   0.238   8.765   9.550
   30        0.546   0.238   8.765   9.550
   31        0.546   0.238   8.765   9.550
   32        0.546   0.238   8.765   9.550
   33        0.546   0.238   8.765   9.550
   34        0.546   0.238   8.765   9.550
   35        0.539   0.222   8.768   9.529
   36        0.363   0.428   5.325   6.117
   37        1.364   2.175   0.000   3.539
--------------------------------------------------
tot         20.366  12.253 312.180 344.800
 
 BZINTS: Fermi energy:    0.655355;  397.000000 electrons
         Band energy:-0.122690E+04;  BLOECHL correction:   -0.059227

 total amount of memory used by VASP MPI-rank0   121929. kBytes
=======================================================================

   base      :      30000. kBytes
   nonlr-proj:      13544. kBytes
   fftplans  :       4330. kBytes
   grid      :      17879. kBytes
   one-center:        575. kBytes
   wavefun   :      55601. kBytes
 
  
  
 General timing and accounting informations for this job:
 ========================================================
  
                  Total CPU time used (sec):       85.226
                            User time (sec):       82.090
                          System time (sec):        3.136
                         Elapsed time (sec):       85.605
  
                   Maximum memory used (kb):      378424.
                   Average memory used (kb):          N/A
  
                          Minor page faults:        78662
                          Major page faults:            0
                 Voluntary context switches:         4982
