PROCAR new format
# of k-points:   10         # of bands:  252         # of ions:   37

 k-point     1 :    0.00000000 0.00000000 0.00000000     weight = 0.01562500

band     1 # energy  -12.97275854 # occ.  2.00000000
 
ion      s      p      d    tot
    1  0.000  0.000  0.000  0.000
    2  0.000  0.000  0.000  0.000
    3  0.000  0.000  0.000  0.000
    4  0.000  0.000  0.000  0.000
    5  0.000  0.000  0.000  0.000
    6  0.000  0.000  0.000  0.000
    7  0.000  0.000  0.000  0.000
    8  0.000  0.000  0.000  0.000
    9  0.000  0.000  0.000  0.000
   10  0.000  0.000  0.000  0.000
   11  0.000  0.000  0.000  0.000
   12  0.000  0.000  0.000  0.000
   13  0.000  0.000  0.000  0.000
   14  0.000  0.000  0.000  0.000
   15  0.000  0.000  0.000  0.000
   16  0.000  0.000  0.000  0.000
   17  0.000  0.000  0.000  0.000
   18  0.000  0.000  0.000  0.000
   19  0.000  0.000  0.000  0.000
   20  0.000  0.000  0.000  0.000
   21  0.000  0.000  0.000  0.000
   22  0.000  0.000  0.000  0.000
   23  0.000  0.000  0.000  0.000
   24  0.000  0.000  0.000  0.000
   25  0.000  0.000  0.000  0.000
   26  0.000  0.000  0.000  0.000
   27  0.000  0.000  0.000  0.000
   28  0.000  0.000  0.000  0.000
   29  0.000  0.000  0.000  0.001
   30  0.000  0.000  0.000  0.001
   31  0.000  0.000  0.000  0.001
   32  0.000  0.000  0.000  0.001
   33  0.000  0.000  0.000  0.001
   34  0.000  0.000  0.000  0.001
   35  0.000  0.000  0.000  0.000
   36  0.061  0.060  0.103  0.224
   37  0.634  0.016  0.000  0.650
tot    0.697  0.077  0.106  0.880
 
band     2 # energy   -8.16121506 # occ.  2.00000000
 
ion      s      p      d    tot
    1  0.007  0.001  0.000  0.007
    2  0.007  0.001  0.000  0.007
    3  0.007  0.001  0.000  0.007
    4  0.007  0.001  0.000  0.007
    5  0.007  0.001  0.000  0.007
    6  0.007  0.001  0.000  0.007
    7  0.007  0.001  0.000  0.007
    8  0.007  0.001  0.000  0.007
    9  0.006  0.001  0.000  0.007
   10  0.027  0.000  0.000  0.027
   11  0.028  0.000  0.000  0.028
   12  0.027  0.000  0.000  0.027
   13  0.028  0.000  0.000  0.028
   14  0.028  0.000  0.000  0.028
   15  0.027  0.000  0.000  0.027
   16  0.027  0.000  0.000  0.027
   17  0.027  0.000  0.000  0.027
   18  0.027  0.000  0.000  0.027
   19  0.023  0.000  0.000  0.024
   20  0.027  0.000  0.000  0.027
   21  0.027  0.000  0.000  0.027
   22  0.025  0.000  0.000  0.025
   23  0.027  0.000  0.000  0.027
   24  0.025  0.000  0.000  0.025
   25  0.023  0.000  0.000  0.024
   26  0.023  0.000  0.000  0.024
   27  0.025  0.000  0.000  0.025
   28  0.004  0.000  0.000  0.005
   29  0.004  0.000  0.000  0.005
   30  0.004  0.000  0.000  0.005
   31  0.004  0.000  0.000  0.005
   32  0.004  0.000  0.000  0.005
   33  0.004  0.000  0.000  0.005
   34  0.004  0.000  0.000  0.005
   35  0.004  0.000  0.000  0.005
   36  0.002  0.001  0.000  0.003
   37  0.001  0.000  0.000  0.001
tot    0.564  0.013  0.004  0.581
 
band     3 # energy   -6.95740729 # occ.  2.00000000
 
ion      s      p      d    tot
    1  0.017  0.000  0.001  0.019
    2  0.017  0.000  0.001  0.019
    3  0.017  0.000  0.001  0.019
    4  0.017  0.000  0.001  0.019
    5  0.017  0.000  0.001  0.019
    6  0.017  0.000  0.001  0.019
    7  0.017  0.000  0.001  0.019
    8  0.017  0.000  0.001  0.019
    9  0.017  0.000  0.001  0.019
   10  0.010  0.002  0.003  0.015
   11  0.010  0.002  0.003  0.014
   12  0.010  0.002  0.003  0.015
   13  0.010  0.002  0.003  0.014
   14  0.010  0.002  0.003  0.014
   15  0.010  0.002  0.003  0.014
   16  0.010  0.002  0.003  0.015
   17  0.010  0.002  0.003  0.014
   18  0.010  0.002  0.003  0.014
   19  0.014  0.001  0.004  0.020
   20  0.017  0.001  0.005  0.023
   21  0.017  0.001  0.005  0.023
   22  0.016  0.001  0.004  0.021
   23  0.017  0.001  0.005  0.023
   24  0.016  0.001  0.004  0.021
   25  0.014  0.001  0.004  0.020
   26  0.014  0.001  0.004  0.020
   27  0.016  0.001  0.004  0.021
   28  0.013  0.001  0.000  0.013
   29  0.012  0.001  0.000  0.013
   30  0.012  0.001  0.000  0.013
   31  0.012  0.001  0.000  0.013
   32  0.012  0.001  0.000  0.013
   33  0.012  0.001  0.000  0.013
   34  0.012  0.001  0.000  0.013
   35  0.012  0.001  0.000  0.013
   36  0.004  0.001  0.001  0.006
   37  0.002  0.000  0.000  0.002
tot    0.488  0.033  0.077  0.599
 
band     4 # energy   -6.05143618 # occ.  2.00000000
 
ion      s      p      d    tot
    1  0.001  0.001  0.005  0.006
    2  0.001  0.000  0.005  0.007
    3  0.001  0.000  0.005  0.007
    4  0.001  0.000  0.005  0.007
    5  0.000  0.000  0.001  0.001
    6  0.001  0.000  0.005  0.007
    7  0.001  0.000  0.005  0.007
    8  0.001  0.000  0.005  0.007
    9  0.020  0.001  0.000  0.022
   10  0.007  0.000  0.023  0.031
   11  0.012  0.003  0.008  0.024
   12  0.007  0.000  0.023  0.031
   13  0.012  0.003  0.008  0.024
   14  0.012  0.003  0.008  0.023
   15  0.020  0.002  0.011  0.033
   16  0.007  0.000  0.023  0.031
   17  0.020  0.002  0.011  0.033
   18  0.020  0.002  0.011  0.033
   19  0.000  0.001  0.023  0.024
   20  0.029  0.002  0.019  0.050
   21  0.029  0.002  0.019  0.049
   22  0.015  0.003  0.005  0.023
   23  0.029  0.002  0.019  0.049
   24  0.015  0.003  0.005  0.023
   25  0.000  0.001  0.023  0.024
   26  0.000  0.001  0.023  0.024
   27  0.015  0.003  0.005  0.023
   28  0.005  0.000  0.000  0.005
   29  0.001  0.000  0.005  0.007
   30  0.002  0.000  0.005  0.007
   31  0.001  0.000  0.005  0.007
   32  0.002  0.000  0.005  0.007
   33  0.002  0.000  0.005  0.007
   34  0.002  0.000  0.005  0.007
   35  0.011  0.001  0.000  0.012
   36  0.004  0.002  0.003  0.009
   37  0.000  0.001  0.000  0.001
tot    0.309  0.042  0.343  0.694
 
band     5 # energy   -6.02498770 # occ.  2.00000000
 
ion      s      p      d    tot
    1  0.000  0.000  0.007  0.007
    2  0.002  0.001  0.003  0.005
    3  0.002  0.001  0.003  0.005
    4  0.002  0.001  0.003  0.005
    5  0.000  0.001  0.008  0.009
    6  0.007  0.001  0.003  0.012
    7  0.002  0.001  0.003  0.005
    8  0.007  0.001  0.003  0.012
    9  0.000  0.000  0.001  0.001
   10  0.025  0.002  0.005  0.032
   11  0.014  0.002  0.026  0.042
   12  0.007  0.001  0.025  0.032
   13  0.015  0.002  0.025  0.042
   14  0.057  0.001  0.009  0.068
   15  0.001  0.003  0.005  0.010
   16  0.006  0.001  0.025  0.032
   17  0.002  0.003  0.005  0.010
   18  0.006  0.000  0.014  0.020
   19  0.001  0.003  0.005  0.009
   20  0.059  0.001  0.011  0.070
   21  0.015  0.003  0.026  0.044
   22  0.007  0.001  0.026  0.033
   23  0.014  0.003  0.026  0.043
   24  0.026  0.002  0.004  0.031
   25  0.004  0.000  0.013  0.018
   26  0.001  0.003  0.005  0.009
   27  0.006  0.001  0.026  0.033
   28  0.000  0.000  0.001  0.001
   29  0.007  0.001  0.004  0.012
   30  0.001  0.001  0.003  0.005
   31  0.007  0.001  0.004  0.012
   32  0.003  0.001  0.002  0.005
   33  0.001  0.001  0.003  0.005
   34  0.003  0.001  0.002  0.005
   35  0.000  0.000  0.005  0.005
   36  0.000  0.002  0.002  0.004
   37  0.000  0.000  0.000  0.000
tot    0.308  0.043  0.342  0.693
 
band     6 # energy   -6.02496570 # occ.  2.00000000
 
ion      s      p      d    tot
    1  0.000  0.000  0.007  0.007
    2  0.005  0.001  0.004  0.010
    3  0.005  0.001  0.003  0.009
    4  0.005  0.001  0.004  0.010
    5  0.000  0.001  0.008  0.009
    6  0.000  0.000  0.003  0.003
    7  0.005  0.001  0.003  0.009
    8  0.000  0.000  0.003  0.003
    9  0.000  0.000  0.001  0.001
   10  0.000  0.000  0.032  0.032
   11  0.043  0.001  0.015  0.059
   12  0.019  0.001  0.012  0.032
   13  0.042  0.002  0.015  0.059
   14  0.000  0.003  0.031  0.034
   15  0.005  0.001  0.011  0.017
   16  0.019  0.002  0.012  0.032
   17  0.004  0.001  0.011  0.016
   18  0.000  0.004  0.002  0.006
   19  0.003  0.001  0.010  0.015
   20  0.000  0.003  0.031  0.034
   21  0.044  0.002  0.016  0.061
   22  0.019  0.001  0.011  0.032
   23  0.044  0.002  0.016  0.062
   24  0.000  0.000  0.033  0.033
   25  0.000  0.004  0.003  0.006
   26  0.003  0.001  0.010  0.015
   27  0.020  0.001  0.011  0.032
   28  0.000  0.000  0.001  0.001
   29  0.000  0.000  0.002  0.003
   30  0.006  0.001  0.003  0.010
   31  0.000  0.000  0.002  0.003
   32  0.004  0.001  0.004  0.009
   33  0.006  0.001  0.003  0.010
   34  0.004  0.001  0.004  0.009
   35  0.000  0.000  0.005  0.005
   36  0.000  0.002  0.002  0.004
   37  0.000  0.000  0.000  0.000
tot    0.308  0.043  0.342  0.693
 
band     7 # energy   -6.02215211 # occ.  2.00000000
 
ion      s      p      d    tot
    1  0.025  0.000  0.017  0.042
    2  0.019  0.000  0.019  0.039
    3  0.019  0.000  0.019  0.039
    4  0.019  0.000  0.019  0.039
    5  0.020  0.000  0.020  0.040
    6  0.019  0.000  0.019  0.039
    7  0.019  0.000  0.019  0.039
    8  0.019  0.000  0.019  0.039
    9  0.013  0.000  0.021  0.034
   10  0.004  0.000  0.029  0.033
   11  0.006  0.000  0.026  0.033
   12  0.004  0.000  0.029  0.033
   13  0.006  0.000  0.026  0.033
   14  0.006  0.000  0.026  0.032
   15  0.015  0.001  0.022  0.038
   16  0.004  0.000  0.029  0.033
   17  0.015  0.001  0.022  0.038
   18  0.015  0.001  0.022  0.038
   19  0.001  0.000  0.005  0.006
   20  0.003  0.000  0.006  0.009
   21  0.003  0.000  0.006  0.009
   22  0.000  0.001  0.005  0.006
   23  0.003  0.000  0.006  0.009
   24  0.000  0.001  0.005  0.006
   25  0.001  0.000  0.005  0.006
   26  0.001  0.000  0.005  0.006
   27  0.000  0.001  0.005  0.006
   28  0.000  0.000  0.000  0.001
   29  0.000  0.000  0.000  0.001
   30  0.000  0.000  0.000  0.001
   31  0.000  0.000  0.000  0.001
   32  0.000  0.000  0.000  0.001
   33  0.000  0.000  0.000  0.001
   34  0.000  0.000  0.000  0.001
   35  0.000  0.000  0.000  0.000
   36  0.001  0.000  0.000  0.001
   37  0.000  0.000  0.000  0.000
tot    0.266  0.010  0.454  0.730
 
band     8 # energy   -5.99584033 # occ.  2.00000000
 
ion      s      p      d    tot
    1  0.008  0.001  0.001  0.011
    2  0.000  0.001  0.006  0.007
    3  0.000  0.001  0.006  0.007
    4  0.000  0.001  0.006  0.007
    5  0.015  0.002  0.001  0.018
    6  0.000  0.001  0.006  0.007
    7  0.000  0.001  0.006  0.007
    8  0.000  0.001  0.006  0.007
    9  0.000  0.000  0.001  0.001
   10  0.026  0.003  0.002  0.031
   11  0.020  0.001  0.023  0.044
   12  0.026  0.003  0.002  0.031
   13  0.020  0.001  0.023  0.044
   14  0.020  0.001  0.023  0.044
   15  0.000  0.001  0.022  0.024
   16  0.026  0.003  0.002  0.031
   17  0.000  0.001  0.022  0.024
   18  0.000  0.001  0.022  0.023
   19  0.027  0.002  0.004  0.033
   20  0.004  0.002  0.020  0.026
   21  0.004  0.002  0.020  0.026
   22  0.010  0.000  0.026  0.036
   23  0.004  0.002  0.020  0.026
   24  0.010  0.000  0.026  0.036
   25  0.026  0.002  0.004  0.033
   26  0.027  0.002  0.004  0.033
   27  0.010  0.000  0.026  0.036
   28  0.010  0.001  0.001  0.012
   29  0.000  0.000  0.004  0.004
   30  0.000  0.000  0.004  0.004
   31  0.000  0.000  0.004  0.004
   32  0.000  0.000  0.004  0.004
   33  0.000  0.000  0.004  0.004
   34  0.000  0.000  0.004  0.004
   35  0.005  0.001  0.002  0.008
   36  0.000  0.000  0.000  0.000
   37  0.000  0.000  0.000  0.000
tot    0.299  0.040  0.357  0.696
 
band     9 # energy   -5.96956416 # occ.  2.00000000
 
ion      s      p      d    tot
    1  0.000  0.001  0.005  0.006
    2  0.002  0.001  0.003  0.006
    3  0.001  0.001  0.004  0.005
    4  0.003  0.001  0.003  0.007
    5  0.000  0.000  0.003  0.003
    6  0.008  0.001  0.004  0.014
    7  0.002  0.001  0.004  0.007
    8  0.008  0.001  0.004  0.014
    9  0.000  0.001  0.011  0.012
   10  0.000  0.004  0.009  0.013
   11  0.002  0.001  0.012  0.015
   12  0.025  0.002  0.013  0.040
   13  0.002  0.001  0.013  0.015
   14  0.000  0.002  0.017  0.020
   15  0.047  0.002  0.012  0.061
   16  0.030  0.001  0.014  0.045
   17  0.040  0.001  0.017  0.059
   18  0.000  0.000  0.046  0.047
   19  0.037  0.002  0.010  0.049
   20  0.000  0.001  0.017  0.019
   21  0.002  0.001  0.013  0.016
   22  0.019  0.002  0.013  0.033
   23  0.003  0.001  0.012  0.016
   24  0.000  0.004  0.011  0.015
   25  0.000  0.001  0.036  0.037
   26  0.032  0.002  0.014  0.047
   27  0.022  0.001  0.013  0.036
   28  0.000  0.001  0.006  0.007
   29  0.004  0.001  0.002  0.008
   30  0.002  0.000  0.003  0.004
   31  0.004  0.001  0.002  0.007
   32  0.001  0.000  0.001  0.003
   33  0.001  0.000  0.002  0.004
   34  0.001  0.000  0.001  0.002
   35  0.000  0.001  0.003  0.003
   36  0.000  0.000  0.001  0.001
   37  0.000  0.000  0.000  0.000
tot    0.299  0.041  0.354  0.694
 
band    10 # energy   -5.96955971 # occ.  2.00000000
 
ion      s      p      d    tot
    1  0.000  0.001  0.005  0.006
    2  0.006  0.001  0.004  0.012
    3  0.007  0.001  0.004  0.012
    4  0.005  0.001  0.004  0.010
    5  0.000  0.000  0.003  0.003
    6  0.000  0.000  0.003  0.004
    7  0.006  0.001  0.003  0.011
    8  0.000  0.000  0.003  0.004
    9  0.000  0.001  0.011  0.012
   10  0.036  0.000  0.016  0.052
   11  0.000  0.002  0.016  0.018
   12  0.012  0.003  0.011  0.025
   13  0.001  0.002  0.015  0.018
   14  0.002  0.001  0.010  0.014
   15  0.011  0.001  0.038  0.050
   16  0.007  0.004  0.010  0.021
   17  0.018  0.001  0.033  0.052
   18  0.058  0.002  0.004  0.064
   19  0.009  0.001  0.030  0.040
   20  0.003  0.001  0.010  0.015
   21  0.001  0.001  0.015  0.017
   22  0.009  0.003  0.012  0.023
   23  0.001  0.001  0.016  0.018
   24  0.027  0.000  0.014  0.041
   25  0.046  0.002  0.004  0.052
   26  0.014  0.001  0.026  0.042
   27  0.005  0.003  0.011  0.020
   28  0.000  0.001  0.006  0.007
   29  0.000  0.000  0.002  0.002
   30  0.003  0.001  0.002  0.005
   31  0.000  0.000  0.002  0.002
   32  0.003  0.001  0.003  0.007
   33  0.003  0.001  0.002  0.006
   34  0.004  0.001  0.003  0.007
   35  0.000  0.001  0.003  0.003
   36  0.000  0.000  0.001  0.001
   37  0.000  0.000  0.000  0.000
tot    0.299  0.041  0.354  0.694
 
band    11 # energy   -5.84653010 # occ.  2.00000000
 
ion      s      p      d    tot
    1  0.001  0.000  0.000  0.001
    2  0.001  0.000  0.001  0.002
    3  0.001  0.000  0.001  0.002
    4  0.001  0.000  0.001  0.002
    5  0.002  0.000  0.000  0.003
    6  0.001  0.000  0.001  0.002
    7  0.001  0.000  0.001  0.002
    8  0.001  0.000  0.001  0.002
    9  0.000  0.000  0.001  0.001
   10  0.000  0.000  0.004  0.004
   11  0.001  0.000  0.001  0.003
   12  0.000  0.000  0.004  0.004
   13  0.001  0.000  0.001  0.003
   14  0.001  0.000  0.001  0.003
   15  0.003  0.000  0.003  0.006
   16  0.000  0.000  0.004  0.004
   17  0.003  0.000  0.003  0.006
   18  0.003  0.000  0.003  0.006
   19  0.003  0.001  0.017  0.021
   20  0.002  0.000  0.030  0.032
   21  0.002  0.000  0.030  0.032
   22  0.008  0.002  0.022  0.032
   23  0.002  0.000  0.030  0.032
   24  0.008  0.002  0.022  0.032
   25  0.003  0.001  0.017  0.021
   26  0.003  0.001  0.017  0.021
   27  0.008  0.002  0.022  0.032
   28  0.029  0.000  0.021  0.050
   29  0.026  0.000  0.021  0.047
   30  0.026  0.000  0.021  0.047
   31  0.026  0.000  0.021  0.047
   32  0.026  0.000  0.021  0.047
   33  0.026  0.000  0.021  0.047
   34  0.026  0.000  0.021  0.047
   35  0.028  0.000  0.022  0.050
   36  0.004  0.000  0.013  0.017
   37  0.001  0.000  0.000  0.002
tot    0.280  0.014  0.422  0.715
 
band    12 # energy   -5.54528141 # occ.  2.00000000
 
ion      s      p      d    tot
    1  0.013  0.002  0.002  0.017
    2  0.000  0.001  0.008  0.009
    3  0.000  0.001  0.008  0.009
    4  0.000  0.001  0.008  0.009
    5  0.001  0.000  0.002  0.002
    6  0.000  0.001  0.008  0.009
    7  0.000  0.001  0.008  0.009
    8  0.000  0.001  0.008  0.009
    9  0.018  0.002  0.000  0.019
   10  0.011  0.001  0.015  0.027
   11  0.002  0.000  0.046  0.048
   12  0.011  0.001  0.015  0.027
   13  0.002  0.000  0.046  0.048
   14  0.002  0.000  0.046  0.048
   15  0.004  0.001  0.021  0.026
   16  0.011  0.001  0.015  0.027
   17  0.004  0.001  0.021  0.026
   18  0.004  0.001  0.021  0.026
   19  0.004  0.001  0.013  0.018
   20  0.001  0.000  0.053  0.054
   21  0.001  0.000  0.053  0.054
   22  0.010  0.001  0.018  0.030
   23  0.001  0.000  0.053  0.054
   24  0.010  0.001  0.018  0.030
   25  0.004  0.001  0.013  0.018
   26  0.004  0.001  0.013  0.018
   27  0.010  0.001  0.018  0.030
   28  0.010  0.001  0.000  0.011
   29  0.000  0.000  0.005  0.006
   30  0.000  0.000  0.005  0.005
   31  0.000  0.000  0.005  0.006
   32  0.000  0.000  0.005  0.005
   33  0.000  0.000  0.005  0.005
   34  0.000  0.000  0.005  0.005
   35  0.007  0.001  0.003  0.011
   36  0.000  0.000  0.001  0.001
   37  0.000  0.000  0.000  0.000
tot    0.145  0.027  0.586  0.757
 
band    13 # energy   -5.53748138 # occ.  2.00000000
 
ion      s      p      d    tot
    1  0.000  0.001  0.004  0.005
    2  0.001  0.001  0.005  0.006
    3  0.009  0.001  0.005  0.015
    4  0.001  0.001  0.005  0.006
    5  0.000  0.001  0.011  0.012
    6  0.005  0.001  0.004  0.010
    7  0.009  0.001  0.005  0.015
    8  0.005  0.001  0.004  0.010
    9  0.000  0.000  0.008  0.008
   10  0.000  0.001  0.051  0.052
   11  0.017  0.001  0.021  0.039
   12  0.008  0.002  0.019  0.028
   13  0.017  0.001  0.021  0.039
   14  0.000  0.000  0.050  0.050
   15  0.002  0.000  0.020  0.022
   16  0.008  0.002  0.019  0.028
   17  0.002  0.000  0.020  0.022
   18  0.000  0.001  0.011  0.012
   19  0.006  0.000  0.018  0.024
   20  0.000  0.000  0.074  0.074
   21  0.016  0.001  0.023  0.041
   22  0.002  0.001  0.019  0.022
   23  0.017  0.001  0.023  0.041
   24  0.000  0.001  0.032  0.033
   25  0.000  0.001  0.013  0.014
   26  0.006  0.000  0.018  0.024
   27  0.002  0.001  0.019  0.022
   28  0.000  0.000  0.008  0.008
   29  0.002  0.001  0.004  0.007
   30  0.010  0.001  0.004  0.015
   31  0.002  0.001  0.004  0.007
   32  0.003  0.001  0.004  0.008
   33  0.010  0.001  0.004  0.015
   34  0.003  0.001  0.004  0.008
   35  0.000  0.000  0.003  0.003
   36  0.000  0.002  0.002  0.004
   37  0.000  0.000  0.000  0.000
tot    0.160  0.031  0.555  0.746
 
band    14 # energy   -5.53746030 # occ.  2.00000000
 
ion      s      p      d    tot
    1  0.000  0.001  0.004  0.005
    2  0.009  0.001  0.004  0.014
    3  0.001  0.000  0.004  0.005
    4  0.009  0.001  0.004  0.014
    5  0.000  0.001  0.011  0.012
    6  0.005  0.001  0.005  0.011
    7  0.001  0.000  0.004  0.005
    8  0.005  0.001  0.005  0.011
    9  0.000  0.000  0.008  0.008
   10  0.010  0.002  0.008  0.020
   11  0.006  0.000  0.040  0.047
   12  0.003  0.001  0.040  0.044
   13  0.006  0.000  0.040  0.046
   14  0.022  0.001  0.011  0.035
   15  0.001  0.001  0.014  0.015
   16  0.003  0.001  0.040  0.044
   17  0.001  0.001  0.014  0.015
   18  0.002  0.000  0.023  0.025
   19  0.002  0.001  0.015  0.017
   20  0.022  0.002  0.006  0.030
   21  0.005  0.000  0.057  0.063
   22  0.001  0.001  0.028  0.030
   23  0.005  0.000  0.057  0.063
   24  0.003  0.001  0.014  0.019
   25  0.008  0.000  0.020  0.028
   26  0.002  0.001  0.015  0.017
   27  0.001  0.001  0.028  0.030
   28  0.000  0.000  0.008  0.008
   29  0.008  0.001  0.004  0.013
   30  0.000  0.000  0.004  0.005
   31  0.008  0.001  0.004  0.013
   32  0.007  0.001  0.004  0.012
   33  0.000  0.000  0.004  0.005
   34  0.007  0.001  0.004  0.012
   35  0.000  0.000  0.003  0.003
   36  0.000  0.002  0.002  0.004
   37  0.000  0.000  0.000  0.000
tot    0.160  0.031  0.555  0.746
 
band    15 # energy   -5.50611362 # occ.  2.00000000
 
ion      s      p      d    tot
    1  0.008  0.000  0.001  0.009
    2  0.000  0.001  0.008  0.009
    3  0.000  0.001  0.008  0.009
    4  0.000  0.001  0.008  0.009
    5  0.017  0.002  0.001  0.020
    6  0.000  0.001  0.008  0.009
    7  0.000  0.001  0.008  0.009
    8  0.000  0.001  0.008  0.009
    9  0.003  0.001  0.002  0.005
   10  0.000  0.000  0.041  0.041
   11  0.008  0.001  0.008  0.017
   12  0.000  0.000  0.041  0.041
   13  0.008  0.001  0.008  0.017
   14  0.008  0.001  0.008  0.017
   15  0.007  0.001  0.028  0.036
   16  0.000  0.000  0.041  0.041
   17  0.007  0.001  0.028  0.036
   18  0.007  0.001  0.028  0.036
   19  0.011  0.001  0.037  0.049
   20  0.008  0.002  0.010  0.021
   21  0.008  0.002  0.010  0.021
   22  0.000  0.000  0.038  0.038
   23  0.008  0.002  0.010  0.021
   24  0.000  0.000  0.038  0.038
   25  0.011  0.001  0.037  0.049
   26  0.011  0.001  0.037  0.049
   27  0.000  0.000  0.038  0.038
   28  0.001  0.001  0.006  0.008
   29  0.001  0.000  0.005  0.006
   30  0.001  0.000  0.005  0.006
   31  0.001  0.000  0.005  0.006
   32  0.001  0.000  0.005  0.006
   33  0.001  0.000  0.005  0.006
   34  0.001  0.000  0.005  0.006
   35  0.001  0.000  0.000  0.002
   36  0.009  0.003  0.000  0.012
   37  0.001  0.001  0.000  0.002
tot    0.147  0.031  0.578  0.756
 
band    16 # energy   -5.47678478 # occ.  2.00000000
 
ion      s      p      d    tot
    1  0.000  0.001  0.014  0.015
    2  0.010  0.001  0.005  0.016
    3  0.002  0.000  0.005  0.007
    4  0.010  0.001  0.005  0.016
    5  0.000  0.000  0.005  0.005
    6  0.003  0.001  0.005  0.010
    7  0.002  0.000  0.005  0.007
    8  0.003  0.001  0.005  0.010
    9  0.000  0.001  0.007  0.009
   10  0.000  0.001  0.029  0.029
   11  0.001  0.001  0.020  0.022
   12  0.007  0.000  0.022  0.030
   13  0.001  0.001  0.020  0.022
   14  0.000  0.001  0.020  0.021
   15  0.011  0.002  0.021  0.034
   16  0.007  0.000  0.022  0.030
   17  0.011  0.002  0.021  0.034
   18  0.000  0.000  0.065  0.065
   19  0.013  0.001  0.020  0.034
   20  0.000  0.002  0.020  0.022
   21  0.000  0.001  0.023  0.024
   22  0.018  0.001  0.021  0.039
   23  0.000  0.001  0.023  0.024
   24  0.000  0.000  0.033  0.034
   25  0.000  0.000  0.066  0.067
   26  0.013  0.001  0.020  0.034
   27  0.018  0.001  0.021  0.039
   28  0.000  0.001  0.004  0.005
   29  0.005  0.001  0.004  0.010
   30  0.000  0.000  0.004  0.005
   31  0.005  0.001  0.004  0.010
   32  0.003  0.001  0.002  0.006
   33  0.000  0.000  0.004  0.005
   34  0.003  0.001  0.002  0.006
   35  0.000  0.001  0.007  0.008
   36  0.000  0.000  0.001  0.001
   37  0.000  0.000  0.000  0.000
tot    0.147  0.028  0.577  0.752
 
band    17 # energy   -5.47677429 # occ.  2.00000000
 
ion      s      p      d    tot
    1  0.000  0.001  0.014  0.015
    2  0.000  0.000  0.005  0.006
    3  0.008  0.001  0.005  0.014
    4  0.000  0.000  0.005  0.006
    5  0.000  0.000  0.005  0.005
    6  0.007  0.001  0.005  0.012
    7  0.008  0.001  0.005  0.014
    8  0.007  0.001  0.005  0.012
    9  0.000  0.001  0.007  0.009
   10  0.009  0.000  0.020  0.030
   11  0.000  0.001  0.020  0.021
   12  0.002  0.001  0.027  0.030
   13  0.000  0.001  0.020  0.021
   14  0.001  0.001  0.020  0.023
   15  0.004  0.001  0.050  0.054
   16  0.002  0.001  0.027  0.030
   17  0.004  0.001  0.051  0.055
   18  0.015  0.002  0.006  0.023
   19  0.004  0.001  0.051  0.056
   20  0.000  0.000  0.024  0.024
   21  0.000  0.001  0.021  0.023
   22  0.006  0.001  0.029  0.035
   23  0.000  0.001  0.021  0.023
   24  0.024  0.001  0.017  0.041
   25  0.017  0.001  0.004  0.023
   26  0.004  0.001  0.051  0.056
   27  0.006  0.001  0.029  0.035
   28  0.000  0.001  0.004  0.005
   29  0.001  0.000  0.003  0.004
   30  0.006  0.001  0.003  0.009
   31  0.001  0.000  0.003  0.004
   32  0.003  0.001  0.005  0.008
   33  0.006  0.001  0.003  0.009
   34  0.002  0.001  0.005  0.008
   35  0.000  0.001  0.007  0.008
   36  0.000  0.000  0.001  0.001
   37  0.000  0.000  0.000  0.000
tot    0.147  0.028  0.577  0.752
 
band    18 # energy   -5.15322548 # occ.  2.00000000
 
ion      s      p      d    tot
    1  0.000  0.000  0.014  0.014
    2  0.000  0.000  0.010  0.010
    3  0.005  0.000  0.014  0.019
    4  0.000  0.000  0.010  0.010
    5  0.000  0.000  0.025  0.026
    6  0.007  0.001  0.009  0.016
    7  0.005  0.000  0.014  0.018
    8  0.007  0.001  0.009  0.016
    9  0.000  0.001  0.005  0.007
   10  0.000  0.000  0.017  0.018
   11  0.000  0.000  0.052  0.053
   12  0.000  0.000  0.011  0.011
   13  0.000  0.000  0.052  0.053
   14  0.000  0.000  0.048  0.048
   15  0.000  0.000  0.024  0.024
   16  0.000  0.000  0.011  0.011
   17  0.000  0.000  0.024  0.024
   18  0.000  0.000  0.041  0.041
   19  0.000  0.000  0.011  0.011
   20  0.001  0.000  0.061  0.062
   21  0.000  0.000  0.046  0.046
   22  0.000  0.000  0.034  0.035
   23  0.000  0.000  0.046  0.046
   24  0.000  0.000  0.031  0.032
   25  0.001  0.000  0.013  0.014
   26  0.000  0.000  0.010  0.011
   27  0.000  0.000  0.034  0.035
   28  0.000  0.000  0.011  0.012
   29  0.008  0.001  0.012  0.020
   30  0.000  0.001  0.008  0.009
   31  0.008  0.001  0.012  0.020
   32  0.009  0.001  0.005  0.015
   33  0.000  0.001  0.009  0.009
   34  0.009  0.001  0.005  0.015
   35  0.000  0.000  0.016  0.016
   36  0.000  0.002  0.001  0.003
   37  0.000  0.000  0.000  0.000
tot    0.060  0.015  0.754  0.829
 
band    19 # energy   -5.15321638 # occ.  2.00000000
 
ion      s      p      d    tot
    1  0.000  0.000  0.014  0.014
    2  0.007  0.000  0.012  0.019
    3  0.003  0.001  0.008  0.011
    4  0.007  0.000  0.012  0.019
    5  0.000  0.000  0.025  0.026
    6  0.001  0.000  0.013  0.014
    7  0.003  0.001  0.008  0.011
    8  0.001  0.000  0.013  0.014
    9  0.000  0.001  0.005  0.007
   10  0.000  0.000  0.009  0.009
   11  0.000  0.000  0.050  0.050
   12  0.000  0.000  0.015  0.016
   13  0.000  0.000  0.050  0.050
   14  0.000  0.000  0.053  0.054
   15  0.000  0.000  0.035  0.036
   16  0.000  0.000  0.015  0.016
   17  0.000  0.000  0.035  0.036
   18  0.000  0.000  0.018  0.018
   19  0.000  0.000  0.012  0.013
   20  0.000  0.000  0.041  0.041
   21  0.001  0.000  0.056  0.057
   22  0.000  0.000  0.032  0.033
   23  0.001  0.000  0.056  0.057
   24  0.000  0.000  0.035  0.036
   25  0.000  0.000  0.010  0.010
   26  0.000  0.000  0.012  0.013
   27  0.000  0.000  0.032  0.033
   28  0.000  0.000  0.011  0.012
   29  0.003  0.001  0.005  0.009
   30  0.011  0.001  0.009  0.020
   31  0.003  0.001  0.005  0.009
   32  0.002  0.001  0.012  0.015
   33  0.011  0.001  0.009  0.020
   34  0.002  0.001  0.012  0.014
   35  0.000  0.000  0.016  0.016
   36  0.000  0.002  0.001  0.003
   37  0.000  0.000  0.000  0.000
tot    0.060  0.015  0.754  0.829
 
band    20 # energy   -5.13880642 # occ.  2.00000000
 
ion      s      p      d    tot
    1  0.010  0.000  0.005  0.014
    2  0.000  0.001  0.009  0.009
    3  0.000  0.001  0.009  0.009
    4  0.000  0.001  0.009  0.009
    5  0.000  0.000  0.012  0.013
    6  0.000  0.001  0.009  0.009
    7  0.000  0.001  0.009  0.009
    8  0.000  0.001  0.009  0.009
    9  0.011  0.001  0.001  0.013
   10  0.000  0.000  0.025  0.026
   11  0.000  0.000  0.054  0.055
   12  0.000  0.000  0.025  0.025
   13  0.000  0.000  0.054  0.055
   14  0.000  0.000  0.054  0.055
   15  0.000  0.001  0.033  0.033
   16  0.000  0.000  0.025  0.025
   17  0.000  0.001  0.033  0.033
   18  0.000  0.001  0.033  0.033
   19  0.000  0.000  0.020  0.021
   20  0.001  0.000  0.050  0.051
   21  0.001  0.000  0.050  0.051
   22  0.001  0.000  0.030  0.031
   23  0.001  0.000  0.050  0.051
   24  0.001  0.000  0.030  0.031
   25  0.000  0.000  0.020  0.021
   26  0.000  0.000  0.020  0.021
   27  0.001  0.000  0.030  0.031
   28  0.006  0.001  0.000  0.006
   29  0.000  0.001  0.010  0.011
   30  0.000  0.001  0.010  0.010
   31  0.000  0.001  0.010  0.011
   32  0.000  0.001  0.010  0.010
   33  0.000  0.001  0.010  0.010
   34  0.000  0.001  0.010  0.010
   35  0.011  0.001  0.001  0.013
   36  0.000  0.000  0.006  0.007
   37  0.000  0.001  0.000  0.001
tot    0.044  0.015  0.776  0.835
 
band    21 # energy   -5.12225506 # occ.  2.00000000
 
ion      s      p      d    tot
    1  0.002  0.001  0.006  0.008
    2  0.000  0.001  0.019  0.020
    3  0.000  0.001  0.019  0.019
    4  0.000  0.001  0.019  0.020
    5  0.023  0.001  0.001  0.025
    6  0.000  0.001  0.019  0.020
    7  0.000  0.001  0.019  0.019
    8  0.000  0.001  0.019  0.020
    9  0.012  0.000  0.014  0.026
   10  0.000  0.000  0.041  0.041
   11  0.000  0.001  0.027  0.028
   12  0.000  0.000  0.041  0.041
   13  0.000  0.001  0.027  0.028
   14  0.000  0.001  0.027  0.028
   15  0.000  0.000  0.039  0.039
   16  0.000  0.000  0.041  0.041
   17  0.000  0.000  0.039  0.039
   18  0.000  0.000  0.039  0.039
   19  0.001  0.000  0.027  0.028
   20  0.000  0.000  0.028  0.028
   21  0.000  0.000  0.028  0.028
   22  0.001  0.000  0.020  0.021
   23  0.000  0.000  0.028  0.028
   24  0.001  0.000  0.020  0.021
   25  0.001  0.000  0.027  0.028
   26  0.001  0.000  0.027  0.028
   27  0.001  0.000  0.020  0.021
   28  0.008  0.000  0.005  0.014
   29  0.000  0.000  0.011  0.012
   30  0.000  0.000  0.012  0.012
   31  0.000  0.000  0.011  0.012
   32  0.000  0.000  0.011  0.012
   33  0.000  0.000  0.012  0.012
   34  0.000  0.000  0.011  0.012
   35  0.000  0.000  0.004  0.005
   36  0.004  0.001  0.000  0.004