 vasp.6.2.0 18Jan21 (build Jun 12 2021 23:27:24) complex                        
  
 executed on             LinuxIFC date 2022.05.28  02:06:01
 running on   28 total cores
 distrk:  each k-point on   28 cores,    1 groups
 distr:  one band on NCORE=   1 cores,   28 groups


--------------------------------------------------------------------------------------------------------


 INCAR:
   ISMEAR = -5
   SIGMA = 0.1
   ISPIN = 1
   EDIFF = 1.d-5
   EDIFFG = -0.01
   NSW = 0
   NELM = 150
   ENCUT = 500
   ISIF = 2
   IBRION = 2
   LREAL = Auto
   ALGO = Fast
   ICHARG = 11
   LORBIT = 10
   LCHARG = .F.
   LWAVE = .F.

 POTCAR:    PAW_PBE Ag 02Apr2005                  
 POTCAR:    PAW_PBE Os 17Jan2003                  
 POTCAR:    PAW_PBE H 15Jun2001                   
 POTCAR:    PAW_PBE O 08Apr2002                   
 -----------------------------------------------------------------------------
|                                                                             |
|           W    W    AA    RRRRR   N    N  II  N    N   GGGG   !!!           |
|           W    W   A  A   R    R  NN   N  II  NN   N  G    G  !!!           |
|           W    W  A    A  R    R  N N  N  II  N N  N  G       !!!           |
|           W WW W  AAAAAA  RRRRR   N  N N  II  N  N N  G  GGG   !            |
|           WW  WW  A    A  R   R   N   NN  II  N   NN  G    G                |
|           W    W  A    A  R    R  N    N  II  N    N   GGGG   !!!           |
|                                                                             |
|     For optimal performance we recommend to set                             |
|       NCORE = 2 up to number-of-cores-per-socket                            |
|     NCORE specifies how many cores store one orbital (NPAR=cpu/NCORE).      |
|     This setting can greatly improve the performance of VASP for DFT.       |
|     The default, NCORE=1 might be grossly inefficient on modern             |
|     multi-core architectures or massively parallel machines. Do your        |
|     own testing! More info at https://www.vasp.at/wiki/index.php/NCORE      |
|     Unfortunately you need to use the default for GW and RPA                |
|     calculations (for HF NCORE is supported but not extensively tested      |
|     yet).                                                                   |
|                                                                             |
 -----------------------------------------------------------------------------

 POTCAR:    PAW_PBE Ag 02Apr2005                  
   VRHFIN =Ag : s1 d10                                                                              
   LEXCH  = PE                                                                                      
   EATOM  =  1037.2675 eV,   76.2370 Ry                                                             
                                                                                                    
   TITEL  = PAW_PBE Ag 02Apr2005                                                                    
   LULTRA =        F    use ultrasoft PP ?                                                          
   IUNSCR =        1    unscreen: 0-lin 1-nonlin 2-no                                               
   RPACOR =    2.000    partial core radius                                                         
   POMASS =  107.868; ZVAL   =   11.000    mass and valenz                                          
   RCORE  =    2.500    outmost cutoff radius                                                       
   RWIGS  =    2.840; RWIGS  =    1.503    wigner-seitz radius (au A)                               
   ENMAX  =  249.844; ENMIN  =  187.383 eV                                                          
   ICORE  =        3    local potential                                                             
   LCOR   =        T    correct aug charges                                                         
   LPAW   =        T    paw PP                                                                      
   EAUG   =  412.496                                                                                
   DEXC   =    0.000                                                                                
   RMAX   =    2.560    core radius for proj-oper                                                   
   RAUG   =    1.300    factor for augmentation sphere                                              
   RDEP   =    2.576    radius for radial grids                                                     
   RDEPT  =    2.072    core radius for aug-charge                                                  
                                                                                                    
   Atomic configuration                                                                             
   12 entries                                                                                       
     n  l   j            E        occ.                                                              
     1  0  0.50    -25324.9161   2.0000                                                             
     2  0  0.50     -3728.5341   2.0000                                                             
     2  1  1.50     -3344.0404   6.0000                                                             
     3  0  0.50      -683.5581   2.0000                                                             
     3  1  1.50      -557.3225   6.0000                                                             
     3  2  2.50      -358.3853  10.0000                                                             
     4  0  0.50       -95.0341   2.0000                                                             
     4  1  1.50       -58.5511   6.0000                                                             
     4  2  2.50        -7.4440  10.0000                                                             
     5  0  0.50        -4.4045   1.0000                                                             
     5  1  0.50        -1.3606   0.0000                                                             
     4  3  2.50        -1.3606   0.0000                                                             
   Description                                                                                      
     l       E           TYP  RCUT    TYP  RCUT                                                     
     2     -7.4439781     23  2.400                                                                 
     2     -8.8045607     23  2.400                                                                 
     0     -4.4044681     23  2.400                                                                 
     0      1.9520038     23  2.400                                                                 
     1     -1.3605826     23  2.500                                                                 
     1     27.2116520     23  2.500                                                                 
     3     -4.0817478     23  2.400                                                                 
  local pseudopotential read in
  partial core-charges read in
  partial kinetic energy density read in
  atomic valenz-charges read in
  non local Contribution for L=           2  read in
    real space projection operators read in
  non local Contribution for L=           2  read in
    real space projection operators read in
  non local Contribution for L=           0  read in
    real space projection operators read in
  non local Contribution for L=           0  read in
    real space projection operators read in
  non local Contribution for L=           1  read in
    real space projection operators read in
  non local Contribution for L=           1  read in
    real space projection operators read in
    PAW grid and wavefunctions read in
 
   number of l-projection  operators is LMAX  =           6
   number of lm-projection operators is LMMAX =          18
 
 POTCAR:    PAW_PBE Os 17Jan2003                  
   VRHFIN =Os: 6s5d                                                                                 
   LEXCH  = PE                                                                                      
   EATOM  =   417.5999 eV,   30.6927 Ry                                                             
                                                                                                    
   TITEL  = PAW_PBE Os 17Jan2003                                                                    
   LULTRA =        F    use ultrasoft PP ?                                                          
   IUNSCR =        1    unscreen: 0-lin 1-nonlin 2-no                                               
   RPACOR =    2.250    partial core radius                                                         
   POMASS =  190.200; ZVAL   =    8.000    mass and valenz                                          
   RCORE  =    2.700    outmost cutoff radius                                                       
   RWIGS  =    2.670; RWIGS  =    1.413    wigner-seitz radius (au A)                               
   ENMAX  =  228.022; ENMIN  =  171.017 eV                                                          
   RCLOC  =    2.004    cutoff for local pot                                                        
   LCOR   =        T    correct aug charges                                                         
   LPAW   =        T    paw PP                                                                      
   EAUG   =  365.080                                                                                
   DEXC   =    0.000                                                                                
   RMAX   =    2.766    core radius for proj-oper                                                   
   RAUG   =    1.300    factor for augmentation sphere                                              
   RDEP   =    2.738    radius for radial grids                                                     
   RDEPT  =    2.220    core radius for aug-charge                                                  
                                                                                                    
   Atomic configuration                                                                             
   16 entries                                                                                       
     n  l   j            E        occ.                                                              
     1  0  0.50    -73844.2437   2.0000                                                             
     2  0  0.50    -12856.6893   2.0000                                                             
     2  1  1.50    -11191.7995   6.0000                                                             
     3  0  0.50     -2990.1422   2.0000                                                             
     3  1  1.50     -2501.5221   6.0000                                                             
     3  2  2.50     -1956.5818  10.0000                                                             
     4  0  0.50      -629.1606   2.0000                                                             
     4  1  1.50      -468.9548   6.0000                                                             
     4  2  2.50      -270.2868  10.0000                                                             
     4  3  3.50       -49.5699  14.0000                                                             
     5  0  0.50       -89.1521   2.0000                                                             
     5  1  1.50       -48.6063   6.0000                                                             
     5  2  2.50        -4.7055   7.0000                                                             
     6  0  0.50        -5.4288   1.0000                                                             
     6  1  1.50        -2.7212   0.0000                                                             
     5  3  2.50        -6.8029   0.0000                                                             
   Description                                                                                      
     l       E           TYP  RCUT    TYP  RCUT                                                     
     2     -4.7055230     23  2.500                                                                 
     2     -6.0661056     23  2.500                                                                 
     0     -5.4288441     23  2.500                                                                 
     0      3.7338294     23  2.500                                                                 
     1     -2.7211652     23  2.700                                                                 
     1     27.2116520     23  2.700                                                                 
  local pseudopotential read in
  partial core-charges read in
  partial kinetic energy density read in
  atomic valenz-charges read in
  non local Contribution for L=           2  read in
    real space projection operators read in
  non local Contribution for L=           2  read in
    real space projection operators read in
  non local Contribution for L=           0  read in
    real space projection operators read in
  non local Contribution for L=           0  read in
    real space projection operators read in
  non local Contribution for L=           1  read in
    real space projection operators read in
  non local Contribution for L=           1  read in
    real space projection operators read in
    PAW grid and wavefunctions read in
 
   number of l-projection  operators is LMAX  =           6
   number of lm-projection operators is LMMAX =          18
 
 POTCAR:    PAW_PBE H 15Jun2001                   
   VRHFIN =H: ultrasoft test                                                                        
   LEXCH  = PE                                                                                      
   EATOM  =    12.4884 eV,    0.9179 Ry                                                             
                                                                                                    
   TITEL  = PAW_PBE H 15Jun2001                                                                     
   LULTRA =        F    use ultrasoft PP ?                                                          
   IUNSCR =        0    unscreen: 0-lin 1-nonlin 2-no                                               
   RPACOR =    0.000    partial core radius                                                         
   POMASS =    1.000; ZVAL   =    1.000    mass and valenz                                          
   RCORE  =    1.100    outmost cutoff radius                                                       
   RWIGS  =    0.700; RWIGS  =    0.370    wigner-seitz radius (au A)                               
   ENMAX  =  250.000; ENMIN  =  200.000 eV                                                          
   RCLOC  =    0.701    cutoff for local pot                                                        
   LCOR   =        T    correct aug charges                                                         
   LPAW   =        T    paw PP                                                                      
   EAUG   =  400.000                                                                                
   RMAX   =    1.123    core radius for proj-oper                                                   
   RAUG   =    1.200    factor for augmentation sphere                                              
   RDEP   =    1.112    radius for radial grids                                                     
   RDEPT  =    0.926    core radius for aug-charge                                                  
                                                                                                    
   Atomic configuration                                                                             
    2 entries                                                                                       
     n  l   j            E        occ.                                                              
     1  0  0.50        -6.4927   1.0000                                                             
     2  1  0.50        -3.4015   0.0000                                                             
   Description                                                                                      
     l       E           TYP  RCUT    TYP  RCUT                                                     
     0     -6.4927494     23  1.100                                                                 
     0      6.8029130     23  1.100                                                                 
     1     -4.0817478     23  1.100                                                                 
  local pseudopotential read in
  atomic valenz-charges read in
  non local Contribution for L=           0  read in
    real space projection operators read in
  non local Contribution for L=           0  read in
    real space projection operators read in
  non local Contribution for L=           1  read in
    real space projection operators read in
    PAW grid and wavefunctions read in
 
   number of l-projection  operators is LMAX  =           3
   number of lm-projection operators is LMMAX =           5
 
 POTCAR:    PAW_PBE O 08Apr2002                   
   VRHFIN =O: s2p4                                                                                  
   LEXCH  = PE                                                                                      
   EATOM  =   432.3788 eV,   31.7789 Ry                                                             
                                                                                                    
   TITEL  = PAW_PBE O 08Apr2002                                                                     
   LULTRA =        F    use ultrasoft PP ?                                                          
   IUNSCR =        1    unscreen: 0-lin 1-nonlin 2-no                                               
   RPACOR =    1.200    partial core radius                                                         
   POMASS =   16.000; ZVAL   =    6.000    mass and valenz                                          
   RCORE  =    1.520    outmost cutoff radius                                                       
   RWIGS  =    1.550; RWIGS  =    0.820    wigner-seitz radius (au A)                               
   ENMAX  =  400.000; ENMIN  =  300.000 eV                                                          
   ICORE  =        2    local potential                                                             
   LCOR   =        T    correct aug charges                                                         
   LPAW   =        T    paw PP                                                                      
   EAUG   =  605.392                                                                                
   DEXC   =    0.000                                                                                
   RMAX   =    1.553    core radius for proj-oper                                                   
   RAUG   =    1.300    factor for augmentation sphere                                              
   RDEP   =    1.550    radius for radial grids                                                     
   RDEPT  =    1.329    core radius for aug-charge                                                  
                                                                                                    
   Atomic configuration                                                                             
    4 entries                                                                                       
     n  l   j            E        occ.                                                              
     1  0  0.50      -514.6923   2.0000                                                             
     2  0  0.50       -23.9615   2.0000                                                             
     2  1  0.50        -9.0305   4.0000                                                             
     3  2  1.50        -9.5241   0.0000                                                             
   Description                                                                                      
     l       E           TYP  RCUT    TYP  RCUT                                                     
     0    -23.9615318     23  1.200                                                                 
     0     -9.5240782     23  1.200                                                                 
     1     -9.0304911     23  1.520                                                                 
     1      8.1634956     23  1.520                                                                 
     2     -9.5240782      7  1.500                                                                 
  local pseudopotential read in
  partial core-charges read in
  partial kinetic energy density read in
  kinetic energy density of atom read in
  atomic valenz-charges read in
  non local Contribution for L=           0  read in
    real space projection operators read in
  non local Contribution for L=           0  read in
    real space projection operators read in
  non local Contribution for L=           1  read in
    real space projection operators read in
  non local Contribution for L=           1  read in
    real space projection operators read in
    PAW grid and wavefunctions read in
 
   number of l-projection  operators is LMAX  =           4
   number of lm-projection operators is LMMAX =           8
 
 Optimization of the real space projectors (new method)

 maximal supplied QI-value         = 15.12
 optimisation between [QCUT,QGAM] = [ 11.34, 22.83] = [ 36.00,145.93] Ry 
 Optimized for a Real-space Cutoff    1.43 Angstroem

   l    n(q)    QCUT    max X(q) W(low)/X(q) W(high)/X(q)  e(spline) 
   2      9    11.338    53.897    0.16E-03    0.20E-03    0.28E-06
   2      9    11.338    52.416    0.16E-03    0.20E-03    0.29E-06
   0     10    11.338   122.045    0.31E-04    0.76E-04    0.15E-06
   0     10    11.338    73.629    0.30E-04    0.72E-04    0.15E-06
   1      9    11.338    15.255    0.20E-03    0.19E-04    0.17E-06
   1      9    11.338     9.562    0.16E-03    0.15E-04    0.14E-06
 Optimization of the real space projectors (new method)

 maximal supplied QI-value         = 13.98
 optimisation between [QCUT,QGAM] = [ 11.33, 22.79] = [ 35.93,145.49] Ry 
 Optimized for a Real-space Cutoff    1.56 Angstroem

   l    n(q)    QCUT    max X(q) W(low)/X(q) W(high)/X(q)  e(spline) 
   2     10    11.327   152.873    0.32E-03    0.72E-03    0.11E-05
   2     10    11.327   151.010    0.32E-03    0.72E-03    0.11E-05
   0     11    11.327    72.114    0.43E-04    0.61E-04    0.13E-06
   0     11    11.327    44.596    0.40E-04    0.57E-04    0.12E-06
   1     10    11.327    13.742    0.16E-03    0.10E-03    0.19E-06
   1     10    11.327     8.461    0.12E-03    0.78E-04    0.15E-06
 Optimization of the real space projectors (new method)

 maximal supplied QI-value         = 34.20
 optimisation between [QCUT,QGAM] = [ 11.29, 22.57] = [ 35.68,142.71] Ry 
 Optimized for a Real-space Cutoff    1.16 Angstroem

   l    n(q)    QCUT    max X(q) W(low)/X(q) W(high)/X(q)  e(spline) 
   0      8    11.287    19.460    0.40E-03    0.73E-03    0.16E-06
   0      8    11.287    12.209    0.38E-03    0.70E-03    0.15E-06
   1      7    11.287     4.655    0.22E-03    0.25E-04    0.22E-06
 Optimization of the real space projectors (new method)

 maximal supplied QI-value         = 24.76
 optimisation between [QCUT,QGAM] = [ 11.39, 22.77] = [ 36.31,145.25] Ry 
 Optimized for a Real-space Cutoff    1.00 Angstroem

   l    n(q)    QCUT    max X(q) W(low)/X(q) W(high)/X(q)  e(spline) 
   0      7    11.387    20.381    0.39E-03    0.13E-02    0.15E-06
   0      7    11.387    15.268    0.42E-03    0.14E-02    0.17E-06
   1      6    11.387     5.964    0.41E-03    0.11E-02    0.17E-06
   1      6    11.387     5.382    0.39E-03    0.87E-03    0.15E-06
  PAW_PBE Ag 02Apr2005                  :
 energy of atom  1       EATOM=-1037.2675
 kinetic energy error for atom=    0.0052 (will be added to EATOM!!)
  PAW_PBE Os 17Jan2003                  :
 energy of atom  2       EATOM= -417.5999
 kinetic energy error for atom=    0.0029 (will be added to EATOM!!)
  PAW_PBE H 15Jun2001                   :
 energy of atom  3       EATOM=  -12.4884
 kinetic energy error for atom=    0.0020 (will be added to EATOM!!)
  PAW_PBE O 08Apr2002                   :
 energy of atom  4       EATOM= -432.3788
 kinetic energy error for atom=    0.0224 (will be added to EATOM!!)
 
 
 POSCAR: Ag-Os-H2O
  positions in direct lattice
  velocities in cartesian coordinates
 exchange correlation table for  LEXCH =        8
   RHO(1)=    0.500       N(1)  =     2000
   RHO(2)=  100.500       N(2)  =     4000

 VTST: version 3.2, (02/03/18)

 CHAIN: initializing optimizer
 
 OPT: Using VASP Conjugate-Gradient optimizer
 CHAIN: Read ICHAIN            0
 
 POSCAR: Ag-Os-H2O
  positions in direct lattice
  velocities in cartesian coordinates
 


--------------------------------------------------------------------------------------------------------


 ion  position               nearest neighbor table
   1  0.000  0.000  0.212-   2 2.93   8 2.93   7 2.93   6 2.93   4 2.93  12 2.93  16 2.93  10 2.93
                             3 2.93
   2  0.333  0.000  0.212-   1 2.93   8 2.93   9 2.93   3 2.93   4 2.93   5 2.93  10 2.93  17 2.93
                            11 2.93
   3  0.667  0.000  0.212-   9 2.93   2 2.93   5 2.93  11 2.93   7 2.93  18 2.93   1 2.93   6 2.93
                            12 2.93
   4  0.000  0.333  0.212-   5 2.93   6 2.93   2 2.93   1 2.93   7 2.93  13 2.93  15 2.93   9 2.93
                            10 2.93
   5  0.333  0.333  0.212-   4 2.93   3 2.93   7 2.93   2 2.93   8 2.93  14 2.93  13 2.93  11 2.93
                             6 2.93
   6  0.667  0.333  0.212-   4 2.93   9 2.93   1 2.93  15 2.93   8 2.93  12 2.93   3 2.93   5 2.93
                            14 2.93
   7  0.000  0.667  0.212-   8 2.93   1 2.93   5 2.93   3 2.93   4 2.93  16 2.93  18 2.93  13 2.93
                             9 2.93
   8  0.333  0.667  0.212-   7 2.93   1 2.93   2 2.93   9 2.93   5 2.93  16 2.93   6 2.93  17 2.93
                            14 2.93
   9  0.667  0.667  0.212-   3 2.93   2 2.93   8 2.93   6 2.93  17 2.93   4 2.93  15 2.93   7 2.93
                            18 2.93
  10  0.111  0.111  0.308-  20 2.89  12 2.93  16 2.93  15 2.93  17 2.93  13 2.93  11 2.93   2 2.93
                             1 2.93   4 2.93  19 2.93  26 2.93
  11  0.444  0.111  0.308-  21 2.89  20 2.89  27 2.92  14 2.93  17 2.93  18 2.93   3 2.93  12 2.93
                            13 2.93  10 2.93   5 2.93   2 2.93
  12  0.778  0.111  0.308-  21 2.89  10 2.93  16 2.93  18 2.93  15 2.93  11 2.93   1 2.93  14 2.93
                             6 2.93   3 2.93  25 2.93  19 2.93
  13  0.111  0.444  0.308-  20 2.89  23 2.89  22 2.92  15 2.93  14 2.93  18 2.93  10 2.93  11 2.93
                            16 2.93   4 2.93   5 2.93   7 2.93
  14  0.444  0.444  0.308-  23 2.89  21 2.89  24 2.92  13 2.93  11 2.93  16 2.93   5 2.93  12 2.93
                            17 2.93   8 2.93  15 2.93   6 2.93
  15  0.778  0.444  0.308-  24 2.92  22 2.92  19 2.93  13 2.93  10 2.93  12 2.93  17 2.93  18 2.93
                             4 2.93   6 2.93   9 2.93  14 2.93
  16  0.111  0.778  0.308-  23 2.89  18 2.93  12 2.93  10 2.93  14 2.93  17 2.93  13 2.93   7 2.93
                             8 2.93   1 2.93  26 2.93  25 2.93
  17  0.444  0.778  0.308-  27 2.92  24 2.92  26 2.93  11 2.93  10 2.93   9 2.93  18 2.93  15 2.93
                            16 2.93   2 2.93  14 2.93   8 2.93
  18  0.778  0.778  0.308-  22 2.92  27 2.92  25 2.93  16 2.93  12 2.93  13 2.93  11 2.93  17 2.93
                            15 2.93   7 2.93   3 2.93   9 2.93
  19  0.888  0.223  0.404-  28 2.90  24 2.93  22 2.93  15 2.93  20 2.93  21 2.93  10 2.93  12 2.93
                            26 2.94  25 2.94  32 2.95  31 2.95
  20  0.222  0.222  0.402-  36 2.76  13 2.89  11 2.89  10 2.89  31 2.93  29 2.93  21 2.93  23 2.93
                            19 2.93  26 2.93  27 2.94  22 2.94
  21  0.556  0.222  0.402-  36 2.76  11 2.89  14 2.89  12 2.89  30 2.93  32 2.93  20 2.93  23 2.93
                            25 2.93  19 2.93  27 2.94  24 2.94
  22  0.888  0.556  0.403-  35 2.90  18 2.92  15 2.92  24 2.92  27 2.92  13 2.92  25 2.93  19 2.93
                            33 2.94  31 2.94  23 2.94  20 2.94
  23  0.222  0.556  0.402-  36 2.76  14 2.89  13 2.89  16 2.89  34 2.93  33 2.93  21 2.93  20 2.93
                            26 2.93  25 2.93  22 2.94  24 2.94
  24  0.556  0.556  0.403-  35 2.90  15 2.92  17 2.92  27 2.92  22 2.92  14 2.92  19 2.93  26 2.93
                            32 2.94  34 2.94  23 2.94  21 2.94
  25  0.888  0.888  0.404-  28 2.90  22 2.93  27 2.93  18 2.93  23 2.93  21 2.93  16 2.93  12 2.93
                            26 2.94  19 2.94  33 2.95  30 2.95
  26  0.223  0.888  0.404-  28 2.90  27 2.93  24 2.93  17 2.93  23 2.93  20 2.93  16 2.93  10 2.93
                            25 2.94  19 2.94  34 2.95  29 2.95
  27  0.556  0.888  0.403-  35 2.90  17 2.92  18 2.92  24 2.92  22 2.92  11 2.92  26 2.93  25 2.93
                            29 2.94  30 2.94  20 2.94  21 2.94
  28  0.000  0.000  0.498-  26 2.90  25 2.90  19 2.90  29 2.96  34 2.96  33 2.96  32 2.96  31 2.96
                            30 2.96
  29  0.333  0.008  0.499-  31 2.86  30 2.87  36 2.88  20 2.93  27 2.94  26 2.95  28 2.96  35 2.97
                            34 3.06
  30  0.659  0.008  0.499-  32 2.86  29 2.87  36 2.88  21 2.93  27 2.94  25 2.95  28 2.96  35 2.97
                            33 3.06
  31  0.008  0.333  0.499-  29 2.86  33 2.87  36 2.88  20 2.93  22 2.94  19 2.95  28 2.96  35 2.97
                            32 3.06
  32  0.659  0.333  0.499-  30 2.86  34 2.87  36 2.88  21 2.93  24 2.94  19 2.95  28 2.96  35 2.97
                            31 3.06
  33  0.008  0.659  0.499-  34 2.86  31 2.87  36 2.88  23 2.93  22 2.94  25 2.95  28 2.96  35 2.97
                            30 3.06
  34  0.333  0.659  0.499-  33 2.86  32 2.87  36 2.88  23 2.93  24 2.94  26 2.95  28 2.96  35 2.97
                            29 3.06
  35  0.667  0.667  0.498-  24 2.90  27 2.90  22 2.90  30 2.97  32 2.97  29 2.97  34 2.97  31 2.97
                            33 2.97
  36  0.333  0.333  0.489-  39 2.30  21 2.76  20 2.76  23 2.76  31 2.88  30 2.88  33 2.88  29 2.88
                            34 2.88  32 2.88
  37  0.278  0.267  0.588-  39 0.98
  38  0.458  0.263  0.588-  39 0.98
  39  0.332  0.339  0.581-  37 0.98  38 0.98  36 2.30
 
  LATTYP: Found a hexagonal cell.
 ALAT       =     8.7913665772
 C/A-ratio  =     2.8382349142
  
  Lattice vectors:
  
 A1 = (  -4.3956832886,  -7.6135467898,   0.0000000000)
 A2 = (   8.7913665771,   0.0000000000,   0.0000000000)
 A3 = (   0.0000000000,   0.0000000000,  24.9519635625)


Analysis of symmetry for initial positions (statically):
=====================================================================
 Subroutine PRICEL returns:
 Original cell was already a primitive cell.
 

 Routine SETGRP: Setting up the symmetry group for a 
 hexagonal supercell.


 Subroutine GETGRP returns: Found  1 space group operations
 (whereof  1 operations were pure point group operations)
 out of a pool of 24 trial point group operations.


The static configuration has the point symmetry C_1 .


Analysis of symmetry for dynamics (positions and initial velocities):
=====================================================================
 Subroutine PRICEL returns:
 Original cell was already a primitive cell.
 

 Routine SETGRP: Setting up the symmetry group for a 
 hexagonal supercell.


 Subroutine GETGRP returns: Found  1 space group operations
 (whereof  1 operations were pure point group operations)
 out of a pool of 24 trial point group operations.


The dynamic configuration has the point symmetry C_1 .


Analysis of constrained symmetry for selective dynamics:
=====================================================================
 Subroutine PRICEL returns:
 Original cell was already a primitive cell.
 

 Routine SETGRP: Setting up the symmetry group for a 
 hexagonal supercell.


 Subroutine GETGRP returns: Found  1 space group operations
 (whereof  1 operations were pure point group operations)
 out of a pool of 24 trial point group operations.


The constrained configuration has the point symmetry C_1 .


 Subroutine INISYM returns: Found  1 space group operations
 (whereof  1 operations are pure point group operations),
 and found     1 'primitive' translations


----------------------------------------------------------------------------------------

                                     Primitive cell                                     

  volume of cell :    1670.1218

  direct lattice vectors                    reciprocal lattice vectors
     8.791366577  0.000000000  0.000000000     0.113747958 -0.065672414  0.000000000
     4.395683289  7.613546790  0.000000000     0.000000000  0.131344829  0.000000000
     0.000000000  0.000000000 24.951963562     0.000000000  0.000000000  0.040077006

  length of vectors
     8.791366577  8.791366577 24.951963562     0.131344829  0.131344829  0.040077006

  position of ions in fractional coordinates (direct lattice)
     0.000000000  0.000000000  0.211694287
     0.333333313  0.000000000  0.211694287
     0.666666627  0.000000000  0.211694287
     0.000000000  0.333333343  0.211694287
     0.333333313  0.333333343  0.211694287
     0.666666687  0.333333343  0.211694287
     0.000000000  0.666666687  0.211694287
     0.333333313  0.666666687  0.211694287
     0.666666627  0.666666687  0.211694287
     0.111111104  0.111111112  0.307586829
     0.444444448  0.111111112  0.307586829
     0.777777791  0.111111112  0.307586829
     0.111111097  0.444444448  0.307586829
     0.444444418  0.444444448  0.307586829
     0.777777791  0.444444448  0.307586829
     0.111111104  0.777777791  0.307586829
     0.444444448  0.777777791  0.307586829
     0.777777791  0.777777791  0.307586829
     0.888472583  0.223054850  0.403593158
     0.222244894  0.222244909  0.401652207
     0.555510152  0.222244909  0.401652207
     0.887954736  0.556022662  0.402965522
     0.222244909  0.555510212  0.401652207
     0.556022662  0.556022662  0.402965522
     0.888472583  0.888472583  0.403593158
     0.223054820  0.888472583  0.403593158
     0.556022602  0.887954736  0.402965522
     0.000000000  0.000000000  0.498048084
     0.333023651  0.007549730  0.498895698
     0.659426559  0.007549730  0.498895698
     0.007549730  0.333023681  0.498895698
     0.659426619  0.333023681  0.498895698
     0.007549730  0.659426619  0.498895698
     0.333023651  0.659426619  0.498895698
     0.666666627  0.666666687  0.497805120
     0.333333313  0.333333343  0.489064331
     0.278451992  0.266733099  0.588333131
     0.457899208  0.262768096  0.587863418
     0.332067348  0.339135438  0.581270903

  ion indices of the primitive-cell ions
   primitive index   ion index
                 1           1
                 2           2
                 3           3
                 4           4
                 5           5
                 6           6
                 7           7
                 8           8
                 9           9
                10          10
                11          11
                12          12
                13          13
                14          14
                15          15
                16          16
                17          17
                18          18
                19          19
                20          20
                21          21
                22          22
                23          23
                24          24
                25          25
                26          26
                27          27
                28          28
                29          29
                30          30
                31          31
                32          32
                33          33
                34          34
                35          35
                36          36
                37          37
                38          38
                39          39

----------------------------------------------------------------------------------------

 
 
 KPOINTS: Automatic mesh                          

Automatic generation of k-mesh.
 Grid dimensions read from file:
 generate k-points for:    8    8    1

 Generating k-lattice:

  Cartesian coordinates                     Fractional coordinates (reciprocal lattice)
     0.014218495 -0.008209052  0.000000000     0.125000000  0.000000000  0.000000000
     0.000000000  0.016418104  0.000000000     0.000000000  0.125000000  0.000000000
     0.000000000  0.000000000  0.040077006     0.000000000  0.000000000  1.000000000

  Length of vectors
     0.016418104  0.016418104  0.040077006

  Shift w.r.t. Gamma in fractional coordinates (k-lattice)
     0.000000000  0.000000000  0.000000000

 TETIRR: Found    192 inequivalent tetrahedra from      384
 
 Subroutine IBZKPT returns following result:
 ===========================================
 
 Found     34 irreducible k-points:
 
 Following reciprocal coordinates:
            Coordinates               Weight
  0.000000  0.000000  0.000000      1.000000
  0.125000  0.000000  0.000000      2.000000
  0.125000  0.125000  0.000000      2.000000
  0.000000  0.125000  0.000000      2.000000
  0.250000  0.000000  0.000000      2.000000
  0.250000  0.250000  0.000000      2.000000
  0.000000  0.250000  0.000000      2.000000
  0.375000  0.000000  0.000000      2.000000
  0.375000  0.375000  0.000000      2.000000
  0.000000  0.375000  0.000000      2.000000
  0.500000  0.000000  0.000000      1.000000
  0.500000  0.500000  0.000000      1.000000
  0.000000  0.500000  0.000000      1.000000
  0.250000  0.125000  0.000000      2.000000
  0.125000  0.250000  0.000000      2.000000
 -0.125000  0.125000  0.000000      2.000000
  0.375000  0.125000  0.000000      2.000000
  0.250000  0.375000  0.000000      2.000000
 -0.125000  0.250000  0.000000      2.000000
  0.250000 -0.125000  0.000000      2.000000
 -0.125000 -0.375000  0.000000      2.000000
 -0.375000 -0.250000  0.000000      2.000000
  0.500000  0.125000  0.000000      2.000000
  0.375000  0.500000  0.000000      2.000000
 -0.125000  0.375000  0.000000      2.000000
  0.375000 -0.125000  0.000000      2.000000
 -0.125000  0.500000  0.000000      2.000000
  0.500000 -0.375000  0.000000      2.000000
  0.500000  0.250000  0.000000      2.000000
  0.250000  0.500000  0.000000      2.000000
 -0.250000  0.250000  0.000000      2.000000
 -0.375000  0.250000  0.000000      2.000000
  0.375000 -0.375000  0.000000      2.000000
 -0.250000  0.375000  0.000000      2.000000
 
 Following cartesian coordinates:
            Coordinates               Weight
  0.000000  0.000000  0.000000      1.000000
  0.014218 -0.008209  0.000000      2.000000
  0.014218  0.008209  0.000000      2.000000
  0.000000  0.016418  0.000000      2.000000
  0.028437 -0.016418  0.000000      2.000000
  0.028437  0.016418  0.000000      2.000000
  0.000000  0.032836  0.000000      2.000000
  0.042655 -0.024627  0.000000      2.000000
  0.042655  0.024627  0.000000      2.000000
  0.000000  0.049254  0.000000      2.000000
  0.056874 -0.032836  0.000000      1.000000
  0.056874  0.032836  0.000000      1.000000
  0.000000  0.065672  0.000000      1.000000
  0.028437 -0.000000  0.000000      2.000000
  0.014218  0.024627  0.000000      2.000000
 -0.014218  0.024627  0.000000      2.000000
  0.042655 -0.008209  0.000000      2.000000
  0.028437  0.032836  0.000000      2.000000
 -0.014218  0.041045  0.000000      2.000000
  0.028437 -0.032836  0.000000      2.000000
 -0.014218 -0.041045  0.000000      2.000000
 -0.042655 -0.008209  0.000000      2.000000
  0.056874 -0.016418  0.000000      2.000000
  0.042655  0.041045  0.000000      2.000000
 -0.014218  0.057463  0.000000      2.000000
  0.042655 -0.041045  0.000000      2.000000
 -0.014218  0.073881  0.000000      2.000000
  0.056874 -0.082091  0.000000      2.000000
  0.056874 -0.000000  0.000000      2.000000
  0.028437  0.049254  0.000000      2.000000
 -0.028437  0.049254  0.000000      2.000000
 -0.042655  0.057463  0.000000      2.000000
  0.042655 -0.073881  0.000000      2.000000
 -0.028437  0.065672  0.000000      2.000000
 


--------------------------------------------------------------------------------------------------------




 Dimension of arrays:
   k-points           NKPTS =     34   k-points in BZ     NKDIM =     34   number of bands    NBANDS=    252
   number of dos      NEDOS =    301   number of ions     NIONS =     39
   non local maximal  LDIM  =      6   non local SUM 2l+1 LMDIM =     18
   total plane-waves  NPLWV = 322560
   max r-space proj   IRMAX =   3146   max aug-charges    IRDMAX=  11603
   dimension x,y,z NGX =    48 NGY =   48 NGZ =  140
   dimension x,y,z NGXF=    96 NGYF=   96 NGZF=  280
   support grid    NGXF=    96 NGYF=   96 NGZF=  280
   ions per type =              35   1   2   1
   NGX,Y,Z   is equivalent  to a cutoff of   9.08,  9.08,  9.33 a.u.
   NGXF,Y,Z  is equivalent  to a cutoff of  18.15, 18.15, 18.66 a.u.

 SYSTEM =  unknown system                          
 POSCAR =  Ag-Os-H2O                               

 Startparameter for this run:
   NWRITE =      2    write-flag & timer
   PREC   = normal    normal or accurate (medium, high low for compatibility)
   ISTART =      0    job   : 0-new  1-cont  2-samecut
   ICHARG =     11    charge: 1-file 2-atom 10-const
   ISPIN  =      1    spin polarized calculation?
   LNONCOLLINEAR =      F non collinear calculations
   LSORBIT =      F    spin-orbit coupling
   INIWAV =      1    electr: 0-lowe 1-rand  2-diag
   LASPH  =      F    aspherical Exc in radial PAW
   METAGGA=      F    non-selfconsistent MetaGGA calc.

 Electronic Relaxation 1
   ENCUT  =  500.0 eV  36.75 Ry    6.06 a.u.  16.03 16.03 45.49*2*pi/ulx,y,z
   ENINI  =  500.0     initial cutoff
   ENAUG  =  605.4 eV  augmentation charge cutoff
   NELM   =    150;   NELMIN=  2; NELMDL= -5     # of ELM steps 
   EDIFF  = 0.1E-04   stopping-criterion for ELM
   LREAL  =      T    real-space projection
   NLSPLINE    = F    spline interpolate recip. space projectors
   LCOMPAT=      F    compatible to vasp.4.4
   GGA_COMPAT  = T    GGA compatible to vasp.4.4-vasp.4.6
   LMAXPAW     = -100 max onsite density
   LMAXMIX     =    2 max onsite mixed and CHGCAR
   VOSKOWN=      0    Vosko Wilk Nusair interpolation
   ROPT   =   -0.00050  -0.00050  -0.00050  -0.00050
 Ionic relaxation
   EDIFFG = -.1E-01   stopping-criterion for IOM
   NSW    =      0    number of steps for IOM
   NBLOCK =      1;   KBLOCK =      1    inner block; outer block 
   IBRION =     -1    ionic relax: 0-MD 1-quasi-New 2-CG
   NFREE  =      1    steps in history (QN), initial steepest desc. (CG)
   ISIF   =      2    stress and relaxation
   IWAVPR =     10    prediction:  0-non 1-charg 2-wave 3-comb
   ISYM   =      2    0-nonsym 1-usesym 2-fastsym
   LCORR  =      T    Harris-Foulkes like correction to forces

   POTIM  = 0.5000    time-step for ionic-motion
   TEIN   =    0.0    initial temperature
   TEBEG  =    0.0;   TEEND  =   0.0 temperature during run
   SMASS  =  -3.00    Nose mass-parameter (am)
   estimated Nose-frequenzy (Omega)   =  0.10E-29 period in steps = 0.13E+47 mass=  -0.177E-26a.u.
   SCALEE = 1.0000    scale energy and forces
   NPACO  =    256;   APACO  = 16.0  distance and # of slots for P.C.
   PSTRESS=    0.0 pullay stress

  Mass of Ions in am
   POMASS = 107.87190.20  1.00 16.00
  Ionic Valenz
   ZVAL   =  11.00  8.00  1.00  6.00
  Atomic Wigner-Seitz radii
   RWIGS  =  -1.00 -1.00 -1.00 -1.00
  virtual crystal weights 
   VCA    =   1.00  1.00  1.00  1.00
   NELECT =     401.0000    total number of electrons
   NUPDOWN=      -1.0000    fix difference up-down

 DOS related values:
   EMIN   =  10.00;   EMAX   =-10.00  energy-range for DOS
   EFERMI =   0.00
   ISMEAR =    -5;   SIGMA  =   0.10  broadening in eV -4-tet -1-fermi 0-gaus

 Electronic relaxation 2 (details)
   IALGO  =     68    algorithm
   LDIAG  =      T    sub-space diagonalisation (order eigenvalues)
   LSUBROT=      F    optimize rotation matrix (better conditioning)
   TURBO    =      0    0=normal 1=particle mesh
   IRESTART =      0    0=no restart 2=restart with 2 vectors
   NREBOOT  =      0    no. of reboots
   NMIN     =      0    reboot dimension
   EREF     =   0.00    reference energy to select bands
   IMIX   =      4    mixing-type and parameters
     AMIX     =   0.40;   BMIX     =  1.00
     AMIX_MAG =   1.60;   BMIX_MAG =  1.00
     AMIN     =   0.10
     WC   =   100.;   INIMIX=   1;  MIXPRE=   1;  MAXMIX= -45

 Intra band minimization:
   WEIMIN = 0.0000     energy-eigenvalue tresh-hold
   EBREAK =  0.99E-08  absolut break condition
   DEPER  =   0.30     relativ break condition  

   TIME   =   0.40     timestep for ELM

  volume/ion in A,a.u.               =      42.82       288.99
  Fermi-wavevector in a.u.,A,eV,Ry     =   1.017514  1.922822 14.086575  1.035334
  Thomas-Fermi vector in A             =   2.150919
 
 Write flags
   LWAVE        =      F    write WAVECAR
   LDOWNSAMPLE  =      F    k-point downsampling of WAVECAR
   LCHARG       =      F    write CHGCAR
   LVTOT        =      F    write LOCPOT, total local potential
   LVHAR        =      F    write LOCPOT, Hartree potential only
   LELF         =      F    write electronic localiz. function (ELF)
   LORBIT       =     10    0 simple, 1 ext, 2 COOP (PROOUT), +10 PAW based schemes


 Dipole corrections
   LMONO  =      F    monopole corrections only (constant potential shift)
   LDIPOL =      F    correct potential (dipole corrections)
   IDIPOL =      0    1-x, 2-y, 3-z, 4-all directions 
   EPSILON=  1.0000000 bulk dielectric constant

 Exchange correlation treatment:
   GGA     =    --    GGA type
   LEXCH   =     8    internal setting for exchange type
   VOSKOWN=      0    Vosko Wilk Nusair interpolation
   LHFCALC =     F    Hartree Fock is set to
   LHFONE  =     F    Hartree Fock one center treatment
   AEXX    =    0.0000 exact exchange contribution

 Linear response parameters
   LEPSILON=     F    determine dielectric tensor
   LRPA    =     F    only Hartree local field effects (RPA)
   LNABLA  =     F    use nabla operator in PAW spheres
   LVEL    =     F    velocity operator in full k-point grid
   LINTERFAST=   F  fast interpolation
   KINTER  =     0    interpolate to denser k-point grid
   CSHIFT  =0.1000    complex shift for real part using Kramers Kronig
   OMEGAMAX=  -1.0    maximum frequency
   DEG_THRESHOLD= 0.2000000E-02 threshold for treating states as degnerate
   RTIME   =   -0.100 relaxation time in fs
  (WPLASMAI=    0.000 imaginary part of plasma frequency in eV, 0.658/RTIME)
   DFIELD  = 0.0000000 0.0000000 0.0000000 field for delta impulse in time
 
 Orbital magnetization related:
   ORBITALMAG=     F  switch on orbital magnetization
   LCHIMAG   =     F  perturbation theory with respect to B field
   DQ        =  0.001000  dq finite difference perturbation B field
   LLRAUG    =     F  two centre corrections for induced B field



--------------------------------------------------------------------------------------------------------


 Static calculation
 charge density and potential remain constant during run
 non-spin polarized calculation
 RMM-DIIS sequential band-by-band and
  variant of blocked Davidson during initial phase
 perform sub-space diagonalisation
    before iterative eigenvector-optimisation
 no mixing
 using additional bands           51
 real space projection scheme for non local part
 use partial core corrections
 calculate Harris-corrections to forces 
   (improved forces if not selfconsistent)
 use gradient corrections 
 WARNING: stress and forces are not correct
  (second derivative of E(xc) not defined)
 use of overlap-Matrix (Vanderbilt PP)
 Fermi weights with tetrahedron method with Bloechl corrections


--------------------------------------------------------------------------------------------------------


  energy-cutoff  :      500.00
  volume of cell :     1670.12
      direct lattice vectors                 reciprocal lattice vectors
     8.791366577  0.000000000  0.000000000     0.113747958 -0.065672414  0.000000000
     4.395683289  7.613546790  0.000000000     0.000000000  0.131344829  0.000000000
     0.000000000  0.000000000 24.951963562     0.000000000  0.000000000  0.040077006

  length of vectors
     8.791366577  8.791366577 24.951963562     0.131344829  0.131344829  0.040077006


 
 k-points in units of 2pi/SCALE and weight: Automatic mesh                          
   0.00000000  0.00000000  0.00000000       0.016
   0.01421849 -0.00820905  0.00000000       0.031
   0.01421849  0.00820905  0.00000000       0.031
   0.00000000  0.01641810  0.00000000       0.031
   0.02843699 -0.01641810  0.00000000       0.031
   0.02843699  0.01641810  0.00000000       0.031
   0.00000000  0.03283621  0.00000000       0.031
   0.04265548 -0.02462716  0.00000000       0.031
   0.04265548  0.02462716  0.00000000       0.031
   0.00000000  0.04925431  0.00000000       0.031
   0.05687398 -0.03283621  0.00000000       0.016
   0.05687398  0.03283621  0.00000000       0.016
   0.00000000  0.06567241  0.00000000       0.016
   0.02843699 -0.00000000  0.00000000       0.031
   0.01421849  0.02462716  0.00000000       0.031
  -0.01421849  0.02462716  0.00000000       0.031
   0.04265548 -0.00820905  0.00000000       0.031
   0.02843699  0.03283621  0.00000000       0.031
  -0.01421849  0.04104526  0.00000000       0.031
   0.02843699 -0.03283621  0.00000000       0.031
  -0.01421849 -0.04104526  0.00000000       0.031
  -0.04265548 -0.00820905  0.00000000       0.031
   0.05687398 -0.01641810  0.00000000       0.031
   0.04265548  0.04104526  0.00000000       0.031
  -0.01421849  0.05746336  0.00000000       0.031
   0.04265548 -0.04104526  0.00000000       0.031
  -0.01421849  0.07388147  0.00000000       0.031
   0.05687398 -0.08209052  0.00000000       0.031
   0.05687398 -0.00000000  0.00000000       0.031
   0.02843699  0.04925431  0.00000000       0.031
  -0.02843699  0.04925431  0.00000000       0.031
  -0.04265548  0.05746336  0.00000000       0.031
   0.04265548 -0.07388147  0.00000000       0.031
  -0.02843699  0.06567241  0.00000000       0.031
 
 k-points in reciprocal lattice and weights: Automatic mesh                          
   0.00000000  0.00000000  0.00000000       0.016
   0.12500000  0.00000000  0.00000000       0.031
   0.12500000  0.12500000  0.00000000       0.031
   0.00000000  0.12500000  0.00000000       0.031
   0.25000000  0.00000000  0.00000000       0.031
   0.25000000  0.25000000  0.00000000       0.031
   0.00000000  0.25000000  0.00000000       0.031
   0.37500000  0.00000000  0.00000000       0.031
   0.37500000  0.37500000  0.00000000       0.031
   0.00000000  0.37500000  0.00000000       0.031
   0.50000000  0.00000000  0.00000000       0.016
   0.50000000  0.50000000  0.00000000       0.016
   0.00000000  0.50000000  0.00000000       0.016
   0.25000000  0.12500000  0.00000000       0.031
   0.12500000  0.25000000  0.00000000       0.031
  -0.12500000  0.12500000  0.00000000       0.031
   0.37500000  0.12500000  0.00000000       0.031
   0.25000000  0.37500000  0.00000000       0.031
  -0.12500000  0.25000000  0.00000000       0.031
   0.25000000 -0.12500000  0.00000000       0.031
  -0.12500000 -0.37500000  0.00000000       0.031
  -0.37500000 -0.25000000  0.00000000       0.031
   0.50000000  0.12500000  0.00000000       0.031
   0.37500000  0.50000000  0.00000000       0.031
  -0.12500000  0.37500000  0.00000000       0.031
   0.37500000 -0.12500000  0.00000000       0.031
  -0.12500000  0.50000000  0.00000000       0.031
   0.50000000 -0.37500000  0.00000000       0.031
   0.50000000  0.25000000  0.00000000       0.031
   0.25000000  0.50000000  0.00000000       0.031
  -0.25000000  0.25000000  0.00000000       0.031
  -0.37500000  0.25000000  0.00000000       0.031
   0.37500000 -0.37500000  0.00000000       0.031
  -0.25000000  0.37500000  0.00000000       0.031
 
 position of ions in fractional coordinates (direct lattice) 
   0.00000000  0.00000000  0.21169429
   0.33333331  0.00000000  0.21169429
   0.66666663  0.00000000  0.21169429
   0.00000000  0.33333334  0.21169429
   0.33333331  0.33333334  0.21169429
   0.66666669  0.33333334  0.21169429
   0.00000000  0.66666669  0.21169429
   0.33333331  0.66666669  0.21169429
   0.66666663  0.66666669  0.21169429
   0.11111110  0.11111111  0.30758683
   0.44444445  0.11111111  0.30758683
   0.77777779  0.11111111  0.30758683
   0.11111110  0.44444445  0.30758683
   0.44444442  0.44444445  0.30758683
   0.77777779  0.44444445  0.30758683
   0.11111110  0.77777779  0.30758683
   0.44444445  0.77777779  0.30758683
   0.77777779  0.77777779  0.30758683
   0.88847258  0.22305485  0.40359316
   0.22224489  0.22224491  0.40165221
   0.55551015  0.22224491  0.40165221
   0.88795474  0.55602266  0.40296552
   0.22224491  0.55551021  0.40165221
   0.55602266  0.55602266  0.40296552
   0.88847258  0.88847258  0.40359316
   0.22305482  0.88847258  0.40359316
   0.55602260  0.88795474  0.40296552
   0.00000000  0.00000000  0.49804808
   0.33302365  0.00754973  0.49889570
   0.65942656  0.00754973  0.49889570
   0.00754973  0.33302368  0.49889570
   0.65942662  0.33302368  0.49889570
   0.00754973  0.65942662  0.49889570
   0.33302365  0.65942662  0.49889570
   0.66666663  0.66666669  0.49780512
   0.33333331  0.33333334  0.48906433
   0.27845199  0.26673310  0.58833313
   0.45789921  0.26276810  0.58786342
   0.33206735  0.33913544  0.58127090
 
 position of ions in cartesian coordinates  (Angst):
   0.00000000  0.00000000  5.28218814
   2.93045535  0.00000000  5.28218814
   5.86091070  0.00000000  5.28218814
   1.46522781  2.53784900  5.28218814
   4.39568315  2.53784900  5.28218814
   7.32613904  2.53784900  5.28218814
   2.93045562  5.07569801  5.28218814
   5.86091096  5.07569801  5.28218814
   8.79136632  5.07569801  5.28218814
   1.46522770  0.84594965  7.67489535
   4.39568332  0.84594965  7.67489535
   7.32613893  0.84594965  7.67489535
   2.93045542  3.38379860  7.67489535
   5.86091083  3.38379860  7.67489535
   8.79136671  3.38379860  7.67489535
   4.39568328  5.92164760  7.67489535
   7.32613890  5.92164760  7.67489535
  10.25659451  5.92164760  7.67489535
   8.79136665  1.69823853 10.07044178
   2.93075457  1.69207201 10.02201122
   5.86061162  1.69207201 10.02201122
  10.25043511  4.23330455 10.05478103
   4.39568342  4.22940299 10.02201122
   7.33229857  4.23330455 10.05478103
  11.71633226  6.76442758 10.07044178
   5.86640077  6.76442758 10.07044178
   8.79136631  6.76048493 10.05478103
   0.00000000  0.00000000 12.42727764
   2.96091922  0.05748023 12.44842727
   5.83044683  0.05748023 12.44842727
   1.53023908  2.53549138 12.44842727
   7.26112776  2.53549138 12.44842727
   2.96500301  5.02057542 12.44842727
   5.82636356  5.02057542 12.44842727
   8.79136632  5.07569801 12.42121520
   4.39568315  2.53784900 12.20311537
   3.62044776  2.03078493 14.68006685
   5.18060513  2.00059720 14.66834659
   4.41005777  2.58202353 14.50385040
 


--------------------------------------------------------------------------------------------------------


 k-point   1 :   0.0000 0.0000 0.0000  plane waves:   42349
 k-point   2 :   0.1250 0.0000 0.0000  plane waves:   42346
 k-point   3 :   0.1250 0.1250 0.0000  plane waves:   42346
 k-point   4 :   0.0000 0.1250 0.0000  plane waves:   42346
 k-point   5 :   0.2500 0.0000 0.0000  plane waves:   42376
 k-point   6 :   0.2500 0.2500 0.0000  plane waves:   42376
 k-point   7 :   0.0000 0.2500 0.0000  plane waves:   42376
 k-point   8 :   0.3750 0.0000 0.0000  plane waves:   42380
 k-point   9 :   0.3750 0.3750 0.0000  plane waves:   42380
 k-point  10 :   0.0000 0.3750 0.0000  plane waves:   42380
 k-point  11 :   0.5000 0.0000 0.0000  plane waves:   42416
 k-point  12 :   0.5000 0.5000 0.0000  plane waves:   42416
 k-point  13 :   0.0000 0.5000 0.0000  plane waves:   42416
 k-point  14 :   0.2500 0.1250 0.0000  plane waves:   42390
 k-point  15 :   0.1250 0.2500 0.0000  plane waves:   42390
 k-point  16 :  -0.1250 0.1250 0.0000  plane waves:   42390
 k-point  17 :   0.3750 0.1250 0.0000  plane waves:   42414
 k-point  18 :   0.2500 0.3750 0.0000  plane waves:   42414
 k-point  19 :  -0.1250 0.2500 0.0000  plane waves:   42414
 k-point  20 :   0.2500-0.1250 0.0000  plane waves:   42414
 k-point  21 :  -0.1250-0.3750 0.0000  plane waves:   42414
 k-point  22 :  -0.3750-0.2500 0.0000  plane waves:   42414
 k-point  23 :   0.5000 0.1250 0.0000  plane waves:   42428
 k-point  24 :   0.3750 0.5000 0.0000  plane waves:   42428
 k-point  25 :  -0.1250 0.3750 0.0000  plane waves:   42428
 k-point  26 :   0.3750-0.1250 0.0000  plane waves:   42428
 k-point  27 :  -0.1250 0.5000 0.0000  plane waves:   42428
 k-point  28 :   0.5000-0.3750 0.0000  plane waves:   42428
 k-point  29 :   0.5000 0.2500 0.0000  plane waves:   42438
 k-point  30 :   0.2500 0.5000 0.0000  plane waves:   42438
 k-point  31 :  -0.2500 0.2500 0.0000  plane waves:   42438
 k-point  32 :  -0.3750 0.2500 0.0000  plane waves:   42416
 k-point  33 :   0.3750-0.3750 0.0000  plane waves:   42416
 k-point  34 :  -0.2500 0.3750 0.0000  plane waves:   42416

 maximum and minimum number of plane-waves per node :     42438    42346

 maximum number of plane-waves:     42438
 maximum index in each direction: 
   IXMAX=   16   IYMAX=   16   IZMAX=   45
   IXMIN=  -16   IYMIN=  -16   IZMIN=  -45


 serial   3D FFT for wavefunctions
 parallel 3D FFT for charge:
    minimum data exchange during FFTs selected (reduces bandwidth)


 total amount of memory used by VASP MPI-rank0   282761. kBytes
=======================================================================

   base      :      30000. kBytes
   nonlr-proj:      15509. kBytes
   fftplans  :       4808. kBytes
   grid      :      20723. kBytes
   one-center:        606. kBytes
   wavefun   :     211115. kBytes
 
     INWAV:  cpu time    0.0000: real time    0.0001
 initial charge density was supplied:
 number of electron     401.0000038 magnetization 
 keeping initial charge density in first step


--------------------------------------------------------------------------------------------------------


 Maximum index for non-local projection operator         3012
 Maximum index for augmentation-charges          696 (set IRDMAX)


--------------------------------------------------------------------------------------------------------


 First call to EWALD:  gamma=   0.149
 Maximum number of real-space cells 4x 4x 2
 Maximum number of reciprocal cells 2x 2x 5

    FEWALD:  cpu time    0.0015: real time    0.0016


--------------------------------------- Iteration      1(   1)  ---------------------------------------


    POTLOK:  cpu time    0.0505: real time    0.0509
    SETDIJ:  cpu time    0.0049: real time    0.0050
     EDDAV:  cpu time   26.7890: real time   26.7908
 BZINTS: Fermi energy:    9.122933;  401.000000 electrons
         Band energy: 0.105707E+04;  BLOECHL correction:   -0.013132
       DOS:  cpu time    0.0595: real time    0.0596
    --------------------------------------------
      LOOP:  cpu time   26.9039: real time   26.9062

 eigenvalue-minimisations  : 17136
 total energy-change (2. order) : 0.2426300E+04  (-0.1811706E+05)
 number of electron     401.0000038 magnetization 
 augmentation part      401.0000038 magnetization 

 Free energy of the ion-electron system (eV)
  ---------------------------------------------------
  alpha Z        PSCENC =       689.02624987
  Ewald energy   TEWEN  =    139095.77252738
  -Hartree energ DENC   =   -176790.80262320
  -exchange      EXHF   =         0.00000000
  -V(xc)+E(xc)   XCENC  =      -387.22589557
  PAW double counting   =     39430.10138171   -37846.74858327
  entropy T*S    EENTRO =         0.00000000
  eigenvalues    EBANDS =      1057.06965861
  atomic energy  EATOM  =     37179.10714358
  Solvation  Ediel_sol  =         0.00000000
  ---------------------------------------------------
  free energy    TOTEN  =      2426.29985910 eV

  energy without entropy =     2426.29985910  energy(sigma->0) =     2426.29985910


--------------------------------------------------------------------------------------------------------




--------------------------------------- Iteration      1(   2)  ---------------------------------------


     EDDAV:  cpu time   27.9928: real time   27.9932
 BZINTS: Fermi energy:    1.250045;  401.000000 electrons
         Band energy:-0.137932E+04;  BLOECHL correction:   -0.023887
       DOS:  cpu time    0.0506: real time    0.0506
    --------------------------------------------
      LOOP:  cpu time   28.0434: real time   28.0437

 eigenvalue-minimisations  : 18088
 total energy-change (2. order) :-0.2436394E+04  (-0.2315109E+04)
 number of electron     401.0000038 magnetization 
 augmentation part      401.0000038 magnetization 

 Free energy of the ion-electron system (eV)
  ---------------------------------------------------
  alpha Z        PSCENC =       689.02624987
  Ewald energy   TEWEN  =    139095.77252738
  -Hartree energ DENC   =   -176790.80262320
  -exchange      EXHF   =         0.00000000
  -V(xc)+E(xc)   XCENC  =      -387.22589557
  PAW double counting   =     39430.10138171   -37846.74858327
  entropy T*S    EENTRO =         0.00000000
  eigenvalues    EBANDS =     -1379.32468349
  atomic energy  EATOM  =     37179.10714358
  Solvation  Ediel_sol  =         0.00000000
  ---------------------------------------------------
  free energy    TOTEN  =       -10.09448300 eV

  energy without entropy =      -10.09448300  energy(sigma->0) =      -10.09448300


--------------------------------------------------------------------------------------------------------




--------------------------------------- Iteration      1(   3)  ---------------------------------------


     EDDAV:  cpu time   30.8925: real time   30.8927
 BZINTS: Fermi energy:    0.488266;  401.000000 electrons
         Band energy:-0.147897E+04;  BLOECHL correction:   -0.041305
       DOS:  cpu time    0.0581: real time    0.0581
    --------------------------------------------
      LOOP:  cpu time   30.9506: real time   30.9508

 eigenvalue-minimisations  : 20384
 total energy-change (2. order) :-0.9964186E+02  (-0.9751751E+02)
 number of electron     401.0000038 magnetization 
 augmentation part      401.0000038 magnetization 

 Free energy of the ion-electron system (eV)
  ---------------------------------------------------
  alpha Z        PSCENC =       689.02624987
  Ewald energy   TEWEN  =    139095.77252738
  -Hartree energ DENC   =   -176790.80262320
  -exchange      EXHF   =         0.00000000
  -V(xc)+E(xc)   XCENC  =      -387.22589557
  PAW double counting   =     39430.10138171   -37846.74858327
  entropy T*S    EENTRO =         0.00000000
  eigenvalues    EBANDS =     -1478.96653927
  atomic energy  EATOM  =     37179.10714358
  Solvation  Ediel_sol  =         0.00000000
  ---------------------------------------------------
  free energy    TOTEN  =      -109.73633878 eV

  energy without entropy =     -109.73633878  energy(sigma->0) =     -109.73633878


--------------------------------------------------------------------------------------------------------




--------------------------------------- Iteration      1(   4)  ---------------------------------------


     EDDAV:  cpu time   28.5779: real time   28.5782
 BZINTS: Fermi energy:    0.474162;  401.000000 electrons
         Band energy:-0.148057E+04;  BLOECHL correction:   -0.043277
       DOS:  cpu time    0.0585: real time    0.0585
    --------------------------------------------
      LOOP:  cpu time   28.6365: real time   28.6367

 eigenvalue-minimisations  : 18536
 total energy-change (2. order) :-0.1600269E+01  (-0.1596077E+01)
 number of electron     401.0000038 magnetization 
 augmentation part      401.0000038 magnetization 

 Free energy of the ion-electron system (eV)
  ---------------------------------------------------
  alpha Z        PSCENC =       689.02624987
  Ewald energy   TEWEN  =    139095.77252738
  -Hartree energ DENC   =   -176790.80262320
  -exchange      EXHF   =         0.00000000
  -V(xc)+E(xc)   XCENC  =      -387.22589557
  PAW double counting   =     39430.10138171   -37846.74858327
  entropy T*S    EENTRO =         0.00000000
  eigenvalues    EBANDS =     -1480.56680849
  atomic energy  EATOM  =     37179.10714358
  Solvation  Ediel_sol  =         0.00000000
  ---------------------------------------------------
  free energy    TOTEN  =      -111.33660800 eV

  energy without entropy =     -111.33660800  energy(sigma->0) =     -111.33660800


--------------------------------------------------------------------------------------------------------




--------------------------------------- Iteration      1(   5)  ---------------------------------------


     EDDAV:  cpu time   31.7445: real time   31.7481
 BZINTS: Fermi energy:    0.473947;  401.000000 electrons
         Band energy:-0.148060E+04;  BLOECHL correction:   -0.043334
       DOS:  cpu time    0.0585: real time    0.0585
    --------------------------------------------
      LOOP:  cpu time   31.8031: real time   31.8066

 eigenvalue-minimisations  : 21028
 total energy-change (2. order) :-0.3550769E-01  (-0.3547506E-01)
 number of electron     401.0000038 magnetization 
 augmentation part      401.0000038 magnetization 

 Free energy of the ion-electron system (eV)
  ---------------------------------------------------
  alpha Z        PSCENC =       689.02624987
  Ewald energy   TEWEN  =    139095.77252738
  -Hartree energ DENC   =   -176790.80262320
  -exchange      EXHF   =         0.00000000
  -V(xc)+E(xc)   XCENC  =      -387.22589557
  PAW double counting   =     39430.10138171   -37846.74858327
  entropy T*S    EENTRO =         0.00000000
  eigenvalues    EBANDS =     -1480.60231618
  atomic energy  EATOM  =     37179.10714358
  Solvation  Ediel_sol  =         0.00000000
  ---------------------------------------------------
  free energy    TOTEN  =      -111.37211569 eV

  energy without entropy =     -111.37211569  energy(sigma->0) =     -111.37211569


--------------------------------------------------------------------------------------------------------




--------------------------------------- Iteration      1(   6)  ---------------------------------------


    EDDIAG:  cpu time    5.2399: real time    5.2403
  RMM-DIIS:  cpu time   15.0365: real time   15.0366
    ORTHCH:  cpu time    0.9839: real time    0.9839
 BZINTS: Fermi energy:    0.473945;  401.000000 electrons
         Band energy:-0.148060E+04;  BLOECHL correction:   -0.043335
       DOS:  cpu time    0.0587: real time    0.0587
    --------------------------------------------
      LOOP:  cpu time   21.3190: real time   21.3195

 eigenvalue-minimisations  : 17341
 total energy-change (2. order) :-0.7968940E-03  (-0.7963372E-03)
 number of electron     401.0000038 magnetization 
 augmentation part      401.0000038 magnetization 

 Free energy of the ion-electron system (eV)
  ---------------------------------------------------
  alpha Z        PSCENC =       689.02624987
  Ewald energy   TEWEN  =    139095.77252738
  -Hartree energ DENC   =   -176790.80262320
  -exchange      EXHF   =         0.00000000
  -V(xc)+E(xc)   XCENC  =      -387.22589557
  PAW double counting   =     39430.10138171   -37846.74858327
  entropy T*S    EENTRO =         0.00000000
  eigenvalues    EBANDS =     -1480.60311307
  atomic energy  EATOM  =     37179.10714358
  Solvation  Ediel_sol  =         0.00000000
  ---------------------------------------------------
  free energy    TOTEN  =      -111.37291258 eV

  energy without entropy =     -111.37291258  energy(sigma->0) =     -111.37291258


--------------------------------------------------------------------------------------------------------




--------------------------------------- Iteration      1(   7)  ---------------------------------------


    EDDIAG:  cpu time    5.2417: real time    5.2420
  RMM-DIIS:  cpu time   21.5707: real time   21.5707
    ORTHCH:  cpu time    0.9813: real time    0.9813
 BZINTS: Fermi energy:    0.473944;  401.000000 electrons
         Band energy:-0.148060E+04;  BLOECHL correction:   -0.043335
       DOS:  cpu time    0.0586: real time    0.0586
    --------------------------------------------
      LOOP:  cpu time   27.8522: real time   27.8526

 eigenvalue-minimisations  : 24812
 total energy-change (2. order) :-0.2745472E-03  (-0.2740349E-03)
 number of electron     401.0000038 magnetization 
 augmentation part      401.0000038 magnetization 

 Free energy of the ion-electron system (eV)
  ---------------------------------------------------
  alpha Z        PSCENC =       689.02624987
  Ewald energy   TEWEN  =    139095.77252738
  -Hartree energ DENC   =   -176790.80262320
  -exchange      EXHF   =         0.00000000
  -V(xc)+E(xc)   XCENC  =      -387.22589557
  PAW double counting   =     39430.10138171   -37846.74858327
  entropy T*S    EENTRO =         0.00000000
  eigenvalues    EBANDS =     -1480.60338762
  atomic energy  EATOM  =     37179.10714358
  Solvation  Ediel_sol  =         0.00000000
  ---------------------------------------------------
  free energy    TOTEN  =      -111.37318713 eV

  energy without entropy =     -111.37318713  energy(sigma->0) =     -111.37318713


--------------------------------------------------------------------------------------------------------




--------------------------------------- Iteration      1(   8)  ---------------------------------------


    EDDIAG:  cpu time    5.2421: real time    5.2424
  RMM-DIIS:  cpu time   14.8347: real time   14.8347
    ORTHCH:  cpu time    0.9825: real time    0.9825
 BZINTS: Fermi energy:    0.473944;  401.000000 electrons
         Band energy:-0.148060E+04;  BLOECHL correction:   -0.043335
       DOS:  cpu time    0.0561: real time    0.0561
    --------------------------------------------
      LOOP:  cpu time   21.1154: real time   21.1158

 eigenvalue-minimisations  : 15407
 total energy-change (2. order) :-0.1160841E-04  (-0.1220892E-04)
 number of electron     401.0000038 magnetization 
 augmentation part      401.0000038 magnetization 

 Free energy of the ion-electron system (eV)
  ---------------------------------------------------
  alpha Z        PSCENC =       689.02624987
  Ewald energy   TEWEN  =    139095.77252738
  -Hartree energ DENC   =   -176790.80262320
  -exchange      EXHF   =         0.00000000
  -V(xc)+E(xc)   XCENC  =      -387.22589557
  PAW double counting   =     39430.10138171   -37846.74858327
  entropy T*S    EENTRO =         0.00000000
  eigenvalues    EBANDS =     -1480.60339923
  atomic energy  EATOM  =     37179.10714358
  Solvation  Ediel_sol  =         0.00000000
  ---------------------------------------------------
  free energy    TOTEN  =      -111.37319874 eV

  energy without entropy =     -111.37319874  energy(sigma->0) =     -111.37319874


--------------------------------------------------------------------------------------------------------




--------------------------------------- Iteration      1(   9)  ---------------------------------------


    EDDIAG:  cpu time    5.2416: real time    5.2417
  RMM-DIIS:  cpu time   12.1087: real time   12.1087
    ORTHCH:  cpu time    0.9820: real time    0.9821
 BZINTS: Fermi energy:    0.473944;  401.000000 electrons
         Band energy:-0.148060E+04;  BLOECHL correction:   -0.043335
       DOS:  cpu time    0.0560: real time    0.0560
    --------------------------------------------
      LOOP:  cpu time   18.3884: real time   18.3885

 eigenvalue-minimisations  : 11335
 total energy-change (2. order) :-0.2140441E-05  (-0.2159948E-05)
 number of electron     401.0000038 magnetization 
 augmentation part      401.0000038 magnetization 

 Free energy of the ion-electron system (eV)
  ---------------------------------------------------
  alpha Z        PSCENC =       689.02624987
  Ewald energy   TEWEN  =    139095.77252738
  -Hartree energ DENC   =   -176790.80262320
  -exchange      EXHF   =         0.00000000
  -V(xc)+E(xc)   XCENC  =      -387.22589557
  PAW double counting   =     39430.10138171   -37846.74858327
  entropy T*S    EENTRO =         0.00000000
  eigenvalues    EBANDS =     -1480.60340137
  atomic energy  EATOM  =     37179.10714358
  Solvation  Ediel_sol  =         0.00000000
  ---------------------------------------------------
  free energy    TOTEN  =      -111.37320088 eV

  energy without entropy =     -111.37320088  energy(sigma->0) =     -111.37320088


--------------------------------------------------------------------------------------------------------




 average (electrostatic) potential at core
  the test charge radii are     1.1249  1.1957  0.5201  0.7215
  (the norm of the test charge is              1.0000)
       1 -78.4525       2 -78.3965       3 -78.3965       4 -78.3970       5 -78.3892
       6 -78.3970       7 -78.3983       8 -78.3982       9 -78.4359      10 -78.6440
      11 -78.6004      12 -78.6438      13 -78.6017      14 -78.6015      15 -78.6304
      16 -78.6450      17 -78.6323      18 -78.6323      19 -78.5990      20 -78.6148
      21 -78.6135      22 -78.6016      23 -78.6112      24 -78.6016      25 -78.6004
      26 -78.6003      27 -78.6027      28 -78.3683      29 -78.3558      30 -78.3589
      31 -78.3485      32 -78.3493      33 -78.3134      34 -78.3128      35 -78.3688
      36 -50.8895      37 -41.1577      38 -41.1512      39 -77.7082
 
 
 
 E-fermi :   0.4739     XC(G=0):  -5.3565     alpha+bet : -5.0165

 Fermi energy:         0.4739441748

 k-point     1 :       0.0000    0.0000    0.0000
  band No.  band energies     occupation 
      1     -22.2550      2.00000
      2      -9.9495      2.00000
      3      -6.7576      2.00000
      4      -6.5632      2.00000
      5      -5.7992      2.00000
      6      -5.5397      2.00000
      7      -5.4254      2.00000
      8      -5.3443      2.00000
      9      -5.3438      2.00000
     10      -5.3408      2.00000
     11      -5.3362      2.00000
     12      -5.3359      2.00000
     13      -5.3302      2.00000
     14      -5.3118      2.00000
     15      -5.2971      2.00000
     16      -5.2965      2.00000
     17      -5.2960      2.00000
     18      -5.2918      2.00000
     19      -5.2917      2.00000
     20      -5.1604      2.00000
     21      -5.1377      2.00000
     22      -5.1320      2.00000
     23      -5.1307      2.00000
     24      -5.1237      2.00000
     25      -5.1237      2.00000
     26      -5.0681      2.00000
     27      -4.9464      2.00000
     28      -4.9459      2.00000
     29      -4.9458      2.00000
     30      -4.9222      2.00000
     31      -4.9206      2.00000
     32      -4.9197      2.00000
     33      -4.9089      2.00000
     34      -4.9033      2.00000
     35      -4.8849      2.00000
     36      -4.8849      2.00000
     37      -4.8798      2.00000
     38      -4.8785      2.00000
     39      -4.7825      2.00000
     40      -4.7706      2.00000
     41      -4.7686      2.00000
     42      -4.7335      2.00000
     43      -4.6994      2.00000
     44      -4.6982      2.00000
     45      -4.5610      2.00000
     46      -4.5602      2.00000
     47      -4.5456      2.00000
     48      -4.5434      2.00000
     49      -4.5322      2.00000
     50      -4.5287      2.00000
     51      -4.5284      2.00000
     52      -4.5275      2.00000
     53      -4.5009      2.00000
     54      -4.4953      2.00000
     55      -4.3984      2.00000
     56      -4.3903      2.00000
     57      -4.3548      2.00000
     58      -4.3446      2.00000
     59      -4.1607      2.00000
     60      -4.1601      2.00000
     61      -4.1591      2.00000
     62      -4.1543      2.00000
     63      -4.1479      2.00000
     64      -4.1477      2.00000
     65      -4.1410      2.00000
     66      -4.1258      2.00000
     67      -4.1256      2.00000
     68      -4.0863      2.00000
     69      -4.0863      2.00000
     70      -3.9987      2.00000
     71      -3.9978      2.00000
     72      -3.9844      2.00000
     73      -3.9826      2.00000
     74      -3.9808      2.00000
     75      -3.9751      2.00000
     76      -3.9636      2.00000
     77      -3.9635      2.00000
     78      -3.9365      2.00000
     79      -3.9348      2.00000
     80      -3.9189      2.00000
     81      -3.9119      2.00000
     82      -3.9112      2.00000
     83      -3.9107      2.00000
     84      -3.9023      2.00000
     85      -3.9017      2.00000
     86      -3.8976      2.00000
     87      -3.8540      2.00000
     88      -3.8538      2.00000
     89      -3.7730      2.00000
     90      -3.7723      2.00000
     91      -3.7683      2.00000
     92      -3.7449      2.00000
     93      -3.7431      2.00000
     94      -3.7173      2.00000
     95      -3.7162      2.00000
     96      -3.7115      2.00000
     97      -3.7114      2.00000
     98      -3.6924      2.00000
     99      -3.6823      2.00000
    100      -3.6817      2.00000
    101      -3.6282      2.00000
    102      -3.5999      2.00000
    103      -3.4504      2.00000
[...]
  0.000   0.000   0.000   0.000   0.000   0.000   0.000   0.000   0.000   0.000   1.000   0.000   0.000   0.000   0.000   0.000
  0.000   0.000   0.000   0.000   0.000   0.000   0.000   0.000   0.000   0.000   0.000   0.000   0.000   0.000   0.000   0.000
  0.000   0.000   0.000   0.000   0.000   0.000   0.000   0.000   0.000   0.000   0.000   0.000   0.000   0.000   0.000   0.000
  0.000   0.000   0.000   0.000   0.000   0.000   0.000   0.000   0.000   0.000   0.000   0.000   0.000   0.000   0.000   0.000
  0.000   0.000   0.000   0.000   0.000   0.000   0.000   0.000   0.000   0.000   0.000   0.000   0.000   0.000   0.000   0.000
  0.000   0.000   0.000   0.000   0.000   0.000   0.000   0.000   0.000   0.000   0.000   0.000   0.000   0.000   0.000   0.000
  0.000   0.000   0.000   0.000   0.000   0.000   0.000   0.000   0.000   0.000   0.000   0.000   0.000   0.000   0.000   0.000
  0.000   0.000   0.000   0.000   0.000   0.000   0.000   0.000   0.000   0.000   0.000   0.000   0.000   0.000   0.000   0.000


------------------------ aborting loop because EDIFF is reached ----------------------------------------





 total charge

# of ion       s       p       d       tot
------------------------------------------
    1        0.417   0.202   9.177   9.796
    2        0.419   0.203   9.177   9.799
    3        0.419   0.203   9.177   9.799
    4        0.419   0.203   9.177   9.799
    5        0.417   0.204   9.177   9.798
    6        0.419   0.203   9.177   9.799
    7        0.419   0.202   9.178   9.799
    8        0.419   0.202   9.178   9.799
    9        0.414   0.202   9.180   9.796
   10        0.409   0.268   9.163   9.840
   11        0.411   0.267   9.169   9.847
   12        0.409   0.268   9.163   9.840
   13        0.410   0.268   9.169   9.846
   14        0.410   0.268   9.169   9.846
   15        0.402   0.268   9.166   9.837
   16        0.409   0.268   9.162   9.839
   17        0.402   0.269   9.166   9.837
   18        0.402   0.269   9.166   9.837
   19        0.404   0.265   9.165   9.834
   20        0.428   0.305   9.141   9.873
   21        0.428   0.305   9.141   9.873
   22        0.395   0.271   9.169   9.836
   23        0.427   0.305   9.141   9.873
   24        0.395   0.271   9.169   9.836
   25        0.403   0.265   9.165   9.833
   26        0.403   0.265   9.165   9.833
   27        0.396   0.271   9.169   9.836
   28        0.410   0.199   9.180   9.788
   29        0.425   0.225   9.162   9.812
   30        0.425   0.225   9.162   9.812
   31        0.425   0.223   9.162   9.811
   32        0.425   0.223   9.162   9.811
   33        0.421   0.218   9.167   9.805
   34        0.420   0.217   9.167   9.805
   35        0.401   0.201   9.181   9.783
   36        0.524   0.329   5.959   6.813
   37        0.606   0.119   0.000   0.724
   38        0.605   0.119   0.000   0.724
   39        1.568   3.595   0.000   5.164
--------------------------------------------------
tot         17.762  12.651 326.819 357.232
 
    CHARGE:  cpu time    1.2232: real time    1.2233
    FORLOC:  cpu time    0.0124: real time    0.0124
    FORNL :  cpu time    5.4574: real time    5.4576
    STRESS:  cpu time   16.3771: real time   16.3773
    FORCOR:  cpu time    0.0499: real time    0.0500
    FORHAR:  cpu time    0.0198: real time    0.0198
    OFIELD:  cpu time    0.0002: real time    0.0002

  FORCE on cell =-STRESS in cart. coord.  units (eV):
  Direction    XX          YY          ZZ          XY          YZ          ZX
  --------------------------------------------------------------------------------------
  Alpha Z   689.02625   689.02625   689.02625
  Ewald  161862.83828161801.91725************    -1.29071   -13.67556    -1.39837
  Hartree171866.53806171855.31311************    -0.24366     0.54024    -0.62683
  E(xc)   -2101.38695 -2101.64238 -2106.71463    -0.00483    -0.01620    -0.00030
  Local  ************************344977.55338     1.17083     7.51452     1.73878
  n-local  -376.46782  -377.49838  -379.72045    -0.01486     0.02118    -0.00771
  augment  3242.60868  3243.85029  3253.77472     0.02257     0.26023     0.01457
  Kinetic  5020.25308  5037.74803  5069.24231     0.36354     5.35764     0.25583
  Fock        0.00000     0.00000     0.00000     0.00000     0.00000     0.00000
  -------------------------------------------------------------------------------------
  Total      -9.03056    -9.18730     0.27137     0.00288     0.00205    -0.02404
  in kB      -8.66318    -8.81354     0.26033     0.00276     0.00197    -0.02306
  external pressure =       -5.74 kB  Pullay stress =        0.00 kB


 VOLUME and BASIS-vectors are now :
 -----------------------------------------------------------------------------
  energy-cutoff  :      500.00
  volume of cell :     1670.12
      direct lattice vectors                 reciprocal lattice vectors
     8.791366577  0.000000000  0.000000000     0.113747958 -0.065672414  0.000000000
     4.395683289  7.613546790  0.000000000     0.000000000  0.131344829  0.000000000
     0.000000000  0.000000000 24.951963562     0.000000000  0.000000000  0.040077006

  length of vectors
     8.791366577  8.791366577 24.951963562     0.131344829  0.131344829  0.040077006


 FORCES acting on ions
    electron-ion (+dipol)            ewald-force                    non-local-force                 convergence-correction
 -----------------------------------------------------------------------------------------------
   -.362E-03 0.182E-01 0.273E+04   0.932E-03 -.692E-02 -.273E+04   -.692E-03 0.124E-01 -.233E+01   0.153E-03 -.203E-01 0.965E-01
   0.538E+00 0.576E+00 0.273E+04   -.560E+00 -.549E+00 -.273E+04   0.638E-01 0.508E-01 -.148E+01   -.367E-01 -.576E-01 0.731E-01
   -.538E+00 0.570E+00 0.273E+04   0.559E+00 -.550E+00 -.273E+04   -.623E-01 0.503E-01 -.148E+01   0.356E-01 -.494E-01 0.775E-01
   0.762E+00 0.197E+00 0.273E+04   -.749E+00 -.203E+00 -.273E+04   0.717E-01 0.211E-01 -.149E+01   -.646E-01 -.211E-01 0.662E-01
   -.112E-01 -.961E-02 0.273E+04   -.170E-02 0.106E-01 -.273E+04   -.273E-02 -.439E-02 -.141E+01   0.157E-01 -.134E-03 0.518E-01
   -.754E+00 0.188E+00 0.273E+04   0.750E+00 -.203E+00 -.273E+04   -.723E-01 0.213E-01 -.150E+01   0.560E-01 -.136E-01 0.728E-01
   0.163E+00 -.768E+00 0.273E+04   -.191E+00 0.751E+00 -.273E+04   0.313E-01 -.770E-01 -.152E+01   0.784E-02 0.795E-01 0.728E-01
   -.171E+00 -.761E+00 0.273E+04   0.190E+00 0.753E+00 -.273E+04   -.312E-01 -.786E-01 -.153E+01   0.106E-02 0.723E-01 0.750E-01
   0.131E-01 -.181E-02 0.273E+04   0.818E-03 -.357E-02 -.273E+04   0.253E-02 -.444E-02 -.198E+01   -.165E-01 0.101E-01 0.737E-01
   0.679E+01 0.394E+01 0.937E+03   -.617E+01 -.356E+01 -.936E+03   -.525E+00 -.298E+00 -.930E+00   -.668E-01 -.632E-01 0.254E+00
   -.757E-03 0.559E+01 0.944E+03   -.108E-01 -.569E+01 -.944E+03   -.245E-02 0.130E+00 -.333E+00   0.142E-01 -.908E-01 0.266E+00
   -.679E+01 0.394E+01 0.937E+03   0.618E+01 -.357E+01 -.936E+03   0.524E+00 -.298E+00 -.929E+00   0.594E-01 -.551E-01 0.255E+00
   0.481E+01 -.286E+01 0.944E+03   -.493E+01 0.291E+01 -.944E+03   0.123E+00 -.864E-01 -.367E+00   -.487E-01 0.647E-01 0.270E+00
   -.482E+01 -.286E+01 0.944E+03   0.492E+01 0.291E+01 -.944E+03   -.126E+00 -.852E-01 -.368E+00   0.744E-01 0.638E-01 0.272E+00
   0.200E-02 0.164E+01 0.938E+03   0.113E-01 -.175E+01 -.937E+03   -.104E-02 0.733E-01 -.742E+00   -.121E-01 0.107E-01 0.220E+00
   -.263E-02 -.775E+01 0.937E+03   -.115E-02 0.706E+01 -.936E+03   0.349E-03 0.597E+00 -.960E+00   0.358E-02 0.610E-01 0.271E+00
   0.152E+01 -.816E+00 0.938E+03   -.158E+01 0.851E+00 -.937E+03   0.431E-01 -.240E-01 -.755E+00   -.180E-01 0.465E-02 0.225E+00
   -.152E+01 -.818E+00 0.938E+03   0.158E+01 0.839E+00 -.937E+03   -.434E-01 -.225E-01 -.754E+00   0.150E-01 0.169E-01 0.226E+00
   -.671E-01 0.194E+01 -.888E+03   0.816E-01 -.199E+01 0.887E+03   0.737E-03 0.741E-01 0.518E+00   -.159E-01 -.281E-01 0.260E+00
   0.112E+02 0.609E+01 -.846E+03   -.967E+01 -.520E+01 0.847E+03   -.153E+01 -.873E+00 -.153E+01   0.524E-01 0.478E-02 0.397E+00
   -.111E+02 0.610E+01 -.845E+03   0.959E+01 -.523E+01 0.846E+03   0.153E+01 -.866E+00 -.152E+01   -.439E-01 0.157E-01 0.399E+00
   0.145E+01 -.107E+01 -.875E+03   -.191E+01 0.128E+01 0.874E+03   0.451E+00 -.230E+00 0.520E+00   0.220E-01 0.719E-02 0.240E+00
   0.503E-01 -.131E+02 -.847E+03   -.677E-01 0.113E+02 0.848E+03   0.207E-02 0.179E+01 -.153E+01   0.143E-01 -.122E-01 0.374E+00
   -.150E+01 -.113E+01 -.875E+03   0.198E+01 0.135E+01 0.874E+03   -.445E+00 -.230E+00 0.522E+00   -.480E-01 0.698E-03 0.239E+00
   -.199E+01 -.514E+00 -.888E+03   0.202E+01 0.598E+00 0.888E+03   -.284E-01 -.726E-01 0.574E+00   0.506E-02 -.949E-02 0.250E+00
   0.197E+01 -.583E+00 -.889E+03   -.200E+01 0.679E+00 0.888E+03   0.335E-01 -.738E-01 0.576E+00   -.180E-01 -.207E-01 0.253E+00
   0.315E-01 0.223E+01 -.874E+03   -.252E-01 -.279E+01 0.874E+03   0.170E-02 0.547E+00 0.490E+00   -.828E-02 0.286E-01 0.238E+00
   -.200E+00 0.153E+01 -.266E+04   0.197E+00 -.156E+01 0.266E+04   -.566E-03 0.303E-01 0.188E+01   0.357E-02 0.129E-02 -.372E-01
   0.253E+02 0.453E+02 -.265E+04   -.245E+02 -.442E+02 0.264E+04   -.870E+00 -.132E+01 0.106E+01   0.892E-04 0.401E-01 -.800E-01
   -.251E+02 0.460E+02 -.264E+04   0.243E+02 -.449E+02 0.264E+04   0.876E+00 -.132E+01 0.105E+01   -.169E-01 0.503E-01 -.814E-01
   0.497E+02 -.285E+01 -.265E+04   -.483E+02 0.298E+01 0.265E+04   -.163E+01 -.104E+00 0.115E+01   0.421E-01 -.242E-01 -.544E-01
   -.506E+02 -.297E+01 -.265E+04   0.492E+02 0.308E+01 0.264E+04   0.163E+01 -.101E+00 0.117E+01   -.703E-01 -.173E-01 -.605E-01
   0.235E+02 -.408E+02 -.265E+04   -.230E+02 0.396E+02 0.265E+04   -.604E+00 0.133E+01 0.155E+01   0.455E-01 -.425E-01 -.674E-01
   -.234E+02 -.413E+02 -.265E+04   0.229E+02 0.402E+02 0.265E+04   0.604E+00 0.132E+01 0.157E+01   -.531E-01 -.518E-01 -.724E-01
   -.117E+00 0.680E+00 -.266E+04   0.126E+00 -.691E+00 0.266E+04   0.344E-02 0.112E-01 0.211E+01   -.131E-01 0.180E-02 0.268E-01
   0.788E+00 -.348E+01 -.173E+04   -.812E+00 0.342E+01 0.173E+04   0.191E-01 0.647E-01 0.225E+01   0.115E-01 0.925E-02 -.961E-01
   0.692E+02 0.446E+02 -.292E+03   -.761E+02 -.491E+02 0.294E+03   0.684E+01 0.446E+01 -.142E+01   0.133E-02 0.211E-02 -.106E-01
   -.675E+02 0.472E+02 -.292E+03   0.742E+02 -.519E+02 0.293E+03   -.668E+01 0.472E+01 -.132E+01   -.784E-03 0.267E-02 -.109E-01
   -.784E+00 -.580E+02 -.167E+04   0.165E+01 0.103E+03 0.167E+04   -.877E+00 -.450E+02 0.372E+01   0.818E-02 0.197E-01 -.942E-01
 -----------------------------------------------------------------------------------------------
   0.751E+00 0.359E+02 0.247E+01   -.855E-13 0.313E-12 -.136E-11   -.688E+00 -.359E+02 -.748E+01   -.624E-01 -.983E-02 0.493E+01
 
 
 POSITION                                       TOTAL-FORCE (eV/Angst)
 -----------------------------------------------------------------------------------
      0.00000      0.00000      5.28219         0.000021      0.003263     -0.008809
      2.93046      0.00000      5.28219         0.005781      0.020402      0.021988
      5.86091      0.00000      5.28219        -0.005839      0.020442      0.021965
      1.46523      2.53785      5.28219         0.020574     -0.006200      0.023364
      4.39568      2.53785      5.28219         0.000039     -0.003561     -0.004787
      7.32614      2.53785      5.28219        -0.020496     -0.006432      0.023358
      2.93046      5.07570      5.28219         0.011444     -0.014717      0.023160
      5.86091      5.07570      5.28219        -0.011600     -0.014480      0.023022
      8.79137      5.07570      5.28219        -0.000072      0.000218      0.007484
      1.46523      0.84595      7.67490         0.023961      0.012991      0.009878
      4.39568      0.84595      7.67490         0.000200     -0.052369     -0.091028
      7.32614      0.84595      7.67490        -0.024219      0.013240      0.010226
      2.93046      3.38380      7.67490        -0.043706      0.026459     -0.089677
      5.86091      3.38380      7.67490         0.044185      0.026552     -0.089757
      8.79137      3.38380      7.67490         0.000146     -0.028319      0.012256
      4.39568      5.92165      7.67490         0.000141     -0.030488      0.002999
      7.32614      5.92165      7.67490        -0.028033      0.015364      0.013824
     10.25659      5.92165      7.67490         0.027953      0.015195      0.013810
      8.79137      1.69824     10.07044        -0.000664     -0.006508     -0.022437
      2.93075      1.69207     10.02201         0.044592      0.024502     -0.074510
      5.86061      1.69207     10.02201        -0.044964      0.023844     -0.077853
     10.25044      4.23330     10.05478         0.012502     -0.007314     -0.012351
      4.39568      4.22940     10.02201        -0.001003     -0.046007     -0.063738
      7.33230      4.23330     10.05478        -0.012386     -0.007163     -0.011729
     11.71633      6.76443     10.07044         0.008459      0.001481     -0.013608
      5.86640      6.76443     10.07044        -0.009064      0.001225     -0.013304
      8.79137      6.76048     10.05478        -0.000289      0.014692     -0.024520
      0.00000      0.00000     12.42728         0.000097     -0.000605      0.042042
      2.96092      0.05748     12.44843        -0.059073     -0.100203     -0.033641
      5.83045      0.05748     12.44843         0.059677     -0.103484     -0.036288
      1.53024      2.53549     12.44843        -0.114633     -0.000777     -0.039789
      7.26113      2.53549     12.44843         0.120037     -0.001413     -0.045385
      2.96500      5.02058     12.44843        -0.076702      0.099214     -0.043194
      5.82636      5.02058     12.44843         0.076338      0.102154     -0.045029
      8.79137      5.07570     12.42122        -0.000053      0.001568      0.019923
      4.39568      2.53785     12.20312         0.006612      0.010098      0.618525
      3.62045      2.03078     14.68007        -0.012971     -0.006804      0.002116
      5.18061      2.00060     14.66835         0.007341     -0.003718      0.000012
      4.41006      2.58202     14.50385        -0.004333      0.007659     -0.048517
 -----------------------------------------------------------------------------------
    total drift:                                0.000360      0.002017     -0.078178


--------------------------------------------------------------------------------------------------------



  FREE ENERGIE OF THE ION-ELECTRON SYSTEM (eV)
  ---------------------------------------------------
  free  energy   TOTEN  =      -111.37320088 eV

  energy  without entropy=     -111.37320088  energy(sigma->0) =     -111.37320088
 


--------------------------------------------------------------------------------------------------------


    POTLOK:  cpu time    0.0472: real time    0.0472


--------------------------------------------------------------------------------------------------------


 stress matrix after NEB project (eV)
     -9.03056      0.00288     -0.02404
      0.00288     -9.18730      0.00205
     -0.02404      0.00205      0.27137
  FORCES: max atom, RMS     0.049308    0.008348
  FORCE total and by dimension    0.052135    0.048517
  Stress total and by dimension   12.885354    9.187300
     LOOP+:  cpu time  258.3174: real time  258.3305
 -----------------------------------------------------------------------------
|                                                                             |
|           W    W    AA    RRRRR   N    N  II  N    N   GGGG   !!!           |
|           W    W   A  A   R    R  NN   N  II  NN   N  G    G  !!!           |
|           W    W  A    A  R    R  N N  N  II  N N  N  G       !!!           |
|           W WW W  AAAAAA  RRRRR   N  N N  II  N  N N  G  GGG   !            |
|           WW  WW  A    A  R   R   N   NN  II  N   NN  G    G                |
|           W    W  A    A  R    R  N    N  II  N    N   GGGG   !!!           |
|                                                                             |
|     Tetrahedron method does not include variations of the Fermi             |
|     occupations, so forces and stress will be inaccurate. We suggest        |
|     using a different smearing scheme ISMEAR = 1 or 2 for metals in         |
|     relaxations.                                                            |
|                                                                             |
 -----------------------------------------------------------------------------

    4ORBIT:  cpu time    0.0000: real time    0.0000



 total charge

# of ion       s       p       d       tot
------------------------------------------
    1        0.417   0.202   9.177   9.796
    2        0.419   0.203   9.177   9.799
    3        0.419   0.203   9.177   9.799
    4        0.419   0.203   9.177   9.799
    5        0.417   0.204   9.177   9.798
    6        0.419   0.203   9.177   9.799
    7        0.419   0.202   9.178   9.799
    8        0.419   0.202   9.178   9.799
    9        0.414   0.202   9.180   9.796
   10        0.409   0.268   9.163   9.840
   11        0.411   0.267   9.169   9.847
   12        0.409   0.268   9.163   9.840
   13        0.410   0.268   9.169   9.846
   14        0.410   0.268   9.169   9.846
   15        0.402   0.268   9.166   9.837
   16        0.409   0.268   9.162   9.839
   17        0.402   0.269   9.166   9.837
   18        0.402   0.269   9.166   9.837
   19        0.404   0.265   9.165   9.834
   20        0.428   0.305   9.141   9.873
   21        0.428   0.305   9.141   9.873
   22        0.395   0.271   9.169   9.836
   23        0.427   0.305   9.141   9.873
   24        0.395   0.271   9.169   9.836
   25        0.403   0.265   9.165   9.833
   26        0.403   0.265   9.165   9.833
   27        0.396   0.271   9.169   9.836
   28        0.410   0.199   9.180   9.788
   29        0.425   0.225   9.162   9.812
   30        0.425   0.225   9.162   9.812
   31        0.425   0.223   9.162   9.811
   32        0.425   0.223   9.162   9.811
   33        0.421   0.218   9.167   9.805
   34        0.420   0.217   9.167   9.805
   35        0.401   0.201   9.181   9.783
   36        0.524   0.329   5.959   6.813
   37        0.606   0.119   0.000   0.724
   38        0.605   0.119   0.000   0.724
   39        1.568   3.595   0.000   5.164
--------------------------------------------------
tot         17.762  12.651 326.819 357.232
 
 BZINTS: Fermi energy:    0.473944;  401.000000 electrons
         Band energy:-0.148060E+04;  BLOECHL correction:   -0.043335

 total amount of memory used by VASP MPI-rank0   282761. kBytes
=======================================================================

   base      :      30000. kBytes
   nonlr-proj:      15509. kBytes
   fftplans  :       4808. kBytes
   grid      :      20723. kBytes
   one-center:        606. kBytes
   wavefun   :     211115. kBytes
 
  
  
 General timing and accounting informations for this job:
 ========================================================
  
                  Total CPU time used (sec):      281.773
                            User time (sec):      271.684
                          System time (sec):       10.089
                         Elapsed time (sec):      282.142
  
                   Maximum memory used (kb):      584040.
                   Average memory used (kb):          N/A
  
                          Minor page faults:       119022
                          Major page faults:            0
                 Voluntary context switches:         6925
