PROCAR new format
# of k-points:   10         # of bands:  252         # of ions:   38

 k-point     1 :    0.00000000 0.00000000 0.00000000     weight = 0.01562500

band     1 # energy  -18.84784535 # occ.  2.00000000
 
ion      s      p      d    tot
    1  0.000  0.000  0.000  0.000
    2  0.000  0.000  0.000  0.000
    3  0.000  0.000  0.000  0.000
    4  0.000  0.000  0.000  0.000
    5  0.000  0.000  0.000  0.000
    6  0.000  0.000  0.000  0.000
    7  0.000  0.000  0.000  0.000
    8  0.000  0.000  0.000  0.000
    9  0.000  0.000  0.000  0.000
   10  0.000  0.000  0.000  0.000
   11  0.000  0.000  0.000  0.000
   12  0.000  0.000  0.000  0.000
   13  0.000  0.000  0.000  0.000
   14  0.000  0.000  0.000  0.000
   15  0.000  0.000  0.000  0.000
   16  0.000  0.000  0.000  0.000
   17  0.000  0.000  0.000  0.000
   18  0.000  0.000  0.000  0.000
   19  0.000  0.000  0.000  0.000
   20  0.000  0.000  0.000  0.000
   21  0.000  0.000  0.000  0.000
   22  0.000  0.000  0.000  0.000
   23  0.000  0.000  0.000  0.000
   24  0.000  0.000  0.000  0.000
   25  0.000  0.000  0.000  0.000
   26  0.000  0.000  0.000  0.000
   27  0.000  0.000  0.000  0.000
   28  0.000  0.000  0.000  0.000
   29  0.000  0.000  0.000  0.000
   30  0.000  0.000  0.000  0.000
   31  0.000  0.000  0.000  0.000
   32  0.000  0.000  0.000  0.000
   33  0.000  0.000  0.000  0.000
   34  0.000  0.000  0.000  0.000
   35  0.000  0.000  0.000  0.000
   36  0.011  0.015  0.014  0.040
   37  0.742  0.016  0.000  0.757
   38  0.117  0.024  0.000  0.141
tot    0.869  0.055  0.015  0.939
 
band     2 # energy   -7.99433767 # occ.  2.00000000
 
ion      s      p      d    tot
    1  0.006  0.001  0.000  0.007
    2  0.006  0.000  0.000  0.007
    3  0.006  0.000  0.000  0.007
    4  0.006  0.000  0.000  0.007
    5  0.006  0.000  0.000  0.007
    6  0.006  0.000  0.000  0.007
    7  0.006  0.000  0.000  0.007
    8  0.006  0.000  0.000  0.007
    9  0.006  0.000  0.000  0.007
   10  0.025  0.000  0.000  0.025
   11  0.026  0.000  0.000  0.026
   12  0.025  0.000  0.000  0.025
   13  0.026  0.000  0.000  0.026
   14  0.026  0.000  0.000  0.026
   15  0.025  0.000  0.000  0.025
   16  0.025  0.000  0.000  0.025
   17  0.025  0.000  0.000  0.025
   18  0.025  0.000  0.000  0.025
   19  0.022  0.000  0.000  0.023
   20  0.026  0.000  0.000  0.027
   21  0.026  0.000  0.000  0.027
   22  0.024  0.000  0.000  0.024
   23  0.026  0.000  0.000  0.027
   24  0.024  0.000  0.000  0.024
   25  0.022  0.000  0.000  0.023
   26  0.022  0.000  0.000  0.023
   27  0.024  0.000  0.000  0.024
   28  0.005  0.000  0.000  0.005
   29  0.005  0.000  0.000  0.006
   30  0.005  0.000  0.000  0.006
   31  0.005  0.000  0.000  0.006
   32  0.005  0.000  0.000  0.006
   33  0.005  0.000  0.000  0.006
   34  0.005  0.000  0.000  0.006
   35  0.005  0.000  0.000  0.005
   36  0.011  0.000  0.003  0.015
   37  0.000  0.020  0.000  0.020
   38  0.007  0.001  0.000  0.008
tot    0.557  0.031  0.006  0.595
 
band     3 # energy   -7.44227639 # occ.  2.00000000
 
ion      s      p      d    tot
    1  0.002  0.000  0.000  0.002
    2  0.002  0.000  0.000  0.002
    3  0.002  0.000  0.000  0.002
    4  0.002  0.000  0.000  0.002
    5  0.002  0.000  0.000  0.002
    6  0.002  0.000  0.000  0.002
    7  0.002  0.000  0.000  0.002
    8  0.002  0.000  0.000  0.002
    9  0.002  0.000  0.000  0.002
   10  0.003  0.000  0.000  0.003
   11  0.003  0.000  0.000  0.003
   12  0.003  0.000  0.000  0.003
   13  0.003  0.000  0.000  0.003
   14  0.003  0.000  0.000  0.003
   15  0.004  0.000  0.000  0.004
   16  0.003  0.000  0.000  0.003
   17  0.004  0.000  0.000  0.004
   18  0.004  0.000  0.000  0.004
   19  0.000  0.000  0.000  0.001
   20  0.000  0.001  0.001  0.002
   21  0.000  0.001  0.001  0.002
   22  0.000  0.000  0.000  0.001
   23  0.000  0.001  0.001  0.002
   24  0.000  0.000  0.000  0.001
   25  0.000  0.000  0.000  0.001
   26  0.000  0.000  0.000  0.001
   27  0.000  0.000  0.000  0.001
   28  0.000  0.000  0.000  0.000
   29  0.001  0.000  0.001  0.002
   30  0.001  0.000  0.001  0.002
   31  0.001  0.000  0.001  0.002
   32  0.001  0.000  0.001  0.002
   33  0.001  0.000  0.001  0.002
   34  0.001  0.000  0.001  0.002
   35  0.000  0.000  0.000  0.000
   36  0.063  0.037  0.088  0.189
   37  0.021  0.468  0.000  0.489
   38  0.157  0.017  0.000  0.174
tot    0.297  0.527  0.101  0.925
 
band     4 # energy   -6.73921477 # occ.  2.00000000
 
ion      s      p      d    tot
    1  0.017  0.000  0.001  0.019
    2  0.016  0.000  0.001  0.018
    3  0.016  0.000  0.001  0.018
    4  0.016  0.000  0.001  0.018
    5  0.016  0.000  0.001  0.018
    6  0.016  0.000  0.001  0.018
    7  0.016  0.000  0.001  0.018
    8  0.016  0.000  0.001  0.018
    9  0.016  0.000  0.001  0.018
   10  0.009  0.002  0.002  0.013
   11  0.008  0.002  0.002  0.012
   12  0.009  0.002  0.002  0.013
   13  0.008  0.002  0.002  0.012
   14  0.008  0.002  0.002  0.012
   15  0.008  0.002  0.003  0.012
   16  0.009  0.002  0.002  0.013
   17  0.008  0.002  0.003  0.012
   18  0.008  0.002  0.003  0.012
   19  0.016  0.001  0.004  0.021
   20  0.014  0.001  0.005  0.020
   21  0.014  0.001  0.005  0.020
   22  0.018  0.001  0.004  0.023
   23  0.014  0.001  0.005  0.020
   24  0.018  0.001  0.004  0.023
   25  0.016  0.001  0.004  0.021
   26  0.016  0.001  0.004  0.021
   27  0.018  0.001  0.004  0.023
   28  0.013  0.001  0.000  0.014
   29  0.011  0.001  0.001  0.012
   30  0.011  0.001  0.001  0.012
   31  0.011  0.001  0.001  0.012
   32  0.011  0.001  0.001  0.012
   33  0.011  0.001  0.001  0.012
   34  0.011  0.001  0.001  0.012
   35  0.013  0.001  0.000  0.014
   36  0.000  0.006  0.008  0.015
   37  0.003  0.028  0.000  0.030
   38  0.009  0.001  0.000  0.010
tot    0.470  0.065  0.085  0.620
 
band     5 # energy   -5.85221174 # occ.  2.00000000
 
ion      s      p      d    tot
    1  0.012  0.000  0.022  0.034
    2  0.017  0.000  0.018  0.035
    3  0.017  0.000  0.018  0.035
    4  0.017  0.000  0.018  0.035
    5  0.011  0.000  0.017  0.028
    6  0.017  0.000  0.018  0.035
    7  0.017  0.000  0.018  0.035
    8  0.017  0.000  0.018  0.035
    9  0.034  0.000  0.013  0.047
   10  0.011  0.001  0.022  0.034
   11  0.017  0.001  0.018  0.037
   12  0.011  0.001  0.022  0.034
   13  0.017  0.001  0.018  0.037
   14  0.017  0.001  0.018  0.037
   15  0.000  0.001  0.027  0.028
   16  0.011  0.001  0.022  0.034
   17  0.000  0.001  0.027  0.028
   18  0.000  0.001  0.027  0.028
   19  0.001  0.000  0.005  0.007
   20  0.004  0.001  0.006  0.011
   21  0.004  0.001  0.006  0.011
   22  0.004  0.001  0.002  0.007
   23  0.004  0.001  0.006  0.011
   24  0.004  0.001  0.002  0.007
   25  0.001  0.000  0.005  0.007
   26  0.001  0.000  0.005  0.007
   27  0.004  0.001  0.002  0.007
   28  0.003  0.000  0.000  0.004
   29  0.001  0.000  0.001  0.003
   30  0.001  0.000  0.001  0.003
   31  0.001  0.000  0.001  0.003
   32  0.001  0.000  0.001  0.003
   33  0.001  0.000  0.001  0.003
   34  0.001  0.000  0.001  0.003
   35  0.004  0.000  0.000  0.004
   36  0.000  0.000  0.000  0.001
   37  0.000  0.000  0.000  0.000
   38  0.000  0.000  0.000  0.000
tot    0.288  0.017  0.410  0.715
 
band     6 # energy   -5.82379597 # occ.  2.00000000
 
ion      s      p      d    tot
    1  0.016  0.000  0.000  0.017
    2  0.003  0.001  0.008  0.011
    3  0.003  0.001  0.008  0.011
    4  0.003  0.001  0.008  0.011
    5  0.008  0.000  0.004  0.013
    6  0.003  0.001  0.008  0.011
    7  0.003  0.001  0.008  0.011
    8  0.003  0.001  0.008  0.011
    9  0.003  0.002  0.008  0.013
   10  0.002  0.000  0.033  0.035
   11  0.001  0.002  0.017  0.020
   12  0.002  0.000  0.033  0.035
   13  0.001  0.002  0.017  0.020
   14  0.001  0.002  0.017  0.020
   15  0.039  0.002  0.006  0.048
   16  0.002  0.000  0.033  0.035
   17  0.039  0.002  0.006  0.048
   18  0.039  0.002  0.006  0.048
   19  0.000  0.001  0.021  0.022
   20  0.024  0.001  0.014  0.039
   21  0.024  0.001  0.014  0.038
   22  0.011  0.003  0.009  0.022
   23  0.024  0.001  0.014  0.038
   24  0.011  0.003  0.009  0.023
   25  0.000  0.001  0.020  0.022
   26  0.000  0.001  0.021  0.022
   27  0.011  0.003  0.009  0.022
   28  0.001  0.000  0.000  0.001
   29  0.000  0.000  0.004  0.004
   30  0.000  0.000  0.004  0.004
   31  0.000  0.000  0.004  0.004
   32  0.000  0.000  0.004  0.004
   33  0.000  0.000  0.004  0.004
   34  0.000  0.000  0.004  0.004
   35  0.006  0.001  0.000  0.006
   36  0.002  0.004  0.000  0.006
   37  0.000  0.003  0.000  0.003
   38  0.001  0.000  0.000  0.001
tot    0.287  0.040  0.382  0.710
 
band     7 # energy   -5.81987347 # occ.  2.00000000
 
ion      s      p      d    tot
    1  0.000  0.000  0.005  0.005
    2  0.007  0.001  0.004  0.012
    3  0.004  0.001  0.003  0.008
    4  0.007  0.001  0.004  0.012
    5  0.000  0.001  0.010  0.011
    6  0.000  0.000  0.003  0.004
    7  0.004  0.001  0.003  0.008
    8  0.000  0.000  0.003  0.004
    9  0.000  0.001  0.002  0.003
   10  0.000  0.001  0.027  0.027
   11  0.045  0.002  0.015  0.062
   12  0.010  0.001  0.012  0.023
   13  0.046  0.002  0.014  0.062
   14  0.000  0.002  0.039  0.041
   15  0.013  0.001  0.013  0.027
   16  0.010  0.001  0.012  0.023
   17  0.013  0.001  0.013  0.027
   18  0.000  0.005  0.003  0.008
   19  0.000  0.001  0.010  0.011
   20  0.000  0.004  0.020  0.024
   21  0.035  0.001  0.014  0.050
   22  0.029  0.002  0.012  0.042
   23  0.034  0.001  0.014  0.050
   24  0.000  0.000  0.038  0.038
   25  0.000  0.003  0.006  0.009
   26  0.000  0.001  0.010  0.011
   27  0.028  0.002  0.012  0.042
   28  0.000  0.000  0.001  0.001
   29  0.001  0.000  0.002  0.003
   30  0.007  0.001  0.003  0.010
   31  0.001  0.000  0.002  0.003
   32  0.003  0.001  0.003  0.007
   33  0.007  0.001  0.003  0.010
   34  0.003  0.001  0.003  0.007
   35  0.000  0.000  0.006  0.007
   36  0.000  0.002  0.001  0.003
   37  0.000  0.000  0.000  0.000
   38  0.000  0.000  0.000  0.000
tot    0.307  0.043  0.344  0.694
 
band     8 # energy   -5.81985098 # occ.  2.00000000
 
ion      s      p      d    tot
    1  0.000  0.000  0.005  0.005
    2  0.001  0.000  0.003  0.004
    3  0.003  0.001  0.004  0.008
    4  0.001  0.000  0.003  0.004
    5  0.000  0.001  0.010  0.011
    6  0.007  0.001  0.003  0.012
    7  0.003  0.001  0.004  0.008
    8  0.007  0.001  0.003  0.012
    9  0.000  0.001  0.002  0.003
   10  0.013  0.002  0.007  0.021
   11  0.016  0.002  0.031  0.048
   12  0.003  0.001  0.022  0.026
   13  0.015  0.002  0.031  0.048
   14  0.061  0.002  0.006  0.069
   15  0.004  0.003  0.006  0.014
   16  0.003  0.001  0.022  0.026
   17  0.004  0.003  0.006  0.014
   18  0.018  0.000  0.016  0.034
   19  0.000  0.002  0.007  0.009
   20  0.046  0.001  0.012  0.059
   21  0.011  0.003  0.018  0.032
   22  0.009  0.001  0.029  0.039
   23  0.012  0.003  0.018  0.033
   24  0.038  0.002  0.003  0.043
   25  0.000  0.000  0.012  0.012
   26  0.000  0.002  0.007  0.009
   27  0.010  0.001  0.029  0.039
   28  0.000  0.000  0.001  0.001
   29  0.006  0.001  0.003  0.011
   30  0.000  0.000  0.003  0.003
   31  0.006  0.001  0.003  0.011
   32  0.004  0.001  0.002  0.007
   33  0.000  0.000  0.003  0.003
   34  0.004  0.001  0.002  0.007
   35  0.000  0.000  0.006  0.007
   36  0.000  0.002  0.001  0.003
   37  0.000  0.000  0.000  0.000
   38  0.000  0.000  0.000  0.000
tot    0.307  0.043  0.344  0.694
 
band     9 # energy   -5.80565982 # occ.  2.00000000
 
ion      s      p      d    tot
    1  0.008  0.001  0.001  0.010
    2  0.000  0.001  0.006  0.007
    3  0.000  0.001  0.006  0.007
    4  0.000  0.001  0.006  0.007
    5  0.017  0.002  0.001  0.020
    6  0.000  0.001  0.006  0.007
    7  0.000  0.001  0.006  0.007
    8  0.000  0.001  0.006  0.007
    9  0.000  0.000  0.002  0.002
   10  0.026  0.003  0.002  0.031
   11  0.021  0.001  0.023  0.044
   12  0.026  0.003  0.002  0.030
   13  0.021  0.001  0.023  0.044
   14  0.021  0.001  0.023  0.045
   15  0.000  0.001  0.024  0.026
   16  0.026  0.003  0.002  0.030
   17  0.000  0.001  0.024  0.026
   18  0.000  0.001  0.024  0.025
   19  0.026  0.002  0.005  0.033
   20  0.005  0.002  0.016  0.023
   21  0.005  0.002  0.016  0.023
   22  0.009  0.000  0.026  0.035
   23  0.005  0.002  0.016  0.023
   24  0.009  0.000  0.026  0.035
   25  0.026  0.002  0.005  0.033
   26  0.026  0.002  0.005  0.033
   27  0.009  0.000  0.026  0.035
   28  0.010  0.001  0.001  0.013
   29  0.000  0.000  0.004  0.004
   30  0.000  0.000  0.004  0.004
   31  0.000  0.000  0.004  0.004
   32  0.000  0.000  0.004  0.004
   33  0.000  0.000  0.004  0.004
   34  0.000  0.000  0.004  0.004
   35  0.004  0.001  0.002  0.007
   36  0.000  0.000  0.000  0.000
   37  0.000  0.000  0.000  0.000
   38  0.000  0.000  0.000  0.000
tot    0.300  0.041  0.354  0.695
 
band    10 # energy   -5.78462253 # occ.  2.00000000
 
ion      s      p      d    tot
    1  0.000  0.001  0.007  0.009
    2  0.008  0.001  0.004  0.013
    3  0.005  0.001  0.003  0.010
    4  0.008  0.001  0.004  0.013
    5  0.000  0.000  0.002  0.002
    6  0.000  0.000  0.004  0.004
    7  0.005  0.001  0.003  0.010
    8  0.000  0.000  0.004  0.004
    9  0.000  0.001  0.011  0.011
   10  0.051  0.001  0.013  0.065
   11  0.000  0.003  0.010  0.013
   12  0.012  0.003  0.017  0.032
   13  0.000  0.003  0.010  0.013
   14  0.000  0.001  0.014  0.015
   15  0.012  0.001  0.036  0.049
   16  0.013  0.003  0.016  0.033
   17  0.012  0.000  0.037  0.049
   18  0.047  0.002  0.003  0.052
   19  0.013  0.002  0.025  0.040
   20  0.012  0.001  0.007  0.020
   21  0.003  0.001  0.019  0.023
   22  0.004  0.003  0.008  0.015
   23  0.003  0.001  0.019  0.023
   24  0.015  0.000  0.014  0.030
   25  0.049  0.002  0.005  0.056
   26  0.012  0.002  0.026  0.039
   27  0.004  0.003  0.008  0.015
   28  0.000  0.001  0.006  0.007
   29  0.000  0.000  0.002  0.002
   30  0.004  0.001  0.002  0.006
   31  0.000  0.000  0.002  0.002
   32  0.002  0.001  0.003  0.005
   33  0.004  0.001  0.002  0.006
   34  0.002  0.001  0.003  0.005
   35  0.000  0.000  0.001  0.002
   36  0.000  0.000  0.001  0.001
   37  0.000  0.000  0.000  0.000
   38  0.000  0.000  0.000  0.000
tot    0.300  0.042  0.351  0.693
 
band    11 # energy   -5.78458701 # occ.  2.00000000
 
ion      s      p      d    tot
    1  0.000  0.001  0.007  0.009
    2  0.001  0.001  0.003  0.005
    3  0.004  0.001  0.004  0.008
    4  0.001  0.000  0.003  0.005
    5  0.000  0.000  0.002  0.002
    6  0.008  0.001  0.004  0.014
    7  0.003  0.001  0.004  0.008
    8  0.008  0.001  0.004  0.014
    9  0.000  0.001  0.011  0.011
   10  0.000  0.004  0.018  0.021
   11  0.000  0.001  0.013  0.014
   12  0.039  0.001  0.014  0.054
   13  0.000  0.001  0.013  0.014
   14  0.000  0.003  0.008  0.012
   15  0.035  0.001  0.014  0.051
   16  0.038  0.001  0.014  0.054
   17  0.036  0.001  0.014  0.051
   18  0.000  0.000  0.047  0.047
   19  0.037  0.002  0.012  0.050
   20  0.000  0.001  0.024  0.024
   21  0.009  0.001  0.011  0.021
   22  0.012  0.001  0.012  0.025
   23  0.009  0.001  0.011  0.021
   24  0.000  0.004  0.006  0.010
   25  0.000  0.001  0.033  0.034
   26  0.037  0.002  0.012  0.051
   27  0.011  0.001  0.012  0.025
   28  0.000  0.001  0.006  0.007
   29  0.004  0.001  0.002  0.007
   30  0.000  0.000  0.002  0.003
   31  0.004  0.001  0.002  0.007
   32  0.002  0.000  0.002  0.004
   33  0.000  0.000  0.002  0.003
   34  0.002  0.001  0.002  0.004
   35  0.000  0.000  0.001  0.002
   36  0.000  0.000  0.001  0.001
   37  0.000  0.000  0.000  0.000
   38  0.000  0.000  0.000  0.000
tot    0.300  0.042  0.351  0.693
 
band    12 # energy   -5.63541188 # occ.  2.00000000
 
ion      s      p      d    tot
    1  0.001  0.000  0.000  0.001
    2  0.001  0.000  0.001  0.001
    3  0.001  0.000  0.001  0.001
    4  0.001  0.000  0.001  0.001
    5  0.002  0.000  0.000  0.002
    6  0.001  0.000  0.001  0.001
    7  0.001  0.000  0.001  0.001
    8  0.001  0.000  0.001  0.001
    9  0.000  0.000  0.001  0.001
   10  0.000  0.000  0.003  0.004
   11  0.001  0.000  0.002  0.003
   12  0.000  0.000  0.003  0.004
   13  0.001  0.000  0.002  0.003
   14  0.001  0.000  0.002  0.003
   15  0.002  0.000  0.003  0.006
   16  0.000  0.000  0.003  0.004
   17  0.002  0.000  0.003  0.006
   18  0.002  0.000  0.003  0.006
   19  0.003  0.001  0.018  0.022
   20  0.003  0.000  0.026  0.029
   21  0.003  0.000  0.026  0.029
   22  0.008  0.001  0.025  0.035
   23  0.003  0.000  0.026  0.029
   24  0.008  0.001  0.025  0.035
   25  0.003  0.001  0.018  0.022
   26  0.003  0.001  0.018  0.022
   27  0.008  0.001  0.025  0.035
   28  0.031  0.000  0.021  0.053
   29  0.025  0.000  0.022  0.048
   30  0.025  0.000  0.022  0.048
   31  0.025  0.000  0.022  0.048
   32  0.025  0.000  0.022  0.048
   33  0.025  0.000  0.022  0.048
   34  0.025  0.000  0.022  0.048
   35  0.030  0.000  0.023  0.053
   36  0.003  0.000  0.012  0.015
   37  0.001  0.004  0.000  0.005
   38  0.001  0.000  0.000  0.001
tot    0.276  0.017  0.426  0.719
 
band    13 # energy   -5.34829531 # occ.  2.00000000
 
ion      s      p      d    tot
    1  0.016  0.002  0.002  0.020
    2  0.000  0.001  0.009  0.009
    3  0.000  0.001  0.009  0.009
    4  0.000  0.001  0.009  0.009
    5  0.000  0.000  0.002  0.002
    6  0.000  0.001  0.009  0.009
    7  0.000  0.001  0.009  0.009
    8  0.000  0.001  0.009  0.009
    9  0.017  0.001  0.000  0.018
   10  0.010  0.002  0.012  0.023
   11  0.003  0.000  0.041  0.044
   12  0.010  0.002  0.012  0.023
   13  0.003  0.000  0.041  0.044
   14  0.003  0.000  0.041  0.044
   15  0.002  0.001  0.028  0.031
   16  0.010  0.002  0.012  0.023
   17  0.002  0.001  0.028  0.031
   18  0.003  0.001  0.028  0.031
   19  0.006  0.001  0.011  0.018
   20  0.001  0.000  0.047  0.048
   21  0.001  0.000  0.047  0.048
   22  0.011  0.001  0.022  0.034
   23  0.001  0.000  0.047  0.048
   24  0.011  0.001  0.022  0.034
   25  0.006  0.001  0.011  0.018
   26  0.006  0.001  0.011  0.018
   27  0.011  0.001  0.022  0.034
   28  0.010  0.001  0.001  0.012
   29  0.000  0.001  0.005  0.006
   30  0.000  0.001  0.005  0.006
   31  0.000  0.001  0.005  0.006
   32  0.000  0.001  0.005  0.006
   33  0.000  0.001  0.005  0.006
   34  0.000  0.001  0.005  0.006
   35  0.009  0.001  0.002  0.012
   36  0.000  0.000  0.001  0.001
   37  0.000  0.000  0.000  0.000
   38  0.000  0.000  0.000  0.000
tot    0.152  0.028  0.573  0.753
 
band    14 # energy   -5.33075421 # occ.  2.00000000
 
ion      s      p      d    tot
    1  0.000  0.001  0.004  0.005
    2  0.001  0.001  0.005  0.006
    3  0.009  0.001  0.005  0.015
    4  0.001  0.001  0.005  0.006
    5  0.000  0.001  0.011  0.012
    6  0.005  0.001  0.004  0.010
    7  0.009  0.001  0.005  0.015
    8  0.005  0.001  0.004  0.010
    9  0.000  0.000  0.010  0.010
   10  0.000  0.001  0.048  0.049
   11  0.015  0.001  0.021  0.037
   12  0.006  0.002  0.019  0.027
   13  0.015  0.001  0.021  0.037
   14  0.000  0.000  0.053  0.053
   15  0.002  0.000  0.020  0.023
   16  0.006  0.002  0.019  0.026
   17  0.002  0.000  0.020  0.023
   18  0.000  0.001  0.011  0.012
   19  0.007  0.000  0.018  0.025
   20  0.000  0.000  0.066  0.066
   21  0.018  0.001  0.021  0.040
   22  0.003  0.001  0.019  0.023
   23  0.018  0.001  0.021  0.040
   24  0.000  0.001  0.036  0.037
   25  0.000  0.001  0.012  0.014
   26  0.007  0.000  0.018  0.025
   27  0.003  0.001  0.019  0.023
   28  0.000  0.001  0.008  0.008
   29  0.002  0.001  0.004  0.006
   30  0.010  0.001  0.004  0.015
   31  0.002  0.001  0.004  0.006
   32  0.003  0.001  0.004  0.008
   33  0.010  0.001  0.004  0.015
   34  0.004  0.001  0.004  0.009
   35  0.000  0.000  0.004  0.004
   36  0.000  0.002  0.002  0.004
   37  0.000  0.000  0.000  0.000
   38  0.000  0.000  0.000  0.000
tot    0.162  0.033  0.551  0.746
 
band    15 # energy   -5.33074856 # occ.  2.00000000
 
ion      s      p      d    tot
    1  0.000  0.001  0.004  0.005
    2  0.009  0.001  0.004  0.014
    3  0.001  0.000  0.005  0.006
    4  0.009  0.001  0.004  0.014
    5  0.000  0.001  0.011  0.012
    6  0.005  0.001  0.005  0.011
    7  0.001  0.000  0.005  0.006
    8  0.005  0.001  0.005  0.011
    9  0.000  0.000  0.010  0.010
   10  0.008  0.002  0.009  0.019
   11  0.005  0.000  0.043  0.048
   12  0.002  0.001  0.038  0.041
   13  0.005  0.000  0.042  0.048
   14  0.020  0.001  0.010  0.032
   15  0.001  0.001  0.014  0.016
   16  0.002  0.001  0.039  0.042
   17  0.001  0.001  0.014  0.016
   18  0.003  0.000  0.024  0.026
   19  0.002  0.001  0.014  0.017
   20  0.024  0.002  0.006  0.032
   21  0.006  0.000  0.051  0.057
   22  0.001  0.001  0.030  0.032
   23  0.006  0.000  0.051  0.057
   24  0.004  0.001  0.013  0.018
   25  0.009  0.000  0.020  0.029
   26  0.002  0.001  0.014  0.018
   27  0.001  0.001  0.030  0.032
   28  0.000  0.001  0.008  0.008
   29  0.009  0.001  0.004  0.014
   30  0.000  0.001  0.004  0.005
   31  0.009  0.001  0.004  0.014
   32  0.007  0.001  0.004  0.012
   33  0.000  0.001  0.004  0.005
   34  0.007  0.001  0.004  0.011
   35  0.000  0.000  0.004  0.004
   36  0.000  0.002  0.002  0.004
   37  0.000  0.000  0.000  0.000
   38  0.000  0.000  0.000  0.000
tot    0.162  0.033  0.551  0.746
 
band    16 # energy   -5.29548667 # occ.  2.00000000
 
ion      s      p      d    tot
    1  0.008  0.000  0.001  0.009
    2  0.000  0.001  0.009  0.009
    3  0.000  0.001  0.009  0.009
    4  0.000  0.001  0.009  0.009
    5  0.019  0.002  0.001  0.021
    6  0.000  0.001  0.009  0.009
    7  0.000  0.001  0.009  0.009
    8  0.000  0.001  0.009  0.009
    9  0.003  0.001  0.002  0.006
   10  0.000  0.000  0.042  0.043
   11  0.006  0.001  0.014  0.021
   12  0.000  0.000  0.043  0.043
   13  0.006  0.001  0.014  0.021
   14  0.006  0.001  0.014  0.021
   15  0.006  0.001  0.024  0.031
   16  0.000  0.000  0.043  0.043
   17  0.006  0.001  0.024  0.031
   18  0.006  0.001  0.024  0.031
   19  0.008  0.000  0.045  0.053
   20  0.011  0.002  0.007  0.020
   21  0.011  0.002  0.007  0.020
   22  0.001  0.000  0.034  0.035
   23  0.011  0.002  0.007  0.020
   24  0.001  0.000  0.033  0.034
   25  0.009  0.000  0.045  0.054
   26  0.008  0.000  0.045  0.053
   27  0.001  0.000  0.034  0.035
   28  0.000  0.000  0.006  0.007
   29  0.000  0.000  0.005  0.006
   30  0.000  0.000  0.005  0.006
   31  0.000  0.000  0.005  0.006
   32  0.001  0.000  0.005  0.006
   33  0.000  0.000  0.005  0.006
   34  0.001  0.000  0.005  0.006
   35  0.002  0.000  0.000  0.003
   36  0.006  0.005  0.000  0.011
   37  0.000  0.003  0.000  0.003
   38  0.001  0.000  0.000  0.001
tot    0.139  0.032  0.592  0.764
 
band    17 # energy   -5.29411575 # occ.  2.00000000
 
ion      s      p      d    tot
    1  0.000  0.001  0.015  0.016
    2  0.010  0.001  0.005  0.016
    3  0.002  0.000  0.005  0.007
    4  0.010  0.001  0.005  0.016
    5  0.000  0.000  0.005  0.005
    6  0.003  0.001  0.006  0.010
    7  0.002  0.000  0.005  0.007
    8  0.003  0.001  0.006  0.010
    9  0.000  0.001  0.007  0.009
   10  0.000  0.001  0.030  0.031
   11  0.001  0.001  0.020  0.022
   12  0.007  0.000  0.023  0.030
   13  0.001  0.001  0.020  0.022
   14  0.000  0.001  0.019  0.020
   15  0.011  0.002  0.021  0.034
   16  0.007  0.000  0.023  0.030
   17  0.011  0.002  0.021  0.034
   18  0.000  0.000  0.065  0.065
   19  0.014  0.001  0.020  0.035
   20  0.000  0.002  0.019  0.020
   21  0.000  0.001  0.021  0.022
   22  0.018  0.001  0.021  0.040
   23  0.000  0.001  0.021  0.022
   24  0.000  0.001  0.032  0.033
   25  0.000  0.000  0.067  0.067
   26  0.014  0.001  0.020  0.034
   27  0.018  0.001  0.021  0.040
   28  0.000  0.001  0.005  0.005
   29  0.005  0.001  0.004  0.010
   30  0.000  0.000  0.004  0.005
   31  0.005  0.001  0.004  0.010
   32  0.003  0.001  0.002  0.006
   33  0.000  0.000  0.004  0.005
   34  0.003  0.001  0.002  0.006
   35  0.000  0.001  0.008  0.008
   36  0.000  0.000  0.000  0.000
   37  0.000  0.000  0.000  0.000
   38  0.000  0.000  0.000  0.000
tot    0.148  0.029  0.575  0.752
 
band    18 # energy   -5.29410015 # occ.  2.00000000
 
ion      s      p      d    tot
    1  0.000  0.001  0.015  0.016
    2  0.000  0.000  0.006  0.006
    3  0.009  0.001  0.005  0.015
    4  0.000  0.000  0.006  0.006
    5  0.000  0.000  0.005  0.005
    6  0.007  0.001  0.005  0.013
    7  0.008  0.001  0.005  0.015
    8  0.007  0.001  0.005  0.012
    9  0.000  0.001  0.007  0.009
   10  0.009  0.000  0.021  0.030
   11  0.000  0.001  0.019  0.020
   12  0.002  0.001  0.028  0.031
   13  0.000  0.001  0.019  0.020
   14  0.001  0.001  0.021  0.023
   15  0.004  0.001  0.050  0.055
   16  0.002  0.001  0.028  0.031
   17  0.004  0.001  0.051  0.055
   18  0.014  0.002  0.006  0.023
   19  0.005  0.001  0.051  0.056
   20  0.000  0.000  0.022  0.022
   21  0.000  0.001  0.020  0.021
   22  0.006  0.001  0.028  0.035
   23  0.000  0.001  0.020  0.021
   24  0.024  0.001  0.018  0.042
   25  0.018  0.001  0.004  0.023
   26  0.005  0.001  0.051  0.056
   27  0.006  0.001  0.028  0.035
   28  0.000  0.001  0.005  0.005
   29  0.001  0.000  0.003  0.004
   30  0.006  0.001  0.003  0.009
   31  0.001  0.000  0.003  0.004
   32  0.002  0.001  0.005  0.008
   33  0.006  0.001  0.003  0.009
   34  0.002  0.001  0.005  0.008
   35  0.000  0.001  0.008  0.008
   36  0.000  0.000  0.000  0.000
   37  0.000  0.000  0.000  0.000
   38  0.000  0.000  0.000  0.000
tot    0.148  0.029  0.575  0.752
 
band    19 # energy   -4.95604423 # occ.  2.00000000
 
ion      s      p      d    tot
    1  0.000  0.000  0.016  0.016
    2  0.000  0.001  0.012  0.013
    3  0.009  0.000  0.016  0.025
    4  0.000  0.000  0.013  0.014
    5  0.000  0.000  0.032  0.033
    6  0.009  0.001  0.010  0.019
    7  0.007  0.000  0.016  0.024
    8  0.007  0.001  0.009  0.017
    9  0.000  0.001  0.009  0.011
   10  0.000  0.000  0.017  0.017
   11  0.000  0.000  0.042  0.043
   12  0.000  0.000  0.008  0.009
   13  0.000  0.000  0.043  0.043
   14  0.000  0.000  0.039  0.039
   15  0.000  0.000  0.037  0.037
   16  0.000  0.000  0.010  0.010
   17  0.000  0.000  0.034  0.034
   18  0.000  0.000  0.049  0.050
   19  0.000  0.000  0.011  0.012
   20  0.001  0.000  0.041  0.042
   21  0.000  0.000  0.027  0.027
   22  0.000  0.000  0.035  0.035
   23  0.000  0.000  0.029  0.030
   24  0.000  0.000  0.038  0.039
   25  0.001  0.000  0.011  0.012
   26  0.000  0.000  0.011  0.011
   27  0.000  0.000  0.035  0.036
   28  0.000  0.000  0.014  0.014
   29  0.008  0.001  0.012  0.020
   30  0.000  0.001  0.008  0.009
   31  0.006  0.001  0.012  0.019
   32  0.009  0.001  0.007  0.016
   33  0.000  0.001  0.009  0.009
   34  0.010  0.001  0.007  0.018
   35  0.000  0.000  0.018  0.019
   36  0.000  0.002  0.001  0.003
   37  0.000  0.001  0.000  0.001
   38  0.000  0.000  0.000  0.000
tot    0.069  0.017  0.738  0.823
 
band    20 # energy   -4.95604395 # occ.  2.00000000
 
ion      s      p      d    tot
    1  0.000  0.000  0.016  0.016
    2  0.010  0.001  0.013  0.024
    3  0.002  0.001  0.010  0.013
    4  0.010  0.001  0.012  0.023
    5  0.000  0.000  0.032  0.033
    6  0.002  0.000  0.016  0.018
    7  0.003  0.001  0.010  0.014
    8  0.003  0.000  0.016  0.020
    9  0.000  0.001  0.009  0.011
   10  0.000  0.000  0.007  0.007
   11  0.000  0.000  0.040  0.041
   12  0.000  0.000  0.015  0.015
   13  0.000  0.000  0.040  0.040
   14  0.000  0.000  0.044  0.044
   15  0.000  0.000  0.043  0.044
   16  0.000  0.000  0.013  0.014
   17  0.000  0.000  0.046  0.046
   18  0.000  0.000  0.031  0.031
   19  0.000  0.000  0.011  0.012
   20  0.000  0.000  0.024  0.024
   21  0.001  0.000  0.038  0.039
   22  0.000  0.000  0.038  0.038
   23  0.001  0.000  0.036  0.036
   24  0.000  0.000  0.034  0.034
   25  0.000  0.000  0.011  0.011
   26  0.001  0.000  0.011  0.012
   27  0.000  0.000  0.037  0.037
   28  0.000  0.000  0.014  0.014
   29  0.003  0.001  0.006  0.010
   30  0.011  0.001  0.010  0.022
   31  0.005  0.001  0.006  0.012
   32  0.003  0.001  0.011  0.014
   33  0.011  0.001  0.009  0.021
   34  0.001  0.001  0.011  0.012
   35  0.000  0.000  0.018  0.019
   36  0.000  0.002  0.001  0.003
   37  0.000  0.001  0.000  0.001
   38  0.000  0.000  0.000  0.000
tot    0.069  0.017  0.738  0.823
 
band    21 # energy   -4.93771000 # occ.  2.00000000
 
ion      s      p      d    tot
    1  0.021  0.001  0.002  0.024
    2  0.000  0.001  0.017  0.018
    3  0.000  0.001  0.017  0.018
    4  0.000  0.001  0.017  0.018
    5  0.008  0.000  0.015  0.023
    6  0.000  0.001  0.017  0.018
    7  0.000  0.001  0.017  0.018
    8  0.000  0.001  0.017  0.018
    9  0.003  0.001  0.005  0.009
   10  0.000  0.000  0.029  0.029
   11  0.000  0.000  0.040  0.041
   12  0.000  0.000  0.029  0.029
   13  0.000  0.000  0.040  0.041
   14  0.000  0.000  0.041  0.041
   15  0.000  0.000  0.039  0.040
   16  0.000  0.000  0.029  0.029