 vasp.6.2.0 18Jan21 (build Jun 12 2021 23:27:24) complex                        
  
 executed on             LinuxIFC date 2022.05.30  16:46:02
 running on   28 total cores
 distrk:  each k-point on   28 cores,    1 groups
 distr:  one band on NCORE=   1 cores,   28 groups


--------------------------------------------------------------------------------------------------------


 INCAR:
   ISMEAR = -5
   SIGMA = 0.1
   ISPIN = 1
   EDIFF = 1.d-5
   EDIFFG = -0.01
   NSW = 0
   NELM = 150
   ENCUT = 500
   ISIF = 2
   IBRION = 2
   LREAL = Auto
   ALGO = Fast
   ICHARG = 11
   LORBIT = 10
   LCHARG = .F.
   LWAVE = .F.

 POTCAR:    PAW_PBE Ag 02Apr2005                  
 POTCAR:    PAW_PBE Ti 08Apr2002                  
 POTCAR:    PAW_PBE C 08Apr2002                   
 POTCAR:    PAW_PBE O 08Apr2002                   
 POTCAR:    PAW_PBE H 15Jun2001                   
 -----------------------------------------------------------------------------
|                                                                             |
|           W    W    AA    RRRRR   N    N  II  N    N   GGGG   !!!           |
|           W    W   A  A   R    R  NN   N  II  NN   N  G    G  !!!           |
|           W    W  A    A  R    R  N N  N  II  N N  N  G       !!!           |
|           W WW W  AAAAAA  RRRRR   N  N N  II  N  N N  G  GGG   !            |
|           WW  WW  A    A  R   R   N   NN  II  N   NN  G    G                |
|           W    W  A    A  R    R  N    N  II  N    N   GGGG   !!!           |
|                                                                             |
|     For optimal performance we recommend to set                             |
|       NCORE = 2 up to number-of-cores-per-socket                            |
|     NCORE specifies how many cores store one orbital (NPAR=cpu/NCORE).      |
|     This setting can greatly improve the performance of VASP for DFT.       |
|     The default, NCORE=1 might be grossly inefficient on modern             |
|     multi-core architectures or massively parallel machines. Do your        |
|     own testing! More info at https://www.vasp.at/wiki/index.php/NCORE      |
|     Unfortunately you need to use the default for GW and RPA                |
|     calculations (for HF NCORE is supported but not extensively tested      |
|     yet).                                                                   |
|                                                                             |
 -----------------------------------------------------------------------------

 POTCAR:    PAW_PBE Ag 02Apr2005                  
   VRHFIN =Ag : s1 d10                                                                              
   LEXCH  = PE                                                                                      
   EATOM  =  1037.2675 eV,   76.2370 Ry                                                             
                                                                                                    
   TITEL  = PAW_PBE Ag 02Apr2005                                                                    
   LULTRA =        F    use ultrasoft PP ?                                                          
   IUNSCR =        1    unscreen: 0-lin 1-nonlin 2-no                                               
   RPACOR =    2.000    partial core radius                                                         
   POMASS =  107.868; ZVAL   =   11.000    mass and valenz                                          
   RCORE  =    2.500    outmost cutoff radius                                                       
   RWIGS  =    2.840; RWIGS  =    1.503    wigner-seitz radius (au A)                               
   ENMAX  =  249.844; ENMIN  =  187.383 eV                                                          
   ICORE  =        3    local potential                                                             
   LCOR   =        T    correct aug charges                                                         
   LPAW   =        T    paw PP                                                                      
   EAUG   =  412.496                                                                                
   DEXC   =    0.000                                                                                
   RMAX   =    2.560    core radius for proj-oper                                                   
   RAUG   =    1.300    factor for augmentation sphere                                              
   RDEP   =    2.576    radius for radial grids                                                     
   RDEPT  =    2.072    core radius for aug-charge                                                  
                                                                                                    
   Atomic configuration                                                                             
   12 entries                                                                                       
     n  l   j            E        occ.                                                              
     1  0  0.50    -25324.9161   2.0000                                                             
     2  0  0.50     -3728.5341   2.0000                                                             
     2  1  1.50     -3344.0404   6.0000                                                             
     3  0  0.50      -683.5581   2.0000                                                             
     3  1  1.50      -557.3225   6.0000                                                             
     3  2  2.50      -358.3853  10.0000                                                             
     4  0  0.50       -95.0341   2.0000                                                             
     4  1  1.50       -58.5511   6.0000                                                             
     4  2  2.50        -7.4440  10.0000                                                             
     5  0  0.50        -4.4045   1.0000                                                             
     5  1  0.50        -1.3606   0.0000                                                             
     4  3  2.50        -1.3606   0.0000                                                             
   Description                                                                                      
     l       E           TYP  RCUT    TYP  RCUT                                                     
     2     -7.4439781     23  2.400                                                                 
     2     -8.8045607     23  2.400                                                                 
     0     -4.4044681     23  2.400                                                                 
     0      1.9520038     23  2.400                                                                 
     1     -1.3605826     23  2.500                                                                 
     1     27.2116520     23  2.500                                                                 
     3     -4.0817478     23  2.400                                                                 
  local pseudopotential read in
  partial core-charges read in
  partial kinetic energy density read in
  atomic valenz-charges read in
  non local Contribution for L=           2  read in
    real space projection operators read in
  non local Contribution for L=           2  read in
    real space projection operators read in
  non local Contribution for L=           0  read in
    real space projection operators read in
  non local Contribution for L=           0  read in
    real space projection operators read in
  non local Contribution for L=           1  read in
    real space projection operators read in
  non local Contribution for L=           1  read in
    real space projection operators read in
    PAW grid and wavefunctions read in
 
   number of l-projection  operators is LMAX  =           6
   number of lm-projection operators is LMMAX =          18
 
 POTCAR:    PAW_PBE Ti 08Apr2002                  
   VRHFIN =Ti: d3 s1                                                                                
   LEXCH  = PE                                                                                      
   EATOM  =    94.7928 eV,    6.9671 Ry                                                             
                                                                                                    
   TITEL  = PAW_PBE Ti 08Apr2002                                                                    
   LULTRA =        F    use ultrasoft PP ?                                                          
   IUNSCR =        1    unscreen: 0-lin 1-nonlin 2-no                                               
   RPACOR =    2.200    partial core radius                                                         
   POMASS =   47.880; ZVAL   =    4.000    mass and valenz                                          
   RCORE  =    2.800    outmost cutoff radius                                                       
   RWIGS  =    2.500; RWIGS  =    1.323    wigner-seitz radius (au A)                               
   ENMAX  =  178.330; ENMIN  =  133.747 eV                                                          
   RCLOC  =    2.215    cutoff for local pot                                                        
   LCOR   =        T    correct aug charges                                                         
   LPAW   =        T    paw PP                                                                      
   EAUG   =  328.883                                                                                
   DEXC   =    0.000                                                                                
   RMAX   =    2.868    core radius for proj-oper                                                   
   RAUG   =    1.300    factor for augmentation sphere                                              
   RDEP   =    2.885    radius for radial grids                                                     
   RDEPT  =    2.320    core radius for aug-charge                                                  
                                                                                                    
   Atomic configuration                                                                             
    9 entries                                                                                       
     n  l   j            E        occ.                                                              
     1  0  0.50     -4865.3608   2.0000                                                             
     2  0  0.50      -533.1367   2.0000                                                             
     2  1  1.50      -440.5031   6.0000                                                             
     3  0  0.50       -59.3186   2.0000                                                             
     3  1  1.50       -35.7012   6.0000                                                             
     3  2  2.50        -1.9157   3.0000                                                             
     4  0  0.50        -3.7291   1.0000                                                             
     4  1  1.50        -4.0817   0.0000                                                             
     4  3  2.50        -1.3606   0.0000                                                             
   Description                                                                                      
     l       E           TYP  RCUT    TYP  RCUT                                                     
     2     -1.9156924     23  2.800                                                                 
     2     -0.4062961     23  2.800                                                                 
     0     -3.7290832     23  2.800                                                                 
     0     20.4087390     23  2.800                                                                 
     1     -5.4423304     23  2.800                                                                 
  local pseudopotential read in
  partial core-charges read in
  partial kinetic energy density read in
  atomic valenz-charges read in
  non local Contribution for L=           2  read in
    real space projection operators read in
  non local Contribution for L=           2  read in
    real space projection operators read in
  non local Contribution for L=           0  read in
    real space projection operators read in
  non local Contribution for L=           0  read in
    real space projection operators read in
  non local Contribution for L=           1  read in
    real space projection operators read in
    PAW grid and wavefunctions read in
 
   number of l-projection  operators is LMAX  =           5
   number of lm-projection operators is LMMAX =          15
 
 POTCAR:    PAW_PBE C 08Apr2002                   
   VRHFIN =C: s2p2                                                                                  
   LEXCH  = PE                                                                                      
   EATOM  =   147.1560 eV,   10.8157 Ry                                                             
                                                                                                    
   TITEL  = PAW_PBE C 08Apr2002                                                                     
   LULTRA =        F    use ultrasoft PP ?                                                          
   IUNSCR =        1    unscreen: 0-lin 1-nonlin 2-no                                               
   RPACOR =    1.200    partial core radius                                                         
   POMASS =   12.011; ZVAL   =    4.000    mass and valenz                                          
   RCORE  =    1.500    outmost cutoff radius                                                       
   RWIGS  =    1.630; RWIGS  =    0.863    wigner-seitz radius (au A)                               
   ENMAX  =  400.000; ENMIN  =  300.000 eV                                                          
   ICORE  =        2    local potential                                                             
   LCOR   =        T    correct aug charges                                                         
   LPAW   =        T    paw PP                                                                      
   EAUG   =  644.873                                                                                
   DEXC   =    0.000                                                                                
   RMAX   =    1.529    core radius for proj-oper                                                   
   RAUG   =    1.300    factor for augmentation sphere                                              
   RDEP   =    1.501    radius for radial grids                                                     
   RDEPT  =    1.300    core radius for aug-charge                                                  
                                                                                                    
   Atomic configuration                                                                             
    4 entries                                                                                       
     n  l   j            E        occ.                                                              
     1  0  0.50      -273.3789   2.0000                                                             
     2  0  0.50       -13.7508   2.0000                                                             
     2  1  0.50        -5.2854   2.0000                                                             
     3  2  1.50        -5.4423   0.0000                                                             
   Description                                                                                      
     l       E           TYP  RCUT    TYP  RCUT                                                     
     0    -13.7508458     23  1.200                                                                 
     0     -8.2022199     23  1.200                                                                 
     1     -5.2854383     23  1.500                                                                 
     1     34.0145650     23  1.500                                                                 
     2     -5.4423304      7  1.500                                                                 
  local pseudopotential read in
  partial core-charges read in
  partial kinetic energy density read in
  atomic valenz-charges read in
  non local Contribution for L=           0  read in
    real space projection operators read in
  non local Contribution for L=           0  read in
    real space projection operators read in
  non local Contribution for L=           1  read in
    real space projection operators read in
  non local Contribution for L=           1  read in
    real space projection operators read in
    PAW grid and wavefunctions read in
 
   number of l-projection  operators is LMAX  =           4
   number of lm-projection operators is LMMAX =           8
 
 POTCAR:    PAW_PBE O 08Apr2002                   
   VRHFIN =O: s2p4                                                                                  
   LEXCH  = PE                                                                                      
   EATOM  =   432.3788 eV,   31.7789 Ry                                                             
                                                                                                    
   TITEL  = PAW_PBE O 08Apr2002                                                                     
   LULTRA =        F    use ultrasoft PP ?                                                          
   IUNSCR =        1    unscreen: 0-lin 1-nonlin 2-no                                               
   RPACOR =    1.200    partial core radius                                                         
   POMASS =   16.000; ZVAL   =    6.000    mass and valenz                                          
   RCORE  =    1.520    outmost cutoff radius                                                       
   RWIGS  =    1.550; RWIGS  =    0.820    wigner-seitz radius (au A)                               
   ENMAX  =  400.000; ENMIN  =  300.000 eV                                                          
   ICORE  =        2    local potential                                                             
   LCOR   =        T    correct aug charges                                                         
   LPAW   =        T    paw PP                                                                      
   EAUG   =  605.392                                                                                
   DEXC   =    0.000                                                                                
   RMAX   =    1.553    core radius for proj-oper                                                   
   RAUG   =    1.300    factor for augmentation sphere                                              
   RDEP   =    1.550    radius for radial grids                                                     
   RDEPT  =    1.329    core radius for aug-charge                                                  
                                                                                                    
   Atomic configuration                                                                             
    4 entries                                                                                       
     n  l   j            E        occ.                                                              
     1  0  0.50      -514.6923   2.0000                                                             
     2  0  0.50       -23.9615   2.0000                                                             
     2  1  0.50        -9.0305   4.0000                                                             
     3  2  1.50        -9.5241   0.0000                                                             
   Description                                                                                      
     l       E           TYP  RCUT    TYP  RCUT                                                     
     0    -23.9615318     23  1.200                                                                 
     0     -9.5240782     23  1.200                                                                 
     1     -9.0304911     23  1.520                                                                 
     1      8.1634956     23  1.520                                                                 
     2     -9.5240782      7  1.500                                                                 
  local pseudopotential read in
  partial core-charges read in
  partial kinetic energy density read in
  kinetic energy density of atom read in
  atomic valenz-charges read in
  non local Contribution for L=           0  read in
    real space projection operators read in
  non local Contribution for L=           0  read in
    real space projection operators read in
  non local Contribution for L=           1  read in
    real space projection operators read in
  non local Contribution for L=           1  read in
    real space projection operators read in
    PAW grid and wavefunctions read in
 
   number of l-projection  operators is LMAX  =           4
   number of lm-projection operators is LMMAX =           8
 
 POTCAR:    PAW_PBE H 15Jun2001                   
   VRHFIN =H: ultrasoft test                                                                        
   LEXCH  = PE                                                                                      
   EATOM  =    12.4884 eV,    0.9179 Ry                                                             
                                                                                                    
   TITEL  = PAW_PBE H 15Jun2001                                                                     
   LULTRA =        F    use ultrasoft PP ?                                                          
   IUNSCR =        0    unscreen: 0-lin 1-nonlin 2-no                                               
   RPACOR =    0.000    partial core radius                                                         
   POMASS =    1.000; ZVAL   =    1.000    mass and valenz                                          
   RCORE  =    1.100    outmost cutoff radius                                                       
   RWIGS  =    0.700; RWIGS  =    0.370    wigner-seitz radius (au A)                               
   ENMAX  =  250.000; ENMIN  =  200.000 eV                                                          
   RCLOC  =    0.701    cutoff for local pot                                                        
   LCOR   =        T    correct aug charges                                                         
   LPAW   =        T    paw PP                                                                      
   EAUG   =  400.000                                                                                
   RMAX   =    1.123    core radius for proj-oper                                                   
   RAUG   =    1.200    factor for augmentation sphere                                              
   RDEP   =    1.112    radius for radial grids                                                     
   RDEPT  =    0.926    core radius for aug-charge                                                  
                                                                                                    
   Atomic configuration                                                                             
    2 entries                                                                                       
     n  l   j            E        occ.                                                              
     1  0  0.50        -6.4927   1.0000                                                             
     2  1  0.50        -3.4015   0.0000                                                             
   Description                                                                                      
     l       E           TYP  RCUT    TYP  RCUT                                                     
     0     -6.4927494     23  1.100                                                                 
     0      6.8029130     23  1.100                                                                 
     1     -4.0817478     23  1.100                                                                 
  local pseudopotential read in
  atomic valenz-charges read in
  non local Contribution for L=           0  read in
    real space projection operators read in
  non local Contribution for L=           0  read in
    real space projection operators read in
  non local Contribution for L=           1  read in
    real space projection operators read in
    PAW grid and wavefunctions read in
 
   number of l-projection  operators is LMAX  =           3
   number of lm-projection operators is LMMAX =           5
 
 Optimization of the real space projectors (new method)

 maximal supplied QI-value         = 15.12
 optimisation between [QCUT,QGAM] = [ 11.34, 22.83] = [ 36.00,145.93] Ry 
 Optimized for a Real-space Cutoff    1.43 Angstroem

   l    n(q)    QCUT    max X(q) W(low)/X(q) W(high)/X(q)  e(spline) 
   2      9    11.338    53.897    0.16E-03    0.20E-03    0.28E-06
   2      9    11.338    52.416    0.16E-03    0.20E-03    0.29E-06
   0     10    11.338   122.045    0.31E-04    0.76E-04    0.15E-06
   0     10    11.338    73.629    0.30E-04    0.72E-04    0.15E-06
   1      9    11.338    15.255    0.20E-03    0.19E-04    0.17E-06
   1      9    11.338     9.562    0.16E-03    0.15E-04    0.14E-06
 Optimization of the real space projectors (new method)

 maximal supplied QI-value         = 13.42
 optimisation between [QCUT,QGAM] = [ 11.40, 22.81] = [ 36.42,145.68] Ry 
 Optimized for a Real-space Cutoff    1.56 Angstroem

   l    n(q)    QCUT    max X(q) W(low)/X(q) W(high)/X(q)  e(spline) 
   2     10    11.404    49.363    0.27E-03    0.67E-03    0.76E-06
   2     10    11.404    47.669    0.26E-03    0.65E-03    0.73E-06
   0     11    11.404    26.374    0.17E-03    0.20E-03    0.34E-06
   0     11    11.404    11.549    0.14E-03    0.16E-03    0.29E-06
   1     10    11.404     9.492    0.33E-04    0.56E-04    0.16E-06
 Optimization of the real space projectors (new method)

 maximal supplied QI-value         = 25.13
 optimisation between [QCUT,QGAM] = [ 11.31, 22.87] = [ 35.82,146.48] Ry 
 Optimized for a Real-space Cutoff    1.00 Angstroem

   l    n(q)    QCUT    max X(q) W(low)/X(q) W(high)/X(q)  e(spline) 
   0      7    11.310   115.676    0.43E-03    0.13E-02    0.19E-06
   0      7    11.310    87.132    0.43E-03    0.13E-02    0.18E-06
   1      6    11.310     4.429    0.42E-03    0.74E-03    0.11E-06
   1      6    11.310     2.733    0.34E-03    0.55E-03    0.92E-07
 Optimization of the real space projectors (new method)

 maximal supplied QI-value         = 24.76
 optimisation between [QCUT,QGAM] = [ 11.39, 22.77] = [ 36.31,145.25] Ry 
 Optimized for a Real-space Cutoff    1.00 Angstroem

   l    n(q)    QCUT    max X(q) W(low)/X(q) W(high)/X(q)  e(spline) 
   0      7    11.387    20.381    0.39E-03    0.13E-02    0.15E-06
   0      7    11.387    15.268    0.42E-03    0.14E-02    0.17E-06
   1      6    11.387     5.964    0.41E-03    0.11E-02    0.17E-06
   1      6    11.387     5.382    0.39E-03    0.87E-03    0.15E-06
 Optimization of the real space projectors (new method)

 maximal supplied QI-value         = 34.20
 optimisation between [QCUT,QGAM] = [ 11.29, 22.57] = [ 35.68,142.71] Ry 
 Optimized for a Real-space Cutoff    1.16 Angstroem

   l    n(q)    QCUT    max X(q) W(low)/X(q) W(high)/X(q)  e(spline) 
   0      8    11.287    19.460    0.40E-03    0.73E-03    0.16E-06
   0      8    11.287    12.209    0.38E-03    0.70E-03    0.15E-06
   1      7    11.287     4.655    0.22E-03    0.25E-04    0.22E-06
  PAW_PBE Ag 02Apr2005                  :
 energy of atom  1       EATOM=-1037.2675
 kinetic energy error for atom=    0.0052 (will be added to EATOM!!)
  PAW_PBE Ti 08Apr2002                  :
 energy of atom  2       EATOM=  -94.7928
 kinetic energy error for atom=    0.0002 (will be added to EATOM!!)
  PAW_PBE C 08Apr2002                   :
 energy of atom  3       EATOM= -147.1560
 kinetic energy error for atom=    0.0076 (will be added to EATOM!!)
  PAW_PBE O 08Apr2002                   :
 energy of atom  4       EATOM= -432.3788
 kinetic energy error for atom=    0.0224 (will be added to EATOM!!)
  PAW_PBE H 15Jun2001                   :
 energy of atom  5       EATOM=  -12.4884
 kinetic energy error for atom=    0.0020 (will be added to EATOM!!)
 
 
 POSCAR: Ag-Ti-COH
  positions in direct lattice
  velocities in cartesian coordinates
 exchange correlation table for  LEXCH =        8
   RHO(1)=    0.500       N(1)  =     2000
   RHO(2)=  100.500       N(2)  =     4000

 VTST: version 3.2, (02/03/18)

 CHAIN: initializing optimizer
 
 OPT: Using VASP Conjugate-Gradient optimizer
 CHAIN: Read ICHAIN            0
 
 POSCAR: Ag-Ti-COH
  positions in direct lattice
  velocities in cartesian coordinates
 


--------------------------------------------------------------------------------------------------------


 ion  position               nearest neighbor table
   1  0.000  0.000  0.199-   2 2.93   8 2.93   7 2.93   6 2.93   4 2.93  12 2.93  16 2.93  10 2.93
                             3 2.93
   2  0.333  0.000  0.199-   1 2.93   8 2.93   9 2.93   3 2.93   4 2.93   5 2.93  10 2.93  17 2.93
                            11 2.93
   3  0.667  0.000  0.199-   9 2.93   2 2.93   5 2.93  11 2.93   7 2.93  18 2.93   1 2.93   6 2.93
                            12 2.93
   4  0.000  0.333  0.199-   5 2.93   6 2.93   2 2.93   1 2.93   7 2.93  13 2.93  15 2.93   9 2.93
                            10 2.93
   5  0.333  0.333  0.199-   4 2.93   3 2.93   7 2.93   2 2.93   8 2.93  14 2.93  13 2.93  11 2.93
                             6 2.93
   6  0.667  0.333  0.199-   4 2.93   9 2.93   1 2.93  15 2.93   8 2.93  12 2.93   3 2.93   5 2.93
                            14 2.93
   7  0.000  0.667  0.199-   8 2.93   1 2.93   5 2.93   3 2.93   4 2.93  16 2.93  18 2.93  13 2.93
                             9 2.93
   8  0.333  0.667  0.199-   7 2.93   1 2.93   2 2.93   9 2.93   5 2.93  16 2.93   6 2.93  17 2.93
                            14 2.93
   9  0.667  0.667  0.199-   3 2.93   2 2.93   8 2.93   6 2.93  17 2.93   4 2.93  15 2.93   7 2.93
                            18 2.93
  10  0.111  0.111  0.289-  20 2.91  19 2.92  26 2.92  12 2.93  16 2.93  15 2.93  17 2.93  13 2.93
                            11 2.93   2 2.93   1 2.93   4 2.93
  11  0.444  0.111  0.289-  21 2.91  20 2.91  27 2.92  14 2.93  17 2.93  18 2.93   3 2.93  12 2.93
                            13 2.93  10 2.93   5 2.93   2 2.93
  12  0.778  0.111  0.289-  21 2.91  25 2.92  19 2.92  10 2.93  16 2.93  18 2.93  15 2.93  11 2.93
                             1 2.93  14 2.93   6 2.93   3 2.93
  13  0.111  0.444  0.289-  20 2.91  23 2.91  22 2.92  15 2.93  14 2.93  18 2.93  10 2.93  11 2.93
                            16 2.93   4 2.93   5 2.93   7 2.93
  14  0.444  0.444  0.289-  23 2.91  21 2.91  24 2.92  13 2.93  11 2.93  16 2.93   5 2.93  12 2.93
                            17 2.93   8 2.93  15 2.93   6 2.93
  15  0.778  0.444  0.289-  19 2.92  24 2.92  22 2.92  13 2.93  10 2.93  12 2.93  17 2.93  18 2.93
                             4 2.93   6 2.93   9 2.93  14 2.93
  16  0.111  0.778  0.289-  23 2.91  26 2.92  25 2.92  18 2.93  12 2.93  10 2.93  14 2.93  17 2.93
                            13 2.93   7 2.93   8 2.93   1 2.93
  17  0.444  0.778  0.289-  26 2.92  27 2.92  24 2.92  11 2.93  10 2.93   9 2.93  18 2.93  15 2.93
                            16 2.93   2 2.93  14 2.93   8 2.93
  18  0.778  0.778  0.289-  25 2.92  22 2.92  27 2.92  16 2.93  12 2.93  13 2.93  11 2.93  17 2.93
                            15 2.93   7 2.93   3 2.93   9 2.93
  19  0.889  0.222  0.378-  10 2.92  12 2.92  15 2.92  28 2.92  26 2.93  25 2.93  24 2.93  22 2.93
                            20 2.94  21 2.94  32 2.96  31 2.96
  20  0.223  0.223  0.378-  36 2.82  13 2.91  11 2.91  10 2.91  21 2.92  23 2.92  27 2.93  22 2.93
                            19 2.94  26 2.94  31 2.94  29 2.94
  21  0.555  0.223  0.378-  36 2.82  11 2.91  14 2.91  12 2.91  20 2.92  23 2.92  27 2.93  24 2.93
                            25 2.94  19 2.94  30 2.94  32 2.94
  22  0.889  0.556  0.378-  18 2.92  15 2.92  13 2.92  24 2.93  27 2.93  25 2.93  19 2.93  35 2.93
                            23 2.93  20 2.93  33 2.94  31 2.94
  23  0.223  0.555  0.378-  36 2.82  14 2.91  13 2.91  16 2.91  21 2.92  20 2.92  22 2.93  24 2.93
                            26 2.94  25 2.94  34 2.94  33 2.94
  24  0.556  0.556  0.378-  15 2.92  17 2.92  14 2.92  27 2.93  22 2.93  19 2.93  26 2.93  35 2.93
                            23 2.93  21 2.93  32 2.94  34 2.94
  25  0.889  0.889  0.378-  16 2.92  12 2.92  18 2.92  28 2.92  26 2.93  19 2.93  22 2.93  27 2.93
                            23 2.94  21 2.94  33 2.96  30 2.96
  26  0.222  0.889  0.378-  16 2.92  10 2.92  17 2.92  28 2.92  25 2.93  19 2.93  27 2.93  24 2.93
                            23 2.94  20 2.94  34 2.96  29 2.96
  27  0.556  0.889  0.378-  17 2.92  18 2.92  11 2.92  24 2.93  22 2.93  26 2.93  25 2.93  35 2.93
                            20 2.93  21 2.93  29 2.94  30 2.94
  28  0.000  0.000  0.468-  26 2.92  25 2.92  19 2.92  29 2.95  34 2.95  33 2.95  32 2.95  31 2.95
                            30 2.95
  29  0.334  0.004  0.469-  30 2.89  31 2.90  36 2.90  20 2.94  27 2.94  35 2.95  28 2.95  26 2.96
                            34 3.00
  30  0.662  0.004  0.469-  29 2.89  32 2.90  36 2.90  21 2.94  27 2.94  35 2.95  28 2.95  25 2.96
                            33 3.00
  31  0.004  0.334  0.469-  33 2.89  29 2.90  36 2.90  20 2.94  22 2.94  35 2.95  28 2.95  19 2.96
                            32 3.00
  32  0.662  0.334  0.469-  34 2.89  30 2.90  36 2.90  21 2.94  24 2.94  35 2.95  28 2.95  19 2.96
                            31 3.00
  33  0.004  0.662  0.469-  31 2.89  34 2.90  36 2.90  23 2.94  22 2.94  35 2.95  28 2.95  25 2.96
                            30 3.00
  34  0.334  0.662  0.469-  32 2.89  33 2.90  36 2.90  23 2.94  24 2.94  35 2.95  28 2.95  26 2.96
                            29 3.00
  35  0.667  0.667  0.469-  24 2.93  27 2.93  22 2.93  30 2.95  32 2.95  29 2.95  34 2.95  31 2.95
                            33 2.95
  36  0.333  0.333  0.463-  37 1.88  21 2.82  20 2.82  23 2.82  31 2.90  33 2.90  30 2.90  29 2.90
                            34 2.90  32 2.90
  37  0.333  0.333  0.533-  38 1.27  36 1.88
  38  0.333  0.333  0.581-  39 0.96  37 1.27
  39  0.333  0.333  0.617-  38 0.96
 
  LATTYP: Found a hexagonal cell.
 ALAT       =     8.7913665772
 C/A-ratio  =     3.0233954145
  
  Lattice vectors:
  
 A1 = (  -4.3956832886,  -7.6135467898,   0.0000000000)
 A2 = (   8.7913665771,   0.0000000000,   0.0000000000)
 A3 = (   0.0000000000,   0.0000000000,  26.5797773968)


Analysis of symmetry for initial positions (statically):
=====================================================================
 Subroutine PRICEL returns:
 Original cell was already a primitive cell.
 

 Routine SETGRP: Setting up the symmetry group for a 
 hexagonal supercell.


 Subroutine GETGRP returns: Found  6 space group operations
 (whereof  6 operations were pure point group operations)
 out of a pool of 24 trial point group operations.


The static configuration has the point symmetry C_3v.


Analysis of symmetry for dynamics (positions and initial velocities):
=====================================================================
 Subroutine PRICEL returns:
 Original cell was already a primitive cell.
 

 Routine SETGRP: Setting up the symmetry group for a 
 hexagonal supercell.


 Subroutine GETGRP returns: Found  6 space group operations
 (whereof  6 operations were pure point group operations)
 out of a pool of 24 trial point group operations.


The dynamic configuration has the point symmetry C_3v.


Analysis of constrained symmetry for selective dynamics:
=====================================================================
 Subroutine PRICEL returns:
 Original cell was already a primitive cell.
 

 Routine SETGRP: Setting up the symmetry group for a 
 hexagonal supercell.


 Subroutine GETGRP returns: Found  6 space group operations
 (whereof  6 operations were pure point group operations)
 out of a pool of 24 trial point group operations.


The constrained configuration has the point symmetry C_3v.


 Subroutine INISYM returns: Found  6 space group operations
 (whereof  6 operations are pure point group operations),
 and found     1 'primitive' translations


----------------------------------------------------------------------------------------

                                     Primitive cell                                     

  volume of cell :    1779.0770

  direct lattice vectors                    reciprocal lattice vectors
     8.791366577  0.000000000  0.000000000     0.113747958 -0.065672414  0.000000000
     4.395683289  7.613546790  0.000000000     0.000000000  0.131344829  0.000000000
     0.000000000  0.000000000 26.579777397     0.000000000  0.000000000  0.037622587

  length of vectors
     8.791366577  8.791366577 26.579777397     0.131344829  0.131344829  0.037622587

  position of ions in fractional coordinates (direct lattice)
     0.000000000  0.000000000  0.198729585
     0.333333313  0.000000000  0.198729585
     0.666666627  0.000000000  0.198729585
     1.000000000  0.333333343  0.198729585
     0.333333313  0.333333343  0.198729585
     0.666666687  0.333333343  0.198729585
     1.000000000  0.666666687  0.198729585
     0.333333313  0.666666687  0.198729585
     0.666666627  0.666666687  0.198729585
     0.111111104  0.111111112  0.288749421
     0.444444448  0.111111112  0.288749421
     0.777777791  0.111111112  0.288749421
     0.111111097  0.444444448  0.288749421
     0.444444418  0.444444448  0.288749421
     0.777777791  0.444444448  0.288749421
     0.111111104  0.777777791  0.288749421
     0.444444448  0.777777791  0.288749421
     0.777777791  0.777777791  0.288749421
     0.888965348  0.222069319  0.378161387
     0.222608922  0.222608937  0.377766691
     0.554782097  0.222608937  0.377766691
     0.888549089  0.555725486  0.378387300
     0.222608937  0.554782157  0.377766691
     0.555725486  0.555725486  0.378387300
     0.888965348  0.888965348  0.378161387
     0.222069289  0.888965348  0.378161387
     0.555725426  0.888549089  0.378387300
     0.000000000  0.000000000  0.467804283
     0.333630460  0.003871759  0.468746287
     0.662497721  0.003871759  0.468746287
     0.003871759  0.333630490  0.468746287
     0.662497781  0.333630490  0.468746287
     0.003871759  0.662497781  0.468746287
     0.333630460  0.662497781  0.468746287
     0.666666627  0.666666687  0.468562275
     0.333333313  0.333333343  0.462844213
     0.333333313  0.333333343  0.533461301
     0.333333313  0.333333343  0.581429713
     0.333333313  0.333333343  0.617371634

  ion indices of the primitive-cell ions
   primitive index   ion index
                 1           1
                 2           2
                 3           3
                 4           4
                 5           5
                 6           6
                 7           7
                 8           8
                 9           9
                10          10
                11          11
                12          12
                13          13
                14          14
                15          15
                16          16
                17          17
                18          18
                19          19
                20          20
                21          21
                22          22
                23          23
                24          24
                25          25
                26          26
                27          27
                28          28
                29          29
                30          30
                31          31
                32          32
                33          33
                34          34
                35          35
                36          36
                37          37
                38          38
                39          39

----------------------------------------------------------------------------------------

 
 
 KPOINTS: Automatic mesh                          

Automatic generation of k-mesh.
 Grid dimensions read from file:
 generate k-points for:    8    8    1

 Generating k-lattice:

  Cartesian coordinates                     Fractional coordinates (reciprocal lattice)
     0.014218495 -0.008209052  0.000000000     0.125000000 -0.000000000  0.000000000
     0.000000000  0.016418104  0.000000000     0.000000000  0.125000000  0.000000000
     0.000000000  0.000000000  0.037622587     0.000000000  0.000000000  1.000000000

  Length of vectors
     0.016418104  0.016418104  0.037622587

  Shift w.r.t. Gamma in fractional coordinates (k-lattice)
     0.000000000  0.000000000  0.000000000

 TETIRR: Found     36 inequivalent tetrahedra from      384
 
 Subroutine IBZKPT returns following result:
 ===========================================
 
 Found     10 irreducible k-points:
 
 Following reciprocal coordinates:
            Coordinates               Weight
  0.000000  0.000000  0.000000      1.000000
  0.125000 -0.000000  0.000000      6.000000
  0.250000 -0.000000  0.000000      6.000000
  0.375000 -0.000000  0.000000      6.000000
  0.500000 -0.000000  0.000000      3.000000
  0.250000  0.125000  0.000000      6.000000
  0.375000  0.125000  0.000000     12.000000
  0.500000  0.125000  0.000000     12.000000
  0.500000  0.250000  0.000000      6.000000
 -0.375000  0.250000  0.000000      6.000000
 
 Following cartesian coordinates:
            Coordinates               Weight
  0.000000  0.000000  0.000000      1.000000
  0.014218 -0.008209  0.000000      6.000000
  0.028437 -0.016418  0.000000      6.000000
  0.042655 -0.024627  0.000000      6.000000
  0.056874 -0.032836  0.000000      3.000000
  0.028437 -0.000000  0.000000      6.000000
  0.042655 -0.008209  0.000000     12.000000
  0.056874 -0.016418  0.000000     12.000000
  0.056874 -0.000000  0.000000      6.000000
 -0.042655  0.057463  0.000000      6.000000
 


--------------------------------------------------------------------------------------------------------




 Dimension of arrays:
   k-points           NKPTS =     10   k-points in BZ     NKDIM =     10   number of bands    NBANDS=    252
   number of dos      NEDOS =    301   number of ions     NIONS =     39
   non local maximal  LDIM  =      6   non local SUM 2l+1 LMDIM =     18
   total plane-waves  NPLWV = 345600
   max r-space proj   IRMAX =   3164   max aug-charges    IRDMAX=  13614
   dimension x,y,z NGX =    48 NGY =   48 NGZ =  150
   dimension x,y,z NGXF=    96 NGYF=   96 NGZF=  300
   support grid    NGXF=    96 NGYF=   96 NGZF=  300
   ions per type =              35   1   1   1   1
   NGX,Y,Z   is equivalent  to a cutoff of   9.08,  9.08,  9.38 a.u.
   NGXF,Y,Z  is equivalent  to a cutoff of  18.15, 18.15, 18.76 a.u.

 SYSTEM =  unknown system                          
 POSCAR =  Ag-Ti-COH                               

 Startparameter for this run:
   NWRITE =      2    write-flag & timer
   PREC   = normal    normal or accurate (medium, high low for compatibility)
   ISTART =      0    job   : 0-new  1-cont  2-samecut
   ICHARG =     11    charge: 1-file 2-atom 10-const
   ISPIN  =      1    spin polarized calculation?
   LNONCOLLINEAR =      F non collinear calculations
   LSORBIT =      F    spin-orbit coupling
   INIWAV =      1    electr: 0-lowe 1-rand  2-diag
   LASPH  =      F    aspherical Exc in radial PAW
   METAGGA=      F    non-selfconsistent MetaGGA calc.

 Electronic Relaxation 1
   ENCUT  =  500.0 eV  36.75 Ry    6.06 a.u.  16.03 16.03 48.46*2*pi/ulx,y,z
   ENINI  =  500.0     initial cutoff
   ENAUG  =  644.9 eV  augmentation charge cutoff
   NELM   =    150;   NELMIN=  2; NELMDL= -5     # of ELM steps 
   EDIFF  = 0.1E-04   stopping-criterion for ELM
   LREAL  =      T    real-space projection
   NLSPLINE    = F    spline interpolate recip. space projectors
   LCOMPAT=      F    compatible to vasp.4.4
   GGA_COMPAT  = T    GGA compatible to vasp.4.4-vasp.4.6
   LMAXPAW     = -100 max onsite density
   LMAXMIX     =    2 max onsite mixed and CHGCAR
   VOSKOWN=      0    Vosko Wilk Nusair interpolation
   ROPT   =   -0.00050  -0.00050  -0.00050  -0.00050
   ROPT   =   -0.00050
 Ionic relaxation
   EDIFFG = -.1E-01   stopping-criterion for IOM
   NSW    =      0    number of steps for IOM
   NBLOCK =      1;   KBLOCK =      1    inner block; outer block 
   IBRION =     -1    ionic relax: 0-MD 1-quasi-New 2-CG
   NFREE  =      1    steps in history (QN), initial steepest desc. (CG)
   ISIF   =      2    stress and relaxation
   IWAVPR =     10    prediction:  0-non 1-charg 2-wave 3-comb
   ISYM   =      2    0-nonsym 1-usesym 2-fastsym
   LCORR  =      T    Harris-Foulkes like correction to forces

   POTIM  = 0.5000    time-step for ionic-motion
   TEIN   =    0.0    initial temperature
   TEBEG  =    0.0;   TEEND  =   0.0 temperature during run
   SMASS  =  -3.00    Nose mass-parameter (am)
   estimated Nose-frequenzy (Omega)   =  0.10E-29 period in steps = 0.13E+47 mass=  -0.177E-26a.u.
   SCALEE = 1.0000    scale energy and forces
   NPACO  =    256;   APACO  = 16.0  distance and # of slots for P.C.
   PSTRESS=    0.0 pullay stress

  Mass of Ions in am
   POMASS = 107.87 47.88 12.01 16.00  1.00
  Ionic Valenz
   ZVAL   =  11.00  4.00  4.00  6.00  1.00
  Atomic Wigner-Seitz radii
   RWIGS  =  -1.00 -1.00 -1.00 -1.00 -1.00
  virtual crystal weights 
   VCA    =   1.00  1.00  1.00  1.00  1.00
   NELECT =     400.0000    total number of electrons
   NUPDOWN=      -1.0000    fix difference up-down

 DOS related values:
   EMIN   =  10.00;   EMAX   =-10.00  energy-range for DOS
   EFERMI =   0.00
   ISMEAR =    -5;   SIGMA  =   0.10  broadening in eV -4-tet -1-fermi 0-gaus

 Electronic relaxation 2 (details)
   IALGO  =     68    algorithm
   LDIAG  =      T    sub-space diagonalisation (order eigenvalues)
   LSUBROT=      F    optimize rotation matrix (better conditioning)
   TURBO    =      0    0=normal 1=particle mesh
   IRESTART =      0    0=no restart 2=restart with 2 vectors
   NREBOOT  =      0    no. of reboots
   NMIN     =      0    reboot dimension
   EREF     =   0.00    reference energy to select bands
   IMIX   =      4    mixing-type and parameters
     AMIX     =   0.40;   BMIX     =  1.00
     AMIX_MAG =   1.60;   BMIX_MAG =  1.00
     AMIN     =   0.10
     WC   =   100.;   INIMIX=   1;  MIXPRE=   1;  MAXMIX= -45

 Intra band minimization:
   WEIMIN = 0.0000     energy-eigenvalue tresh-hold
   EBREAK =  0.99E-08  absolut break condition
   DEPER  =   0.30     relativ break condition  

   TIME   =   0.40     timestep for ELM

  volume/ion in A,a.u.               =      45.62       307.84
  Fermi-wavevector in a.u.,A,eV,Ry     =   0.995474  1.881173 13.482944  0.990968
  Thomas-Fermi vector in A             =   2.127496
 
 Write flags
   LWAVE        =      F    write WAVECAR
   LDOWNSAMPLE  =      F    k-point downsampling of WAVECAR
   LCHARG       =      F    write CHGCAR
   LVTOT        =      F    write LOCPOT, total local potential
   LVHAR        =      F    write LOCPOT, Hartree potential only
   LELF         =      F    write electronic localiz. function (ELF)
   LORBIT       =     10    0 simple, 1 ext, 2 COOP (PROOUT), +10 PAW based schemes


 Dipole corrections
   LMONO  =      F    monopole corrections only (constant potential shift)
   LDIPOL =      F    correct potential (dipole corrections)
   IDIPOL =      0    1-x, 2-y, 3-z, 4-all directions 
   EPSILON=  1.0000000 bulk dielectric constant

 Exchange correlation treatment:
   GGA     =    --    GGA type
   LEXCH   =     8    internal setting for exchange type
   VOSKOWN=      0    Vosko Wilk Nusair interpolation
   LHFCALC =     F    Hartree Fock is set to
   LHFONE  =     F    Hartree Fock one center treatment
   AEXX    =    0.0000 exact exchange contribution

 Linear response parameters
   LEPSILON=     F    determine dielectric tensor
   LRPA    =     F    only Hartree local field effects (RPA)
   LNABLA  =     F    use nabla operator in PAW spheres
   LVEL    =     F    velocity operator in full k-point grid
   LINTERFAST=   F  fast interpolation
   KINTER  =     0    interpolate to denser k-point grid
   CSHIFT  =0.1000    complex shift for real part using Kramers Kronig
   OMEGAMAX=  -1.0    maximum frequency
   DEG_THRESHOLD= 0.2000000E-02 threshold for treating states as degnerate
   RTIME   =   -0.100 relaxation time in fs
  (WPLASMAI=    0.000 imaginary part of plasma frequency in eV, 0.658/RTIME)
   DFIELD  = 0.0000000 0.0000000 0.0000000 field for delta impulse in time
 
 Orbital magnetization related:
   ORBITALMAG=     F  switch on orbital magnetization
   LCHIMAG   =     F  perturbation theory with respect to B field
   DQ        =  0.001000  dq finite difference perturbation B field
   LLRAUG    =     F  two centre corrections for induced B field



--------------------------------------------------------------------------------------------------------


 Static calculation
 charge density and potential remain constant during run
 non-spin polarized calculation
 RMM-DIIS sequential band-by-band and
  variant of blocked Davidson during initial phase
 perform sub-space diagonalisation
    before iterative eigenvector-optimisation
 no mixing
 using additional bands           52
 real space projection scheme for non local part
 use partial core corrections
 calculate Harris-corrections to forces 
   (improved forces if not selfconsistent)
 use gradient corrections 
 WARNING: stress and forces are not correct
  (second derivative of E(xc) not defined)
 use of overlap-Matrix (Vanderbilt PP)
 Fermi weights with tetrahedron method with Bloechl corrections


--------------------------------------------------------------------------------------------------------


  energy-cutoff  :      500.00
  volume of cell :     1779.08
      direct lattice vectors                 reciprocal lattice vectors
     8.791366577  0.000000000  0.000000000     0.113747958 -0.065672414  0.000000000
     4.395683289  7.613546790  0.000000000     0.000000000  0.131344829  0.000000000
     0.000000000  0.000000000 26.579777397     0.000000000  0.000000000  0.037622587

  length of vectors
     8.791366577  8.791366577 26.579777397     0.131344829  0.131344829  0.037622587


 
 k-points in units of 2pi/SCALE and weight: Automatic mesh                          
   0.00000000  0.00000000  0.00000000       0.016
   0.01421849 -0.00820905  0.00000000       0.094
   0.02843699 -0.01641810  0.00000000       0.094
   0.04265548 -0.02462716  0.00000000       0.094
   0.05687398 -0.03283621  0.00000000       0.047
   0.02843699 -0.00000000  0.00000000       0.094
   0.04265548 -0.00820905  0.00000000       0.188
   0.05687398 -0.01641810  0.00000000       0.188
   0.05687398 -0.00000000  0.00000000       0.094
  -0.04265548  0.05746336  0.00000000       0.094
 
 k-points in reciprocal lattice and weights: Automatic mesh                          
   0.00000000  0.00000000  0.00000000       0.016
   0.12500000 -0.00000000  0.00000000       0.094
   0.25000000 -0.00000000  0.00000000       0.094
   0.37500000 -0.00000000  0.00000000       0.094
   0.50000000 -0.00000000  0.00000000       0.047
   0.25000000  0.12500000  0.00000000       0.094
   0.37500000  0.12500000  0.00000000       0.188
   0.50000000  0.12500000  0.00000000       0.188
   0.50000000  0.25000000  0.00000000       0.094
  -0.37500000  0.25000000  0.00000000       0.094
 
 position of ions in fractional coordinates (direct lattice) 
   0.00000000  0.00000000  0.19872959
   0.33333331  0.00000000  0.19872959
   0.66666663  0.00000000  0.19872959
   0.00000000  0.33333334  0.19872959
   0.33333331  0.33333334  0.19872959
   0.66666669  0.33333334  0.19872959
   0.00000000  0.66666669  0.19872959
   0.33333331  0.66666669  0.19872959
   0.66666663  0.66666669  0.19872959
   0.11111110  0.11111111  0.28874942
   0.44444445  0.11111111  0.28874942
   0.77777779  0.11111111  0.28874942
   0.11111110  0.44444445  0.28874942
   0.44444442  0.44444445  0.28874942
   0.77777779  0.44444445  0.28874942
   0.11111110  0.77777779  0.28874942
   0.44444445  0.77777779  0.28874942
   0.77777779  0.77777779  0.28874942
   0.88896535  0.22206932  0.37816139
   0.22260892  0.22260894  0.37776669
   0.55478210  0.22260894  0.37776669
   0.88854909  0.55572549  0.37838730
   0.22260894  0.55478216  0.37776669
   0.55572549  0.55572549  0.37838730
   0.88896535  0.88896535  0.37816139
   0.22206929  0.88896535  0.37816139
   0.55572543  0.88854909  0.37838730
   0.00000000  0.00000000  0.46780428
   0.33363046  0.00387176  0.46874629
   0.66249772  0.00387176  0.46874629
   0.00387176  0.33363049  0.46874629
   0.66249778  0.33363049  0.46874629
   0.00387176  0.66249778  0.46874629
   0.33363046  0.66249778  0.46874629
   0.66666663  0.66666669  0.46856227
   0.33333331  0.33333334  0.46284421
   0.33333331  0.33333334  0.53346130
   0.33333331  0.33333334  0.58142971
   0.33333331  0.33333334  0.61737163
 
 position of ions in cartesian coordinates  (Angst):
   0.00000000  0.00000000  5.28218814
   2.93045535  0.00000000  5.28218814
   5.86091070  0.00000000  5.28218814
   1.46522781  2.53784900  5.28218814
   4.39568315  2.53784900  5.28218814
   7.32613904  2.53784900  5.28218814
   2.93045562  5.07569801  5.28218814
   5.86091096  5.07569801  5.28218814
   8.79136632  5.07569801  5.28218814
   1.46522770  0.84594965  7.67489535
   4.39568332  0.84594965  7.67489535
   7.32613893  0.84594965  7.67489535
   2.93045542  3.38379860  7.67489535
   5.86091083  3.38379860  7.67489535
   8.79136671  3.38379860  7.67489535
   4.39568328  5.92164760  7.67489535
   7.32613890  5.92164760  7.67489535
  10.25659451  5.92164760  7.67489535
   8.79136665  1.69073515 10.05144549
   2.93555502  1.69484356 10.04095455
   5.85581116  1.69484356 10.04095455
  10.25435399  4.23104199 10.05745020
   4.39568342  4.22385991 10.04095455
   7.32837969  4.23104199 10.05745020
  11.72283038  6.76817927 10.05144549
   5.85990265  6.76817927 10.05144549
   8.79136631  6.76501006 10.05745020
   0.00000000  0.00000000 12.43413371
   2.95008670  0.02947782 12.45917197
   5.84127935  0.02947782 12.45917197
   1.50057202  2.54011134 12.45917197
   7.29079482  2.54011134 12.45917197
   2.94616848  5.04395785 12.45917197
   5.84519810  5.04395785 12.45917197
   8.79136632  5.07569801 12.45428096
   4.39568315  2.53784900 12.30229615
   4.39568315  2.53784900 14.17928263
   4.39568315  2.53784900 15.45427235
   4.39568315  2.53784900 16.40960059
 


--------------------------------------------------------------------------------------------------------


 k-point   1 :   0.0000 0.0000 0.0000  plane waves:   44983
 k-point   2 :   0.1250-0.0000 0.0000  plane waves:   45042
 k-point   3 :   0.2500-0.0000 0.0000  plane waves:   45130
 k-point   4 :   0.3750-0.0000 0.0000  plane waves:   45154
 k-point   5 :   0.5000-0.0000 0.0000  plane waves:   45200
 k-point   6 :   0.2500 0.1250 0.0000  plane waves:   45136
 k-point   7 :   0.3750 0.1250 0.0000  plane waves:   45202
 k-point   8 :   0.5000 0.1250 0.0000  plane waves:   45204
 k-point   9 :   0.5000 0.2500 0.0000  plane waves:   45196
 k-point  10 :  -0.3750 0.2500 0.0000  plane waves:   45180

 maximum and minimum number of plane-waves per node :     45204    44983

 maximum number of plane-waves:     45204
 maximum index in each direction: 
   IXMAX=   16   IYMAX=   16   IZMAX=   48
   IXMIN=  -16   IYMIN=  -16   IZMIN=  -48


 serial   3D FFT for wavefunctions
 parallel 3D FFT for charge:
    minimum data exchange during FFTs selected (reduces bandwidth)


 total amount of memory used by VASP MPI-rank0   140464. kBytes
=======================================================================

   base      :      30000. kBytes
   nonlr-proj:      15498. kBytes
   fftplans  :       5150. kBytes
   grid      :      23126. kBytes
   one-center:        606. kBytes
   wavefun   :      66084. kBytes
 
     INWAV:  cpu time    0.0000: real time    0.0000
 initial charge density was supplied:
 number of electron     400.0000351 magnetization 
 keeping initial charge density in first step


--------------------------------------------------------------------------------------------------------


 Maximum index for non-local projection operator         3018
 Maximum index for augmentation-charges          702 (set IRDMAX)


--------------------------------------------------------------------------------------------------------


 First call to EWALD:  gamma=   0.146
 Maximum number of real-space cells 4x 4x 2
 Maximum number of reciprocal cells 2x 2x 5

    FEWALD:  cpu time    0.0013: real time    0.0013


--------------------------------------- Iteration      1(   1)  ---------------------------------------


    POTLOK:  cpu time    0.0539: real time    0.0542
    SETDIJ:  cpu time    0.0049: real time    0.0050
     EDDAV:  cpu time    8.3214: real time    8.3230
 BZINTS: Fermi energy:    8.835905;  400.000000 electrons
         Band energy: 0.966191E+03;  BLOECHL correction:   -0.023032
       DOS:  cpu time    0.0100: real time    0.0101
    --------------------------------------------
      LOOP:  cpu time    8.3902: real time    8.3924

 eigenvalue-minimisations  :  5040
 total energy-change (2. order) : 0.2419838E+04  (-0.1773375E+05)
 number of electron     400.0000351 magnetization 
 augmentation part      400.0000351 magnetization 

 Free energy of the ion-electron system (eV)
  ---------------------------------------------------
  alpha Z        PSCENC =       638.67339644
  Ewald energy   TEWEN  =    160128.60053101
  -Hartree energ DENC   =   -197495.39822630
  -exchange      EXHF   =         0.00000000
  -V(xc)+E(xc)   XCENC  =      -381.74291967
  PAW double counting   =     39404.50825616   -37831.95846031
  entropy T*S    EENTRO =         0.00000000
  eigenvalues    EBANDS =       966.19055960
  atomic energy  EATOM  =     36990.96475648
  Solvation  Ediel_sol  =         0.00000000
  ---------------------------------------------------
  free energy    TOTEN  =      2419.83789341 eV

  energy without entropy =     2419.83789341  energy(sigma->0) =     2419.83789341


--------------------------------------------------------------------------------------------------------




--------------------------------------- Iteration      1(   2)  ---------------------------------------


     EDDAV:  cpu time    8.6723: real time    8.6729
 BZINTS: Fermi energy:    1.056707;  400.000000 electrons
         Band energy:-0.145720E+04;  BLOECHL correction:   -0.026338
       DOS:  cpu time    0.0091: real time    0.0091
    --------------------------------------------
      LOOP:  cpu time    8.6814: real time    8.6820

 eigenvalue-minimisations  :  5320
 total energy-change (2. order) :-0.2423395E+04  (-0.2286224E+04)
 number of electron     400.0000351 magnetization 
 augmentation part      400.0000351 magnetization 

 Free energy of the ion-electron system (eV)
  ---------------------------------------------------
  alpha Z        PSCENC =       638.67339644
  Ewald energy   TEWEN  =    160128.60053101
  -Hartree energ DENC   =   -197495.39822630
  -exchange      EXHF   =         0.00000000
  -V(xc)+E(xc)   XCENC  =      -381.74291967
  PAW double counting   =     39404.50825616   -37831.95846031
  entropy T*S    EENTRO =         0.00000000
  eigenvalues    EBANDS =     -1457.20394426
  atomic energy  EATOM  =     36990.96475648
  Solvation  Ediel_sol  =         0.00000000
  ---------------------------------------------------
  free energy    TOTEN  =        -3.55661045 eV

  energy without entropy =       -3.55661045  energy(sigma->0) =       -3.55661045


--------------------------------------------------------------------------------------------------------




--------------------------------------- Iteration      1(   3)  ---------------------------------------


     EDDAV:  cpu time    9.4229: real time    9.4234
 BZINTS: Fermi energy:    0.396018;  400.000000 electrons
         Band energy:-0.156475E+04;  BLOECHL correction:   -0.034121
       DOS:  cpu time    0.0096: real time    0.0096
    --------------------------------------------
      LOOP:  cpu time    9.4325: real time    9.4330

 eigenvalue-minimisations  :  5880
 total energy-change (2. order) :-0.1075471E+03  (-0.1052624E+03)
 number of electron     400.0000351 magnetization 
 augmentation part      400.0000351 magnetization 

 Free energy of the ion-electron system (eV)
  ---------------------------------------------------
  alpha Z        PSCENC =       638.67339644
  Ewald energy   TEWEN  =    160128.60053101
  -Hartree energ DENC   =   -197495.39822630
  -exchange      EXHF   =         0.00000000
  -V(xc)+E(xc)   XCENC  =      -381.74291967
  PAW double counting   =     39404.50825616   -37831.95846031
  entropy T*S    EENTRO =         0.00000000
  eigenvalues    EBANDS =     -1564.75105395
  atomic energy  EATOM  =     36990.96475648
  Solvation  Ediel_sol  =         0.00000000
  ---------------------------------------------------
  free energy    TOTEN  =      -111.10372014 eV

  energy without entropy =     -111.10372014  energy(sigma->0) =     -111.10372014


--------------------------------------------------------------------------------------------------------




--------------------------------------- Iteration      1(   4)  ---------------------------------------


     EDDAV:  cpu time    9.0309: real time    9.0314
 BZINTS: Fermi energy:    0.371982;  400.015016 electrons
         Band energy:-0.156690E+04;  BLOECHL correction:   -0.037576
 WARNING: Fermi level nearly degenerate with energies of tetrahedron. This may
     result in numerical instabilities because the density changes by tiny
     changes of the Fermi energy. If the calculation converges, the total
     energy will still be reliable. If you notice convergence issues, you can
     try to
     *) Use a Gamma centered k-point grid
     *) Use tetrahedron method without corrections ISMEAR = -4
     *) Don't use tetrahedron method
        ISMEAR = 0 for semiconductors, 1 or 2 for metals

       DOS:  cpu time    0.0081: real time    0.0082
    --------------------------------------------
      LOOP:  cpu time    9.0391: real time    9.0396

 eigenvalue-minimisations  :  5600
 total energy-change (2. order) :-0.2154186E+01  (-0.2139135E+01)
 number of electron     400.0000351 magnetization 
 augmentation part      400.0000351 magnetization 

 Free energy of the ion-electron system (eV)
  ---------------------------------------------------
  alpha Z        PSCENC =       638.67339644
  Ewald energy   TEWEN  =    160128.60053101
  -Hartree energ DENC   =   -197495.39822630
  -exchange      EXHF   =         0.00000000
  -V(xc)+E(xc)   XCENC  =      -381.74291967
  PAW double counting   =     39404.50825616   -37831.95846031
  entropy T*S    EENTRO =         0.00000000
  eigenvalues    EBANDS =     -1566.90523983
  atomic energy  EATOM  =     36990.96475648
  Solvation  Ediel_sol  =         0.00000000
  ---------------------------------------------------
  free energy    TOTEN  =      -113.25790602 eV

  energy without entropy =     -113.25790602  energy(sigma->0) =     -113.25790602


--------------------------------------------------------------------------------------------------------




--------------------------------------- Iteration      1(   5)  ---------------------------------------


     EDDAV:  cpu time    9.6826: real time    9.6830
 BZINTS: Fermi energy:    0.371668;  400.014092 electrons
         Band energy:-0.156695E+04;  BLOECHL correction:   -0.037597
 WARNING: Fermi level nearly degenerate with energies of tetrahedron. This may
     result in numerical instabilities because the density changes by tiny
     changes of the Fermi energy. If the calculation converges, the total
     energy will still be reliable. If you notice convergence issues, you can
     try to
     *) Use a Gamma centered k-point grid
     *) Use tetrahedron method without corrections ISMEAR = -4
     *) Don't use tetrahedron method
        ISMEAR = 0 for semiconductors, 1 or 2 for metals

       DOS:  cpu time    0.0073: real time    0.0073
    --------------------------------------------
      LOOP:  cpu time    9.6899: real time    9.6903

 eigenvalue-minimisations  :  6076
 total energy-change (2. order) :-0.4508740E-01  (-0.4509013E-01)
 number of electron     400.0000351 magnetization 
 augmentation part      400.0000351 magnetization 

 Free energy of the ion-electron system (eV)
  ---------------------------------------------------
  alpha Z        PSCENC =       638.67339644
  Ewald energy   TEWEN  =    160128.60053101
  -Hartree energ DENC   =   -197495.39822630
  -exchange      EXHF   =         0.00000000
  -V(xc)+E(xc)   XCENC  =      -381.74291967
  PAW double counting   =     39404.50825616   -37831.95846031
  entropy T*S    EENTRO =         0.00000000
  eigenvalues    EBANDS =     -1566.95032723
  atomic energy  EATOM  =     36990.96475648
  Solvation  Ediel_sol  =         0.00000000
  ---------------------------------------------------
  free energy    TOTEN  =      -113.30299342 eV

  energy without entropy =     -113.30299342  energy(sigma->0) =     -113.30299342


--------------------------------------------------------------------------------------------------------




--------------------------------------- Iteration      1(   6)  ---------------------------------------


    EDDIAG:  cpu time    1.6412: real time    1.6447
  RMM-DIIS:  cpu time    4.7738: real time    4.7740
    ORTHCH:  cpu time    0.3032: real time    0.3032
 BZINTS: Fermi energy:    0.371667;  400.014093 electrons
         Band energy:-0.156695E+04;  BLOECHL correction:   -0.037598
 WARNING: Fermi level nearly degenerate with energies of tetrahedron. This may
     result in numerical instabilities because the density changes by tiny
     changes of the Fermi energy. If the calculation converges, the total
     energy will still be reliable. If you notice convergence issues, you can
     try to
     *) Use a Gamma centered k-point grid
     *) Use tetrahedron method without corrections ISMEAR = -4
     *) Don't use tetrahedron method
        ISMEAR = 0 for semiconductors, 1 or 2 for metals

       DOS:  cpu time    0.0084: real time    0.0083
    --------------------------------------------
      LOOP:  cpu time    6.7265: real time    6.7303

 eigenvalue-minimisations  :  5103
 total energy-change (2. order) :-0.1050216E-02  (-0.1050213E-02)
 number of electron     400.0000351 magnetization 
 augmentation part      400.0000351 magnetization 

 Free energy of the ion-electron system (eV)
  ---------------------------------------------------
  alpha Z        PSCENC =       638.67339644
  Ewald energy   TEWEN  =    160128.60053101
  -Hartree energ DENC   =   -197495.39822630
  -exchange      EXHF   =         0.00000000
  -V(xc)+E(xc)   XCENC  =      -381.74291967
  PAW double counting   =     39404.50825616   -37831.95846031
  entropy T*S    EENTRO =         0.00000000
  eigenvalues    EBANDS =     -1566.95137745
  atomic energy  EATOM  =     36990.96475648
  Solvation  Ediel_sol  =         0.00000000
  ---------------------------------------------------
  free energy    TOTEN  =      -113.30404364 eV

  energy without entropy =     -113.30404364  energy(sigma->0) =     -113.30404364


--------------------------------------------------------------------------------------------------------




--------------------------------------- Iteration      1(   7)  ---------------------------------------


    EDDIAG:  cpu time    1.6425: real time    1.6426
  RMM-DIIS:  cpu time    6.9589: real time    6.9593
    ORTHCH:  cpu time    0.3004: real time    0.3004
 BZINTS: Fermi energy:    0.371667;  400.014096 electrons
         Band energy:-0.156695E+04;  BLOECHL correction:   -0.037598
 WARNING: Fermi level nearly degenerate with energies of tetrahedron. This may
     result in numerical instabilities because the density changes by tiny
     changes of the Fermi energy. If the calculation converges, the total
     energy will still be reliable. If you notice convergence issues, you can
     try to
     *) Use a Gamma centered k-point grid
     *) Use tetrahedron method without corrections ISMEAR = -4
     *) Don't use tetrahedron method
        ISMEAR = 0 for semiconductors, 1 or 2 for metals

       DOS:  cpu time    0.0079: real time    0.0079
    --------------------------------------------
      LOOP:  cpu time    8.9096: real time    8.9101

 eigenvalue-minimisations  :  7469
 total energy-change (2. order) :-0.3692779E-03  (-0.3682120E-03)
 number of electron     400.0000351 magnetization 
 augmentation part      400.0000351 magnetization 

 Free energy of the ion-electron system (eV)
  ---------------------------------------------------
  alpha Z        PSCENC =       638.67339644
  Ewald energy   TEWEN  =    160128.60053101
  -Hartree energ DENC   =   -197495.39822630
  -exchange      EXHF   =         0.00000000
  -V(xc)+E(xc)   XCENC  =      -381.74291967
  PAW double counting   =     39404.50825616   -37831.95846031
  entropy T*S    EENTRO =         0.00000000
  eigenvalues    EBANDS =     -1566.95174673
  atomic energy  EATOM  =     36990.96475648
  Solvation  Ediel_sol  =         0.00000000
  ---------------------------------------------------
  free energy    TOTEN  =      -113.30441291 eV

  energy without entropy =     -113.30441291  energy(sigma->0) =     -113.30441291


--------------------------------------------------------------------------------------------------------




--------------------------------------- Iteration      1(   8)  ---------------------------------------


    EDDIAG:  cpu time    1.6437: real time    1.6438
  RMM-DIIS:  cpu time    5.2079: real time    5.2082
    ORTHCH:  cpu time    0.3001: real time    0.3001
 BZINTS: Fermi energy:    0.371666;  399.982845 electrons
         Band energy:-0.156696E+04;  BLOECHL correction:   -0.039952
 WARNING: Fermi level nearly degenerate with energies of tetrahedron. This may
     result in numerical instabilities because the density changes by tiny
     changes of the Fermi energy. If the calculation converges, the total
     energy will still be reliable. If you notice convergence issues, you can
     try to
     *) Use a Gamma centered k-point grid
     *) Use tetrahedron method without corrections ISMEAR = -4
     *) Don't use tetrahedron method
        ISMEAR = 0 for semiconductors, 1 or 2 for metals

       DOS:  cpu time    0.0081: real time    0.0081
    --------------------------------------------
      LOOP:  cpu time    7.1598: real time    7.1602

 eigenvalue-minimisations  :  5238
 total energy-change (2. order) :-0.2372712E-02  (-0.1919508E-04)
 number of electron     400.0000351 magnetization 
 augmentation part      400.0000351 magnetization 

 Free energy of the ion-electron system (eV)
  ---------------------------------------------------
  alpha Z        PSCENC =       638.67339644
  Ewald energy   TEWEN  =    160128.60053101
  -Hartree energ DENC   =   -197495.39822630
  -exchange      EXHF   =         0.00000000
  -V(xc)+E(xc)   XCENC  =      -381.74291967
  PAW double counting   =     39404.50825616   -37831.95846031
  entropy T*S    EENTRO =         0.00000000
  eigenvalues    EBANDS =     -1566.95411944
  atomic energy  EATOM  =     36990.96475648
  Solvation  Ediel_sol  =         0.00000000
  ---------------------------------------------------
  free energy    TOTEN  =      -113.30678563 eV

  energy without entropy =     -113.30678563  energy(sigma->0) =     -113.30678563


--------------------------------------------------------------------------------------------------------




--------------------------------------- Iteration      1(   9)  ---------------------------------------


    EDDIAG:  cpu time    1.6446: real time    1.6448
  RMM-DIIS:  cpu time    4.1716: real time    4.1718
    ORTHCH:  cpu time    0.3003: real time    0.3003
 BZINTS: Fermi energy:    0.371666;  399.982845 electrons
         Band energy:-0.156696E+04;  BLOECHL correction:   -0.039952
 WARNING: Fermi level nearly degenerate with energies of tetrahedron. This may
     result in numerical instabilities because the density changes by tiny
     changes of the Fermi energy. If the calculation converges, the total
     energy will still be reliable. If you notice convergence issues, you can
     try to
     *) Use a Gamma centered k-point grid
     *) Use tetrahedron method without corrections ISMEAR = -4
     *) Don't use tetrahedron method
        ISMEAR = 0 for semiconductors, 1 or 2 for metals

       DOS:  cpu time    0.0081: real time    0.0081
    --------------------------------------------
      LOOP:  cpu time    6.1246: real time    6.1251

 eigenvalue-minimisations  :  3559
 total energy-change (2. order) :-0.3816123E-05  (-0.4078394E-05)
 number of electron     400.0000351 magnetization 
 augmentation part      400.0000351 magnetization 

 Free energy of the ion-electron system (eV)
  ---------------------------------------------------
  alpha Z        PSCENC =       638.67339644
  Ewald energy   TEWEN  =    160128.60053101
  -Hartree energ DENC   =   -197495.39822630
  -exchange      EXHF   =         0.00000000
  -V(xc)+E(xc)   XCENC  =      -381.74291967
  PAW double counting   =     39404.50825616   -37831.95846031
  entropy T*S    EENTRO =         0.00000000
  eigenvalues    EBANDS =     -1566.95412325
  atomic energy  EATOM  =     36990.96475648
  Solvation  Ediel_sol  =         0.00000000
  ---------------------------------------------------
  free energy    TOTEN  =      -113.30678944 eV

  energy without entropy =     -113.30678944  energy(sigma->0) =     -113.30678944


--------------------------------------------------------------------------------------------------------




 average (electrostatic) potential at core
  the test charge radii are     1.1249  1.2598  0.6991  0.7215  0.5201
  (the norm of the test charge is              1.0000)
       1 -78.5484       2 -78.5391       3 -78.5390       4 -78.5391       5 -78.5233
       6 -78.5388       7 -78.5390       8 -78.5388       9 -78.5475      10 -78.7850
      11 -78.7719      12 -78.7849      13 -78.7719      14 -78.7717      15 -78.7692
      16 -78.7849      17 -78.7692      18 -78.7693      19 -78.7671      20 -78.9461
      21 -78.9461      22 -78.7426      23 -78.9461      24 -78.7427      25 -78.7671
      26 -78.7671      27 -78.7426      28 -78.5591      29 -78.5905      30 -78.5906
      31 -78.5905      32 -78.5905      33 -78.5906      34 -78.5905      35 -78.5376
      36 -29.5281      37 -56.0632      38 -78.3663      39 -42.9752
 
 
 
 E-fermi :   0.3717     XC(G=0):  -5.0799     alpha+bet : -4.7364

 Fermi energy:         0.3716663768

 k-point     1 :       0.0000    0.0000    0.0000
  band No.  band energies     occupation 
      1     -23.3475      2.00000
      2     -14.1017      2.00000
      3      -6.8155      2.00000
      4      -6.1812      2.00000
      5      -6.1163      2.00000
      6      -6.1162      2.00000
      7      -5.8382      2.00000
      8      -5.5996      2.00000
      9      -5.5133      2.00000
     10      -5.5133      2.00000
     11      -5.5119      2.00000
     12      -5.5051      2.00000
     13      -5.5051      2.00000
     14      -5.4994      2.00000
     15      -5.4835      2.00000
     16      -5.4651      2.00000
     17      -5.4651      2.00000
     18      -5.4585      2.00000
     19      -5.4511      2.00000
     20      -5.4510      2.00000
     21      -5.3698      2.00000
     22      -5.3079      2.00000
     23      -5.3079      2.00000
     24      -5.3004      2.00000
     25      -5.2853      2.00000
     26      -5.2836      2.00000
     27      -5.2836      2.00000
     28      -5.1251      2.00000
     29      -5.1068      2.00000
     30      -5.1068      2.00000
     31      -5.0846      2.00000
     32      -5.0769      2.00000
     33      -5.0706      2.00000
     34      -5.0705      2.00000
     35      -5.0684      2.00000
     36      -5.0519      2.00000
     37      -5.0518      2.00000
     38      -5.0410      2.00000
     39      -5.0410      2.00000
     40      -4.9698      2.00000
     41      -4.9572      2.00000
     42      -4.9572      2.00000
     43      -4.8493      2.00000
     44      -4.8441      2.00000
     45      -4.8441      2.00000
     46      -4.7213      2.00000
     47      -4.7213      2.00000
     48      -4.7060      2.00000
     49      -4.7060      2.00000
     50      -4.7013      2.00000
     51      -4.6923      2.00000
     52      -4.6923      2.00000
     53      -4.6787      2.00000
     54      -4.6625      2.00000
     55      -4.6625      2.00000
     56      -4.5517      2.00000
     57      -4.5506      2.00000
     58      -4.5237      2.00000
     59      -4.5210      2.00000
     60      -4.3466      2.00000
     61      -4.3372      2.00000
     62      -4.3372      2.00000
     63      -4.3212      2.00000
     64      -4.3212      2.00000
     65      -4.3147      2.00000
[...]
  0.000   0.000   0.000   0.000   0.000   0.000   0.000   0.000   0.000   0.000   0.000   0.000   0.000   0.000   0.000   0.000
  0.000   0.000   0.000   0.000   0.000   0.000   0.000   0.000   0.000   0.000   0.000   0.000   0.000   0.000   0.000   0.000
  0.000   0.000   0.000   0.000   0.000   0.000   0.000   0.000   0.000   0.000   0.000   0.000   0.000   0.000   0.000   0.000
  0.000   0.000   0.000   0.000   0.000   0.000   0.000   0.000   0.000   0.000   0.000   0.000   0.000   0.000   0.000   0.000


------------------------ aborting loop because EDIFF is reached ----------------------------------------





 total charge

# of ion       s       p       d       tot
------------------------------------------
    1        0.418   0.202   9.178   9.798
    2        0.415   0.204   9.177   9.796
    3        0.415   0.204   9.177   9.796
    4        0.415   0.204   9.177   9.796
    5        0.423   0.202   9.174   9.799
    6        0.415   0.204   9.177   9.796
    7        0.415   0.204   9.177   9.796
    8        0.415   0.204   9.177   9.796
    9        0.415   0.203   9.178   9.796
   10        0.408   0.270   9.163   9.841
   11        0.409   0.267   9.167   9.843
   12        0.408   0.270   9.163   9.841
   13        0.409   0.267   9.167   9.843
   14        0.409   0.267   9.167   9.843
   15        0.404   0.270   9.163   9.837
   16        0.408   0.270   9.163   9.841
   17        0.404   0.270   9.163   9.837
   18        0.404   0.270   9.163   9.837
   19        0.403   0.268   9.164   9.835
   20        0.434   0.290   9.142   9.866
   21        0.434   0.290   9.142   9.866
   22        0.397   0.274   9.165   9.835
   23        0.434   0.290   9.142   9.866
   24        0.397   0.274   9.165   9.835
   25        0.403   0.268   9.164   9.835
   26        0.403   0.268   9.164   9.835
   27        0.397   0.274   9.165   9.835
   28        0.410   0.201   9.178   9.789
   29        0.432   0.211   9.162   9.805
   30        0.432   0.211   9.162   9.805
   31        0.432   0.211   9.162   9.805
   32        0.432   0.211   9.162   9.805
   33        0.432   0.211   9.162   9.805
   34        0.432   0.211   9.162   9.805
   35        0.412   0.200   9.178   9.790
   36        0.467   0.624   2.537   3.628
   37        0.936   1.392   0.000   2.329
   38        1.521   3.756   0.000   5.278
   39        0.570   0.139   0.000   0.709
--------------------------------------------------
tot         18.020  14.326 323.347 355.693
 
    CHARGE:  cpu time    0.4334: real time    0.4337
    FORLOC:  cpu time    0.0141: real time    0.0141
    FORNL :  cpu time    1.7515: real time    1.7517
    STRESS:  cpu time    5.2511: real time    5.2516
    FORCOR:  cpu time    0.0540: real time    0.0541
    FORHAR:  cpu time    0.0222: real time    0.0223
    OFIELD:  cpu time    0.0003: real time    0.0003

  FORCE on cell =-STRESS in cart. coord.  units (eV):
  Direction    XX          YY          ZZ          XY          YZ          ZX
  --------------------------------------------------------------------------------------
  Alpha Z   638.67340   638.67340   638.67340
  Ewald  182388.76019182388.76012************     0.00001    -0.00001     0.00004
  Hartree192401.87123192401.87120************     0.00000    -0.00000     0.00001
  E(xc)   -2091.45651 -2091.45662 -2097.82658     0.00010    -0.00000    -0.00000
  Local  ************************385540.80883     0.00067    -0.00006    -0.00018
  n-local  -352.65387  -337.01721  -350.19889     9.50626    -0.43436     0.48721
  augment  3231.95299  3231.95322  3243.40462    -0.00020    -0.00002    -0.00004
  Kinetic  5002.54717  5002.90119  4981.33738     3.64054     0.89042    -0.26309
  Fock        0.00000     0.00000     0.00000     0.00000     0.00000     0.00000
  -------------------------------------------------------------------------------------
  Total      -8.43145    -8.43145     0.70296    -0.00000     0.00000    -0.00000
  in kB      -7.59308    -7.59308     0.63306    -0.00000     0.00000    -0.00000
  external pressure =       -4.85 kB  Pullay stress =        0.00 kB


 VOLUME and BASIS-vectors are now :
 -----------------------------------------------------------------------------
  energy-cutoff  :      500.00
  volume of cell :     1779.08
      direct lattice vectors                 reciprocal lattice vectors
     8.791366577  0.000000000  0.000000000     0.113747958 -0.065672414  0.000000000
     4.395683289  7.613546790  0.000000000     0.000000000  0.131344829  0.000000000
     0.000000000  0.000000000 26.579777397     0.000000000  0.000000000  0.037622587

  length of vectors
     8.791366577  8.791366577 26.579777397     0.131344829  0.131344829  0.037622587


 FORCES acting on ions
    electron-ion (+dipol)            ewald-force                    non-local-force                 convergence-correction
 -----------------------------------------------------------------------------------------------
   0.456E-04 -.284E-04 0.282E+04   -.953E-04 0.593E-04 -.281E+04   0.151E-17 0.224E-17 -.191E+01   -.835E-04 -.155E-03 -.792E-01
   -.320E+00 -.317E+00 0.281E+04   0.210E+00 0.193E+00 -.281E+04   0.101E+00 0.170E+00 -.154E+01   0.100E-01 -.437E-01 -.811E-02
   0.320E+00 -.317E+00 0.281E+04   -.210E+00 0.193E+00 -.281E+04   -.101E+00 0.170E+00 -.154E+01   -.106E-01 -.418E-01 -.745E-02
   -.434E+00 -.119E+00 0.281E+04   0.272E+00 0.859E-01 -.281E+04   0.198E+00 0.272E-02 -.154E+01   -.326E-01 0.307E-01 -.810E-02
   -.411E-05 -.179E-04 0.281E+04   0.981E-04 -.200E-05 -.281E+04   -.376E-17 -.656E-18 -.100E+01   0.618E-02 0.378E-02 0.187E+00
   0.434E+00 -.119E+00 0.281E+04   -.272E+00 0.858E-01 -.281E+04   -.198E+00 0.272E-02 -.154E+01   0.313E-01 0.316E-01 -.738E-02
   -.114E+00 0.436E+00 0.281E+04   0.616E-01 -.279E+00 -.281E+04   0.965E-01 -.173E+00 -.154E+01   -.411E-01 0.123E-01 -.744E-02
   0.114E+00 0.436E+00 0.281E+04   -.617E-01 -.279E+00 -.281E+04   -.965E-01 -.173E+00 -.154E+01   0.427E-01 0.113E-01 -.737E-02
   0.374E-04 -.125E-04 0.281E+04   0.791E-04 -.642E-04 -.281E+04   -.131E-18 0.303E-17 -.180E+01   -.663E-02 -.341E-02 -.399E-01
   -.154E+01 -.891E+00 0.952E+03   0.171E+01 0.990E+00 -.952E+03   -.219E+00 -.126E+00 -.657E+00   0.221E-01 0.128E-01 0.214E+00
   -.284E-04 -.164E+01 0.948E+03   0.406E-04 0.158E+01 -.948E+03   0.607E-12 0.925E-01 -.249E+00   0.612E-02 -.464E-01 0.188E+00
   0.154E+01 -.891E+00 0.952E+03   -.171E+01 0.990E+00 -.952E+03   0.219E+00 -.126E+00 -.657E+00   -.235E-01 0.134E-01 0.214E+00
   -.142E+01 0.818E+00 0.948E+03   0.137E+01 -.789E+00 -.948E+03   0.801E-01 -.462E-01 -.249E+00   -.372E-01 0.285E-01 0.188E+00
   0.142E+01 0.818E+00 0.948E+03   -.137E+01 -.789E+00 -.948E+03   -.801E-01 -.462E-01 -.249E+00   0.474E-01 0.276E-01 0.187E+00
   0.145E-04 -.174E+00 0.952E+03   -.107E-03 0.499E-01 -.952E+03   0.481E-12 0.732E-01 -.769E+00   -.132E-02 0.327E-01 0.163E+00
   -.700E-05 0.178E+01 0.952E+03   0.207E-04 -.198E+01 -.952E+03   0.166E-11 0.253E+00 -.657E+00   -.141E-03 -.271E-01 0.214E+00
   -.151E+00 0.869E-01 0.952E+03   0.432E-01 -.250E-01 -.952E+03   0.634E-01 -.366E-01 -.769E+00   0.276E-01 -.175E-01 0.163E+00
   0.151E+00 0.869E-01 0.952E+03   -.433E-01 -.249E-01 -.952E+03   -.634E-01 -.366E-01 -.769E+00   -.276E-01 -.159E-01 0.164E+00
   0.385E-04 -.520E+01 -.918E+03   -.125E-03 0.525E+01 0.917E+03   0.438E-12 0.667E-01 0.833E+00   0.564E-02 -.694E-01 0.133E+00
   -.301E+02 -.174E+02 -.949E+03   0.311E+02 0.180E+02 0.949E+03   -.939E+00 -.542E+00 -.721E+00   -.142E+00 -.820E-01 0.468E-01
   0.301E+02 -.174E+02 -.949E+03   -.311E+02 0.180E+02 0.949E+03   0.939E+00 -.542E+00 -.721E+00   0.140E+00 -.825E-01 0.461E-01
   -.128E+02 0.742E+01 -.921E+03   0.127E+02 -.733E+01 0.920E+03   0.152E+00 -.877E-01 0.343E+00   0.114E-01 -.902E-03 0.780E-01
   -.514E-04 0.348E+02 -.949E+03   0.358E-04 -.359E+02 0.949E+03   0.712E-11 0.108E+01 -.721E+00   -.979E-03 0.163E+00 0.461E-01
   0.128E+02 0.742E+01 -.921E+03   -.127E+02 -.733E+01 0.920E+03   -.152E+00 -.877E-01 0.343E+00   -.631E-03 -.267E-03 0.781E-01
   0.451E+01 0.260E+01 -.918E+03   -.454E+01 -.262E+01 0.917E+03   -.578E-01 -.334E-01 0.833E+00   0.669E-01 0.385E-01 0.133E+00
   -.451E+01 0.260E+01 -.918E+03   0.454E+01 -.262E+01 0.917E+03   0.578E-01 -.334E-01 0.833E+00   -.576E-01 0.395E-01 0.133E+00
   0.186E-04 -.148E+02 -.921E+03   0.110E-03 0.147E+02 0.920E+03   0.115E-11 0.175E+00 0.343E+00   0.424E-02 0.103E-01 0.781E-01
   0.537E-04 -.364E-04 -.272E+04   -.115E-03 0.772E-04 0.272E+04   -.431E-17 0.176E-17 0.184E+01   0.207E-03 -.157E-04 0.159E+00
   -.791E+01 -.197E+02 -.271E+04   0.850E+01 0.208E+02 0.270E+04   -.614E+00 -.102E+01 0.150E+01   0.750E-03 -.196E-01 0.120E+00
   0.791E+01 -.197E+02 -.271E+04   -.850E+01 0.208E+02 0.270E+04   0.614E+00 -.102E+01 0.150E+01   -.170E-02 -.187E-01 0.121E+00
   -.210E+02 0.301E+01 -.271E+04   0.222E+02 -.302E+01 0.270E+04   -.119E+01 -.206E-01 0.150E+01   -.164E-01 0.106E-01 0.120E+00
   0.210E+02 0.301E+01 -.271E+04   -.222E+02 -.302E+01 0.270E+04   0.119E+01 -.206E-01 0.150E+01   0.163E-01 0.116E-01 0.121E+00
   -.131E+02 0.167E+02 -.271E+04   0.137E+02 -.177E+02 0.270E+04   -.579E+00 0.104E+01 0.150E+01   -.166E-01 0.843E-02 0.121E+00
   0.131E+02 0.167E+02 -.271E+04   -.137E+02 -.177E+02 0.270E+04   0.579E+00 0.104E+01 0.150E+01   0.178E-01 0.842E-02 0.121E+00
   0.249E-04 -.123E-04 -.273E+04   0.104E-03 -.657E-04 0.273E+04   0.340E-18 0.151E-17 0.182E+01   -.638E-02 -.325E-02 0.150E+00
   -.289E-05 0.751E-05 -.885E+03   0.380E-04 0.429E-05 0.886E+03   -.100E-19 0.818E-19 -.147E+01   0.310E-03 0.192E-03 0.105E+00
   -.224E-06 -.720E-04 -.976E+03   0.162E-04 0.196E-06 0.954E+03   0.118E-18 0.238E-18 0.219E+02   0.987E-03 0.606E-03 0.321E-01
   0.239E-03 -.906E-04 -.166E+04   0.773E-05 0.998E-08 0.166E+04   0.588E-19 0.157E-18 -.263E+01   0.377E-02 0.231E-02 -.107E+00
   0.677E-05 -.142E-04 -.322E+03   0.531E-06 -.183E-08 0.330E+03   -.159E-19 -.462E-20 -.873E+01   0.199E-03 0.122E-03 -.185E-01
 -----------------------------------------------------------------------------------------------
   0.612E-03 -.847E-03 -.760E+01   -.102E-13 0.725E-13 0.233E-11   0.223E-15 0.199E-17 0.409E+01   0.391E-01 0.260E-01 0.354E+01
 
 
 POSITION                                       TOTAL-FORCE (eV/Angst)
 -----------------------------------------------------------------------------------
      0.00000      0.00000      5.28219        -0.000000     -0.000000     -0.020659
      2.93046      0.00000      5.28219         0.001933      0.003368      0.025177
      5.86091      0.00000      5.28219        -0.001933      0.003368      0.025177
      1.46523      2.53785      5.28219         0.003884     -0.000010      0.025177
      4.39568      2.53785      5.28219         0.000000     -0.000000     -0.017048
      7.32614      2.53785      5.28219        -0.003884     -0.000010      0.025177
      2.93046      5.07570      5.28219         0.001951     -0.003358      0.025177
      5.86091      5.07570      5.28219        -0.001951     -0.003358      0.025177
      8.79137      5.07570      5.28219        -0.000000     -0.000000      0.013483
      1.46523      0.84595      7.67490        -0.025285     -0.014599     -0.048319
      4.39568      0.84595      7.67490        -0.000000     -0.015001     -0.056311
      7.32614      0.84595      7.67490         0.025285     -0.014599     -0.048319
      2.93046      3.38380      7.67490        -0.012991      0.007500     -0.056311
      5.86091      3.38380      7.67490         0.012991      0.007500     -0.056311
      8.79137      3.38380      7.67490        -0.000000     -0.018346     -0.009689
      4.39568      5.92165      7.67490         0.000000      0.029197     -0.048319
      7.32614      5.92165      7.67490        -0.015888      0.009173     -0.009689
     10.25659      5.92165      7.67490         0.015888      0.009173     -0.009689
      8.79137      1.69074     10.05145         0.000000      0.035908      0.076587
      2.93556      1.69484     10.04095        -0.088700     -0.051211     -0.082915
      5.85581      1.69484     10.04095         0.088700     -0.051211     -0.082915
     10.25435      4.23104     10.05745         0.011526     -0.006654      0.047688
      4.39568      4.22386     10.04095         0.000000      0.102422     -0.082915
      7.32838      4.23104     10.05745        -0.011526     -0.006654      0.047688
     11.72283      6.76818     10.05145        -0.031098     -0.017954      0.076587
      5.85990      6.76818     10.05145         0.031098     -0.017954      0.076587
      8.79137      6.76501     10.05745         0.000000      0.013309      0.047688
      0.00000      0.00000     12.43413        -0.000000     -0.000000     -0.032618
      2.95009      0.02948     12.45917        -0.023748     -0.011757      0.047439
      5.84128      0.02948     12.45917         0.023748     -0.011757      0.047439
      1.50057      2.54011     12.45917        -0.022056     -0.014687      0.047439
      7.29079      2.54011     12.45917         0.022056     -0.014687      0.047439
      2.94617      5.04396     12.45917         0.001692      0.026444      0.047439
      5.84520      5.04396     12.45917        -0.001692      0.026444      0.047439
      8.79137      5.07570     12.45428        -0.000000     -0.000000     -0.058490
      4.39568      2.53785     12.30230         0.000000     -0.000000     -0.094721
      4.39568      2.53785     14.17928        -0.000000     -0.000000     -0.002615
      4.39568      2.53785     15.45427        -0.000000     -0.000000     -0.008964
      4.39568      2.53785     16.40960        -0.000000     -0.000000      0.004813
 -----------------------------------------------------------------------------------
    total drift:                                0.039752      0.025114      0.028763


--------------------------------------------------------------------------------------------------------



  FREE ENERGIE OF THE ION-ELECTRON SYSTEM (eV)
  ---------------------------------------------------
  free  energy   TOTEN  =      -113.30678944 eV

  energy  without entropy=     -113.30678944  energy(sigma->0) =     -113.30678944
 


--------------------------------------------------------------------------------------------------------


    POTLOK:  cpu time    0.0522: real time    0.0522


--------------------------------------------------------------------------------------------------------


 stress matrix after NEB project (eV)
     -8.43145     -0.00000     -0.00000
     -0.00000     -8.43145      0.00000
     -0.00000      0.00000      0.70296
  FORCES: max atom, RMS     0.008964    0.001682
  FORCE total and by dimension    0.010505    0.008964
  Stress total and by dimension   11.944575    8.431451
     LOOP+:  cpu time   81.7811: real time   81.7955
 -----------------------------------------------------------------------------
|                                                                             |
|           W    W    AA    RRRRR   N    N  II  N    N   GGGG   !!!           |
|           W    W   A  A   R    R  NN   N  II  NN   N  G    G  !!!           |
|           W    W  A    A  R    R  N N  N  II  N N  N  G       !!!           |
|           W WW W  AAAAAA  RRRRR   N  N N  II  N  N N  G  GGG   !            |
|           WW  WW  A    A  R   R   N   NN  II  N   NN  G    G                |
|           W    W  A    A  R    R  N    N  II  N    N   GGGG   !!!           |
|                                                                             |
|     Tetrahedron method does not include variations of the Fermi             |
|     occupations, so forces and stress will be inaccurate. We suggest        |
|     using a different smearing scheme ISMEAR = 1 or 2 for metals in         |
|     relaxations.                                                            |
|                                                                             |
 -----------------------------------------------------------------------------

    4ORBIT:  cpu time    0.0000: real time    0.0000



 total charge

# of ion       s       p       d       tot
------------------------------------------
    1        0.418   0.202   9.178   9.798
    2        0.415   0.204   9.177   9.796
    3        0.415   0.204   9.177   9.796
    4        0.415   0.204   9.177   9.796
    5        0.423   0.202   9.174   9.799
    6        0.415   0.204   9.177   9.796
    7        0.415   0.204   9.177   9.796
    8        0.415   0.204   9.177   9.796
    9        0.415   0.203   9.178   9.796
   10        0.408   0.270   9.163   9.841
   11        0.409   0.267   9.167   9.843
   12        0.408   0.270   9.163   9.841
   13        0.409   0.267   9.167   9.843
   14        0.409   0.267   9.167   9.843
   15        0.404   0.270   9.163   9.837
   16        0.408   0.270   9.163   9.841
   17        0.404   0.270   9.163   9.837
   18        0.404   0.270   9.163   9.837
   19        0.403   0.268   9.164   9.835
   20        0.434   0.290   9.142   9.866
   21        0.434   0.290   9.142   9.866
   22        0.397   0.274   9.165   9.835
   23        0.434   0.290   9.142   9.866
   24        0.397   0.274   9.165   9.835
   25        0.403   0.268   9.164   9.835
   26        0.403   0.268   9.164   9.835
   27        0.397   0.274   9.165   9.835
   28        0.410   0.201   9.178   9.789
   29        0.432   0.211   9.162   9.805
   30        0.432   0.211   9.162   9.805
   31        0.432   0.211   9.162   9.805
   32        0.432   0.211   9.162   9.805
   33        0.432   0.211   9.162   9.805
   34        0.432   0.211   9.162   9.805
   35        0.412   0.200   9.178   9.790
   36        0.467   0.624   2.537   3.628
   37        0.936   1.392   0.000   2.329
   38        1.521   3.756   0.000   5.278
   39        0.570   0.139   0.000   0.709
--------------------------------------------------
tot         18.020  14.326 323.347 355.693
 
 BZINTS: Fermi energy:    0.371666;  399.982845 electrons
         Band energy:-0.156696E+04;  BLOECHL correction:   -0.039952
 WARNING: Fermi level nearly degenerate with energies of tetrahedron. This may
     result in numerical instabilities because the density changes by tiny
     changes of the Fermi energy. If the calculation converges, the total
     energy will still be reliable. If you notice convergence issues, you can
     try to
     *) Use a Gamma centered k-point grid
     *) Use tetrahedron method without corrections ISMEAR = -4
     *) Don't use tetrahedron method
        ISMEAR = 0 for semiconductors, 1 or 2 for metals


 total amount of memory used by VASP MPI-rank0   140464. kBytes
=======================================================================

   base      :      30000. kBytes
   nonlr-proj:      15498. kBytes
   fftplans  :       5150. kBytes
   grid      :      23126. kBytes
   one-center:        606. kBytes
   wavefun   :      66084. kBytes
 
  
  
 General timing and accounting informations for this job:
 ========================================================
  
                  Total CPU time used (sec):       90.222
                            User time (sec):       87.041
                          System time (sec):        3.181
                         Elapsed time (sec):       90.561
  
                   Maximum memory used (kb):      413664.
                   Average memory used (kb):          N/A
  
                          Minor page faults:        78313
                          Major page faults:            0
                 Voluntary context switches:         4912
