PROCAR new format
# of k-points:   10         # of bands:  252         # of ions:   39

 k-point     1 :    0.00000000 0.00000000 0.00000000     weight = 0.01562500

band     1 # energy  -23.34754328 # occ.  2.00000000
 
ion      s      p      d    tot
    1  0.000  0.000  0.000  0.000
    2  0.000  0.000  0.000  0.000
    3  0.000  0.000  0.000  0.000
    4  0.000  0.000  0.000  0.000
    5  0.000  0.000  0.000  0.000
    6  0.000  0.000  0.000  0.000
    7  0.000  0.000  0.000  0.000
    8  0.000  0.000  0.000  0.000
    9  0.000  0.000  0.000  0.000
   10  0.000  0.000  0.000  0.000
   11  0.000  0.000  0.000  0.000
   12  0.000  0.000  0.000  0.000
   13  0.000  0.000  0.000  0.000
   14  0.000  0.000  0.000  0.000
   15  0.000  0.000  0.000  0.000
   16  0.000  0.000  0.000  0.000
   17  0.000  0.000  0.000  0.000
   18  0.000  0.000  0.000  0.000
   19  0.000  0.000  0.000  0.000
   20  0.000  0.000  0.000  0.000
   21  0.000  0.000  0.000  0.000
   22  0.000  0.000  0.000  0.000
   23  0.000  0.000  0.000  0.000
   24  0.000  0.000  0.000  0.000
   25  0.000  0.000  0.000  0.000
   26  0.000  0.000  0.000  0.000
   27  0.000  0.000  0.000  0.000
   28  0.000  0.000  0.000  0.000
   29  0.000  0.000  0.000  0.000
   30  0.000  0.000  0.000  0.000
   31  0.000  0.000  0.000  0.000
   32  0.000  0.000  0.000  0.000
   33  0.000  0.000  0.000  0.000
   34  0.000  0.000  0.000  0.000
   35  0.000  0.000  0.000  0.000
   36  0.000  0.000  0.000  0.000
   37  0.071  0.052  0.000  0.123
   38  0.728  0.004  0.000  0.732
   39  0.067  0.014  0.000  0.081
tot    0.865  0.071  0.000  0.937
 
band     2 # energy  -14.10165608 # occ.  2.00000000
 
ion      s      p      d    tot
    1  0.000  0.000  0.000  0.000
    2  0.000  0.000  0.000  0.000
    3  0.000  0.000  0.000  0.000
    4  0.000  0.000  0.000  0.000
    5  0.000  0.000  0.000  0.000
    6  0.000  0.000  0.000  0.000
    7  0.000  0.000  0.000  0.000
    8  0.000  0.000  0.000  0.000
    9  0.000  0.000  0.000  0.000
   10  0.000  0.000  0.000  0.000
   11  0.000  0.000  0.000  0.000
   12  0.000  0.000  0.000  0.000
   13  0.000  0.000  0.000  0.000
   14  0.000  0.000  0.000  0.000
   15  0.000  0.000  0.000  0.000
   16  0.000  0.000  0.000  0.000
   17  0.000  0.000  0.000  0.000
   18  0.000  0.000  0.000  0.000
   19  0.000  0.000  0.000  0.000
   20  0.000  0.000  0.000  0.000
   21  0.000  0.000  0.000  0.000
   22  0.000  0.000  0.000  0.000
   23  0.000  0.000  0.000  0.000
   24  0.000  0.000  0.000  0.000
   25  0.000  0.000  0.000  0.000
   26  0.000  0.000  0.000  0.000
   27  0.000  0.000  0.000  0.000
   28  0.000  0.000  0.000  0.000
   29  0.000  0.000  0.000  0.000
   30  0.000  0.000  0.000  0.000
   31  0.000  0.000  0.000  0.000
   32  0.000  0.000  0.000  0.000
   33  0.000  0.000  0.000  0.000
   34  0.000  0.000  0.000  0.000
   35  0.000  0.000  0.000  0.000
   36  0.002  0.002  0.002  0.005
   37  0.155  0.054  0.000  0.209
   38  0.013  0.525  0.000  0.538
   39  0.201  0.032  0.000  0.233
tot    0.371  0.613  0.002  0.985
 
band     3 # energy   -6.81551538 # occ.  2.00000000
 
ion      s      p      d    tot
    1  0.005  0.001  0.000  0.006
    2  0.005  0.001  0.000  0.006
    3  0.005  0.001  0.000  0.006
    4  0.005  0.001  0.000  0.006
    5  0.005  0.001  0.000  0.006
    6  0.005  0.001  0.000  0.006
    7  0.005  0.001  0.000  0.006
    8  0.005  0.001  0.000  0.006
    9  0.005  0.000  0.000  0.005
   10  0.021  0.000  0.000  0.022
   11  0.021  0.000  0.000  0.022
   12  0.021  0.000  0.000  0.022
   13  0.021  0.000  0.000  0.022
   14  0.021  0.000  0.000  0.022
   15  0.020  0.000  0.000  0.020
   16  0.021  0.000  0.000  0.022
   17  0.020  0.000  0.000  0.020
   18  0.020  0.000  0.000  0.020
   19  0.022  0.000  0.000  0.022
   20  0.026  0.000  0.001  0.026
   21  0.026  0.000  0.001  0.026
   22  0.021  0.000  0.000  0.022
   23  0.026  0.000  0.001  0.026
   24  0.021  0.000  0.000  0.022
   25  0.022  0.000  0.000  0.022
   26  0.022  0.000  0.000  0.022
   27  0.021  0.000  0.000  0.022
   28  0.006  0.001  0.000  0.006
   29  0.007  0.001  0.000  0.007
   30  0.007  0.001  0.000  0.007
   31  0.007  0.001  0.000  0.007
   32  0.007  0.001  0.000  0.007
   33  0.007  0.001  0.000  0.007
   34  0.007  0.001  0.000  0.007
   35  0.006  0.000  0.000  0.006
   36  0.025  0.001  0.006  0.031
   37  0.009  0.008  0.000  0.017
   38  0.001  0.003  0.000  0.004
   39  0.001  0.000  0.000  0.001
tot    0.527  0.022  0.012  0.561
 
band     4 # energy   -6.18116000 # occ.  2.00000000
 
ion      s      p      d    tot
    1  0.004  0.000  0.000  0.004
    2  0.005  0.000  0.000  0.005
    3  0.005  0.000  0.000  0.005
    4  0.005  0.000  0.000  0.005
    5  0.005  0.000  0.000  0.005
    6  0.005  0.000  0.000  0.005
    7  0.005  0.000  0.000  0.005
    8  0.005  0.000  0.000  0.005
    9  0.005  0.000  0.000  0.006
   10  0.006  0.000  0.004  0.011
   11  0.009  0.000  0.002  0.011
   12  0.006  0.000  0.004  0.011
   13  0.009  0.000  0.002  0.011
   14  0.009  0.000  0.002  0.011
   15  0.010  0.000  0.002  0.011
   16  0.006  0.000  0.004  0.011
   17  0.010  0.000  0.002  0.011
   18  0.010  0.000  0.002  0.011
   19  0.000  0.000  0.001  0.002
   20  0.002  0.002  0.010  0.013
   21  0.002  0.002  0.010  0.013
   22  0.000  0.001  0.001  0.001
   23  0.002  0.002  0.010  0.013
   24  0.000  0.001  0.001  0.001
   25  0.000  0.000  0.001  0.002
   26  0.000  0.000  0.001  0.002
   27  0.000  0.001  0.001  0.001
   28  0.002  0.000  0.002  0.003
   29  0.005  0.000  0.006  0.011
   30  0.005  0.000  0.006  0.011
   31  0.005  0.000  0.006  0.011
   32  0.005  0.000  0.006  0.011
   33  0.005  0.000  0.006  0.011
   34  0.005  0.000  0.006  0.011
   35  0.001  0.000  0.001  0.003
   36  0.118  0.035  0.075  0.228
   37  0.118  0.093  0.000  0.212
   38  0.010  0.030  0.000  0.040
   39  0.009  0.001  0.000  0.010
tot    0.412  0.174  0.170  0.756
 
band     5 # energy   -6.11629324 # occ.  2.00000000
 
ion      s      p      d    tot
    1  0.000  0.000  0.000  0.000
    2  0.000  0.000  0.000  0.000
    3  0.000  0.000  0.000  0.000
    4  0.000  0.000  0.000  0.000
    5  0.000  0.000  0.000  0.000
    6  0.000  0.000  0.000  0.000
    7  0.000  0.000  0.000  0.000
    8  0.000  0.000  0.000  0.000
    9  0.000  0.000  0.000  0.000
   10  0.000  0.000  0.000  0.000
   11  0.000  0.000  0.000  0.000
   12  0.000  0.000  0.000  0.000
   13  0.000  0.000  0.000  0.000
   14  0.000  0.000  0.000  0.000
   15  0.000  0.000  0.000  0.000
   16  0.000  0.000  0.000  0.000
   17  0.000  0.000  0.000  0.000
   18  0.000  0.000  0.000  0.000
   19  0.000  0.000  0.000  0.000
   20  0.000  0.000  0.000  0.000
   21  0.000  0.000  0.000  0.000
   22  0.000  0.000  0.000  0.000
   23  0.000  0.000  0.000  0.000
   24  0.000  0.000  0.000  0.000
   25  0.000  0.000  0.000  0.000
   26  0.000  0.000  0.000  0.000
   27  0.000  0.000  0.000  0.000
   28  0.000  0.000  0.000  0.000
   29  0.000  0.000  0.001  0.001
   30  0.000  0.000  0.000  0.000
   31  0.000  0.000  0.001  0.001
   32  0.000  0.000  0.001  0.001
   33  0.000  0.000  0.000  0.000
   34  0.000  0.000  0.001  0.001
   35  0.000  0.000  0.000  0.000
   36  0.000  0.002  0.008  0.010
   37  0.000  0.101  0.000  0.101
   38  0.000  0.551  0.000  0.551
   39  0.000  0.008  0.000  0.008
tot    0.001  0.662  0.013  0.677
 
band     6 # energy   -6.11615827 # occ.  2.00000000
 
ion      s      p      d    tot
    1  0.000  0.000  0.000  0.000
    2  0.000  0.000  0.000  0.000
    3  0.000  0.000  0.000  0.000
    4  0.000  0.000  0.000  0.000
    5  0.000  0.000  0.000  0.000
    6  0.000  0.000  0.000  0.000
    7  0.000  0.000  0.000  0.000
    8  0.000  0.000  0.000  0.000
    9  0.000  0.000  0.000  0.000
   10  0.000  0.000  0.000  0.000
   11  0.000  0.000  0.000  0.000
   12  0.000  0.000  0.000  0.000
   13  0.000  0.000  0.000  0.000
   14  0.000  0.000  0.000  0.000
   15  0.000  0.000  0.000  0.000
   16  0.000  0.000  0.000  0.000
   17  0.000  0.000  0.000  0.000
   18  0.000  0.000  0.000  0.000
   19  0.000  0.000  0.000  0.000
   20  0.000  0.000  0.000  0.000
   21  0.000  0.000  0.000  0.000
   22  0.000  0.000  0.000  0.000
   23  0.000  0.000  0.000  0.000
   24  0.000  0.000  0.000  0.000
   25  0.000  0.000  0.000  0.000
   26  0.000  0.000  0.000  0.000
   27  0.000  0.000  0.000  0.000
   28  0.000  0.000  0.000  0.000
   29  0.000  0.000  0.001  0.001
   30  0.000  0.000  0.001  0.002
   31  0.000  0.000  0.001  0.001
   32  0.000  0.000  0.001  0.001
   33  0.000  0.000  0.001  0.002
   34  0.000  0.000  0.001  0.001
   35  0.000  0.000  0.000  0.000
   36  0.000  0.002  0.008  0.010
   37  0.000  0.101  0.000  0.101
   38  0.000  0.551  0.000  0.551
   39  0.000  0.008  0.000  0.008
tot    0.001  0.662  0.013  0.677
 
band     7 # energy   -5.83821166 # occ.  2.00000000
 
ion      s      p      d    tot
    1  0.004  0.000  0.000  0.005
    2  0.003  0.000  0.000  0.003
    3  0.003  0.000  0.000  0.003
    4  0.003  0.000  0.000  0.003
    5  0.002  0.000  0.000  0.002
    6  0.003  0.000  0.000  0.003
    7  0.003  0.000  0.000  0.003
    8  0.003  0.000  0.000  0.003
    9  0.002  0.000  0.000  0.002
   10  0.008  0.001  0.015  0.023
   11  0.005  0.001  0.019  0.025
   12  0.008  0.001  0.015  0.023
   13  0.005  0.001  0.019  0.025
   14  0.005  0.001  0.019  0.025
   15  0.004  0.001  0.016  0.021
   16  0.008  0.001  0.015  0.023
   17  0.004  0.001  0.016  0.021
   18  0.004  0.001  0.016  0.021
   19  0.013  0.000  0.025  0.038
   20  0.008  0.000  0.042  0.050
   21  0.008  0.000  0.042  0.050
   22  0.016  0.000  0.022  0.039
   23  0.008  0.000  0.042  0.050
   24  0.016  0.000  0.022  0.039
   25  0.013  0.000  0.025  0.038
   26  0.013  0.000  0.025  0.038
   27  0.016  0.000  0.022  0.039
   28  0.003  0.000  0.002  0.005
   29  0.001  0.001  0.004  0.005
   30  0.001  0.001  0.004  0.005
   31  0.001  0.001  0.004  0.005
   32  0.001  0.001  0.004  0.005
   33  0.001  0.001  0.004  0.005
   34  0.001  0.001  0.004  0.005
   35  0.003  0.000  0.001  0.005
   36  0.015  0.012  0.015  0.042
   37  0.026  0.020  0.000  0.046
   38  0.002  0.006  0.000  0.008
   39  0.002  0.000  0.000  0.002
tot    0.242  0.052  0.459  0.754
 
band     8 # energy   -5.59958338 # occ.  2.00000000
 
ion      s      p      d    tot
    1  0.023  0.000  0.022  0.046
    2  0.017  0.000  0.026  0.043
    3  0.017  0.000  0.026  0.043
    4  0.017  0.000  0.026  0.043
    5  0.014  0.000  0.028  0.041
    6  0.017  0.000  0.026  0.043
    7  0.017  0.000  0.026  0.043
    8  0.017  0.000  0.026  0.043
    9  0.014  0.000  0.026  0.040
   10  0.000  0.000  0.027  0.027
   11  0.001  0.001  0.015  0.017
   12  0.000  0.000  0.027  0.027
   13  0.001  0.001  0.015  0.017
   14  0.001  0.001  0.015  0.017
   15  0.002  0.001  0.014  0.016
   16  0.000  0.000  0.027  0.027
   17  0.002  0.001  0.014  0.016
   18  0.002  0.001  0.014  0.016
   19  0.000  0.000  0.007  0.008
   20  0.000  0.000  0.015  0.015
   21  0.000  0.000  0.015  0.015
   22  0.003  0.000  0.004  0.007
   23  0.000  0.000  0.015  0.015
   24  0.003  0.000  0.004  0.007
   25  0.000  0.000  0.007  0.008
   26  0.000  0.000  0.007  0.008
   27  0.003  0.000  0.004  0.007
   28  0.006  0.000  0.002  0.009
   29  0.004  0.000  0.005  0.010
   30  0.004  0.000  0.005  0.010
   31  0.004  0.000  0.005  0.010
   32  0.004  0.000  0.005  0.010
   33  0.004  0.000  0.005  0.010
   34  0.004  0.000  0.005  0.010
   35  0.009  0.000  0.003  0.013
   36  0.001  0.001  0.009  0.011
   37  0.004  0.003  0.000  0.008
   38  0.000  0.001  0.000  0.001
   39  0.000  0.000  0.000  0.000
tot    0.213  0.014  0.526  0.753
 
band     9 # energy   -5.51334983 # occ.  2.00000000
 
ion      s      p      d    tot
    1  0.000  0.000  0.007  0.007
    2  0.001  0.000  0.003  0.004
    3  0.000  0.000  0.002  0.003
    4  0.001  0.000  0.003  0.004
    5  0.000  0.000  0.002  0.002
    6  0.001  0.000  0.002  0.003
    7  0.000  0.000  0.003  0.003
    8  0.001  0.000  0.002  0.003
    9  0.000  0.000  0.003  0.003
   10  0.010  0.001  0.023  0.033
   11  0.000  0.000  0.029  0.029
   12  0.001  0.001  0.019  0.021
   13  0.000  0.001  0.031  0.032
   14  0.000  0.000  0.025  0.025
   15  0.004  0.000  0.022  0.026
   16  0.004  0.001  0.020  0.025
   17  0.001  0.000  0.029  0.030
   18  0.009  0.001  0.009  0.019
   19  0.011  0.001  0.036  0.048
   20  0.015  0.001  0.015  0.031
   21  0.002  0.000  0.131  0.133
   22  0.000  0.001  0.027  0.029
   23  0.007  0.000  0.090  0.097
   24  0.001  0.000  0.036  0.037
   25  0.025  0.001  0.031  0.056
   26  0.003  0.001  0.040  0.044
   27  0.000  0.001  0.031  0.032
   28  0.000  0.000  0.006  0.006
   29  0.000  0.000  0.002  0.002
   30  0.001  0.001  0.006  0.008
   31  0.000  0.000  0.002  0.003
   32  0.000  0.000  0.005  0.006
   33  0.001  0.001  0.006  0.007
   34  0.000  0.000  0.003  0.004
   35  0.000  0.000  0.000  0.000
   36  0.000  0.001  0.001  0.002
   37  0.000  0.000  0.000  0.000
   38  0.000  0.000  0.000  0.000
   39  0.000  0.000  0.000  0.000
tot    0.100  0.015  0.703  0.817
 
band    10 # energy   -5.51334838 # occ.  2.00000000
 
ion      s      p      d    tot
    1  0.000  0.000  0.007  0.007
    2  0.000  0.000  0.002  0.002
    3  0.001  0.000  0.003  0.004
    4  0.000  0.000  0.002  0.003
    5  0.000  0.000  0.002  0.002
    6  0.000  0.000  0.003  0.004
    7  0.001  0.000  0.002  0.004
    8  0.000  0.000  0.003  0.003
    9  0.000  0.000  0.003  0.003
   10  0.000  0.001  0.019  0.020
   11  0.000  0.000  0.028  0.028
   12  0.009  0.001  0.022  0.032
   13  0.000  0.000  0.026  0.026
   14  0.000  0.001  0.032  0.032
   15  0.006  0.000  0.018  0.024
   16  0.006  0.001  0.021  0.028
   17  0.009  0.001  0.011  0.020
   18  0.000  0.000  0.030  0.031
   19  0.015  0.001  0.035  0.050
   20  0.000  0.000  0.142  0.143
   21  0.014  0.001  0.026  0.041
   22  0.001  0.000  0.035  0.037
   23  0.009  0.000  0.067  0.077
   24  0.000  0.001  0.027  0.028
   25  0.001  0.001  0.041  0.043
   26  0.023  0.001  0.031  0.054
   27  0.001  0.001  0.032  0.033
   28  0.000  0.000  0.006  0.006
   29  0.001  0.000  0.006  0.008
   30  0.000  0.000  0.002  0.002
   31  0.000  0.000  0.006  0.007
   32  0.001  0.000  0.003  0.004
   33  0.000  0.000  0.003  0.003
   34  0.001  0.000  0.005  0.006
   35  0.000  0.000  0.000  0.000
   36  0.000  0.001  0.001  0.002
   37  0.000  0.000  0.000  0.000
   38  0.000  0.000  0.000  0.000
   39  0.000  0.000  0.000  0.000
tot    0.100  0.015  0.703  0.817
 
band    11 # energy   -5.51192894 # occ.  2.00000000
 
ion      s      p      d    tot
    1  0.000  0.000  0.003  0.003
    2  0.001  0.000  0.006  0.007
    3  0.001  0.000  0.006  0.007
    4  0.001  0.000  0.006  0.007
    5  0.001  0.000  0.006  0.007
    6  0.001  0.000  0.006  0.007
    7  0.001  0.000  0.006  0.007
    8  0.001  0.000  0.006  0.007
    9  0.003  0.000  0.000  0.003
   10  0.000  0.000  0.016  0.016
   11  0.006  0.001  0.027  0.034
   12  0.000  0.000  0.016  0.016
   13  0.006  0.001  0.027  0.034
   14  0.006  0.001  0.027  0.034
   15  0.003  0.000  0.036  0.040
   16  0.000  0.000  0.016  0.016
   17  0.003  0.000  0.036  0.040
   18  0.003  0.000  0.036  0.040
   19  0.000  0.000  0.042  0.043
   20  0.010  0.001  0.079  0.090
   21  0.010  0.001  0.079  0.090
   22  0.007  0.001  0.009  0.017
   23  0.010  0.001  0.079  0.090
   24  0.007  0.001  0.009  0.017
   25  0.000  0.000  0.042  0.042
   26  0.000  0.000  0.042  0.043
   27  0.007  0.001  0.009  0.017
   28  0.000  0.000  0.000  0.001
   29  0.000  0.000  0.006  0.006
   30  0.000  0.000  0.006  0.006
   31  0.000  0.000  0.006  0.006
   32  0.000  0.000  0.006  0.006
   33  0.000  0.000  0.006  0.006
   34  0.000  0.000  0.006  0.006
   35  0.001  0.000  0.000  0.002
   36  0.001  0.003  0.000  0.004
   37  0.002  0.001  0.000  0.003
   38  0.000  0.001  0.000  0.001
   39  0.000  0.000  0.000  0.000
tot    0.094  0.017  0.707  0.818
 
band    12 # energy   -5.50508310 # occ.  2.00000000
 
ion      s      p      d    tot
    1  0.000  0.000  0.004  0.004
    2  0.002  0.001  0.006  0.009
    3  0.001  0.000  0.003  0.005
    4  0.002  0.001  0.006  0.009
    5  0.000  0.000  0.010  0.010
    6  0.000  0.000  0.004  0.005
    7  0.001  0.000  0.003  0.003
    8  0.000  0.000  0.003  0.003
    9  0.000  0.000  0.001  0.001
   10  0.000  0.000  0.086  0.086
   11  0.027  0.001  0.024  0.052
   12  0.005  0.000  0.040  0.045
   13  0.020  0.001  0.037  0.058
   14  0.001  0.001  0.075  0.076
   15  0.006  0.000  0.032  0.038
   16  0.007  0.001  0.024  0.031
   17  0.004  0.001  0.026  0.031
   18  0.000  0.002  0.008  0.010
   19  0.000  0.000  0.020  0.020
   20  0.000  0.001  0.027  0.028
   21  0.010  0.001  0.030  0.040
   22  0.010  0.001  0.022  0.032
   23  0.013  0.001  0.031  0.045
   24  0.000  0.000  0.049  0.049
   25  0.000  0.001  0.029  0.029
   26  0.000  0.000  0.022  0.022
   27  0.013  0.001  0.012  0.027
   28  0.000  0.000  0.000  0.000
   29  0.000  0.000  0.002  0.002
   30  0.001  0.000  0.003  0.004
   31  0.000  0.000  0.002  0.002
   32  0.001  0.000  0.004  0.005
   33  0.001  0.000  0.003  0.005
   34  0.001  0.000  0.004  0.006
   35  0.000  0.000  0.007  0.007
   36  0.000  0.000  0.001  0.001
   37  0.000  0.000  0.000  0.000
   38  0.000  0.000  0.000  0.000
   39  0.000  0.000  0.000  0.000
tot    0.127  0.017  0.657  0.802
 
band    13 # energy   -5.50508229 # occ.  2.00000000
 
ion      s      p      d    tot
    1  0.000  0.000  0.004  0.004
    2  0.000  0.000  0.003  0.003
    3  0.001  0.000  0.005  0.007
    4  0.000  0.000  0.002  0.003
    5  0.000  0.000  0.010  0.010
    6  0.001  0.001  0.004  0.007
    7  0.001  0.000  0.006  0.008
    8  0.002  0.001  0.005  0.008
    9  0.000  0.000  0.001  0.001
   10  0.008  0.001  0.014  0.022
   11  0.005  0.001  0.066  0.072
   12  0.003  0.000  0.060  0.063
   13  0.012  0.001  0.053  0.066
   14  0.032  0.001  0.015  0.048
   15  0.001  0.001  0.012  0.014
   16  0.001  0.000  0.076  0.077
   17  0.003  0.001  0.018  0.022
   18  0.007  0.000  0.036  0.043
   19  0.000  0.001  0.027  0.028
   20  0.015  0.001  0.032  0.048
   21  0.006  0.001  0.028  0.035
   22  0.006  0.000  0.033  0.040
   23  0.002  0.001  0.027  0.031
   24  0.016  0.001  0.006  0.023
   25  0.000  0.000  0.018  0.018
   26  0.000  0.000  0.025  0.025
   27  0.002  0.000  0.043  0.045
   28  0.000  0.000  0.000  0.000
   29  0.002  0.000  0.004  0.006
   30  0.001  0.000  0.003  0.004
   31  0.002  0.000  0.004  0.006
   32  0.001  0.000  0.002  0.003
   33  0.000  0.000  0.003  0.003
   34  0.000  0.000  0.002  0.002
   35  0.000  0.000  0.007  0.007
   36  0.000  0.000  0.001  0.001
   37  0.000  0.000  0.000  0.000
   38  0.000  0.000  0.000  0.000
   39  0.000  0.000  0.000  0.000
tot    0.127  0.017  0.657  0.802
 
band    14 # energy   -5.49939297 # occ.  2.00000000
 
ion      s      p      d    tot
    1  0.000  0.000  0.005  0.005
    2  0.001  0.000  0.007  0.008
    3  0.001  0.000  0.007  0.008
    4  0.001  0.000  0.007  0.008
    5  0.009  0.001  0.000  0.010
    6  0.001  0.000  0.007  0.008
    7  0.001  0.000  0.007  0.008
    8  0.001  0.000  0.007  0.008
    9  0.000  0.000  0.006  0.006
   10  0.011  0.001  0.005  0.018
   11  0.007  0.000  0.045  0.052
   12  0.011  0.001  0.005  0.018
   13  0.007  0.000  0.045  0.052
   14  0.007  0.000  0.045  0.052
   15  0.000  0.000  0.029  0.029
   16  0.011  0.001  0.005  0.018
   17  0.000  0.000  0.029  0.029
   18  0.000  0.000  0.029  0.029
   19  0.017  0.001  0.014  0.032
   20  0.001  0.001  0.028  0.030
   21  0.001  0.001  0.028  0.030
   22  0.003  0.000  0.061  0.064
   23  0.001  0.001  0.028  0.030
   24  0.003  0.000  0.061  0.064
   25  0.017  0.001  0.014  0.032
   26  0.017  0.001  0.014  0.032
   27  0.003  0.000  0.061  0.064
   28  0.002  0.001  0.006  0.009
   29  0.000  0.000  0.005  0.005
   30  0.000  0.000  0.005  0.005
   31  0.000  0.000  0.004  0.005
   32  0.000  0.000  0.004  0.005
   33  0.000  0.000  0.005  0.005
   34  0.000  0.000  0.004  0.005
   35  0.004  0.001  0.002  0.007
   36  0.002  0.001  0.000  0.003
   37  0.001  0.001  0.000  0.002
   38  0.000  0.000  0.000  0.000
   39  0.000  0.000  0.000  0.000
tot    0.144  0.020  0.630  0.794
 
band    15 # energy   -5.48345073 # occ.  2.00000000
 
ion      s      p      d    tot
    1  0.000  0.001  0.021  0.021
    2  0.001  0.000  0.008  0.009
    3  0.001  0.000  0.008  0.009
    4  0.001  0.000  0.008  0.009
    5  0.001  0.000  0.000  0.001
    6  0.001  0.000  0.008  0.009
    7  0.001  0.000  0.008  0.009
    8  0.001  0.000  0.008  0.009
    9  0.009  0.001  0.001  0.011
   10  0.003  0.000  0.082  0.085
   11  0.003  0.000  0.039  0.042
   12  0.003  0.000  0.082  0.085
   13  0.003  0.000  0.039  0.042
   14  0.003  0.000  0.039  0.042
   15  0.009  0.000  0.010  0.019
   16  0.003  0.000  0.082  0.085
   17  0.009  0.000  0.010  0.019
   18  0.009  0.000  0.010  0.019
   19  0.001  0.000  0.017  0.018
   20  0.002  0.000  0.027  0.030
   21  0.002  0.000  0.027  0.030
   22  0.001  0.000  0.022  0.023
   23  0.002  0.000  0.027  0.030
   24  0.001  0.000  0.022  0.023
   25  0.001  0.000  0.017  0.018
   26  0.001  0.000  0.017  0.018
   27  0.001  0.000  0.022  0.023
   28  0.009  0.000  0.002  0.012
   29  0.001  0.000  0.011  0.012
   30  0.001  0.000  0.011  0.012
   31  0.001  0.000  0.011  0.012
   32  0.001  0.000  0.011  0.012
   33  0.001  0.000  0.011  0.012
   34  0.001  0.000  0.011  0.012
   35  0.000  0.000  0.008  0.008
   36  0.001  0.001  0.000  0.001
   37  0.000  0.000  0.000  0.000
   38  0.000  0.000  0.000  0.000
   39  0.000  0.000  0.000  0.000
tot    0.084  0.009  0.739  0.832
 
band    16 # energy   -5.46513613 # occ.  2.00000000
 
ion      s      p      d    tot
    1  0.000  0.000  0.013  0.014
    2  0.002  0.000  0.005  0.008
    3  0.000  0.000  0.011  0.011
    4  0.002  0.000  0.006  0.008
    5  0.000  0.000  0.007  0.007
    6  0.003  0.001  0.007  0.011
    7  0.000  0.000  0.011  0.011
    8  0.003  0.001  0.007  0.011
    9  0.000  0.001  0.008  0.008
   10  0.000  0.001  0.054  0.055
   11  0.000  0.000  0.037  0.037
   12  0.013  0.000  0.035  0.048
   13  0.000  0.000  0.038  0.039
   14  0.000  0.000  0.023  0.023
   15  0.011  0.000  0.037  0.048
   16  0.011  0.000  0.037  0.048
   17  0.013  0.000  0.026  0.040
   18  0.000  0.000  0.115  0.115
   19  0.000  0.000  0.026  0.026
   20  0.000  0.000  0.036  0.036
   21  0.003  0.000  0.016  0.019
   22  0.003  0.000  0.022  0.024
   23  0.002  0.000  0.019  0.021
   24  0.000  0.000  0.021  0.021
   25  0.000  0.000  0.029  0.029
   26  0.000  0.000  0.026  0.026
   27  0.002  0.000  0.021  0.024
   28  0.000  0.000  0.014  0.014
   29  0.001  0.000  0.005  0.006
   30  0.003  0.000  0.004  0.008
   31  0.001  0.000  0.005  0.007
   32  0.001  0.000  0.005  0.006
   33  0.003  0.000  0.004  0.008
   34  0.001  0.000  0.005  0.006
   35  0.000  0.000  0.007  0.007
   36  0.000  0.000  0.001  0.001
   37  0.000  0.000  0.000  0.000
   38  0.000  0.000  0.000  0.000
   39  0.000  0.000  0.000  0.000
tot    0.078  0.010  0.743  0.832
 
band    17 # energy   -5.46513094 # occ.  2.00000000
 
ion      s      p      d    tot
    1  0.000  0.000  0.013  0.014
    2  0.001  0.001  0.010  0.012
    3  0.003  0.001  0.005  0.009
    4  0.001  0.001  0.010  0.012
    5  0.000  0.000  0.007  0.007
    6  0.001  0.000  0.008  0.009
    7  0.003  0.001  0.005  0.009
    8  0.000  0.000  0.009  0.009
    9  0.000  0.001  0.008  0.008
   10  0.016  0.000  0.030  0.046
   11  0.000  0.000  0.029  0.029
   12  0.003  0.000  0.049  0.053
   13  0.000  0.000  0.027  0.027
   14  0.000  0.000  0.042  0.043
   15  0.005  0.000  0.082  0.087
   16  0.005  0.000  0.047  0.052
   17  0.003  0.000  0.092  0.096
   18  0.016  0.000  0.004  0.020
   19  0.000  0.000  0.028  0.028
   20  0.003  0.000  0.011  0.015
   21  0.001  0.000  0.031  0.032
   22  0.001  0.000  0.021  0.022
   23  0.001  0.000  0.029  0.030
   24  0.003  0.000  0.022  0.025
   25  0.000  0.000  0.025  0.025
   26  0.000  0.000  0.028  0.028
   27  0.001  0.000  0.021  0.022
   28  0.000  0.000  0.014  0.014
   29  0.002  0.000  0.004  0.007
   30  0.000  0.000  0.006  0.006
   31  0.002  0.000  0.005  0.007
   32  0.002  0.000  0.005  0.007
   33  0.000  0.000  0.006  0.006
   34  0.003  0.000  0.005  0.008
   35  0.000  0.000  0.007  0.007
   36  0.000  0.000  0.001  0.001
   37  0.000  0.000  0.000  0.000
   38  0.000  0.000  0.000  0.000
   39  0.000  0.000  0.000  0.000
tot    0.078  0.010  0.743  0.832
 
band    18 # energy   -5.45845656 # occ.  2.00000000
 
ion      s      p      d    tot
    1  0.001  0.000  0.001  0.002
    2  0.001  0.000  0.011  0.012
    3  0.001  0.000  0.011  0.012
    4  0.001  0.000  0.011  0.012
    5  0.004  0.000  0.000  0.004
    6  0.001  0.000  0.011  0.012
    7  0.001  0.000  0.011  0.012
    8  0.001  0.000  0.011  0.012
    9  0.004  0.000  0.018  0.022
   10  0.003  0.000  0.023  0.026
   11  0.001  0.000  0.006  0.007
   12  0.003  0.000  0.023  0.026
   13  0.001  0.000  0.006  0.007
   14  0.001  0.000  0.006  0.007
   15  0.001  0.000  0.056  0.057
   16  0.003  0.000  0.023  0.026
   17  0.001  0.000  0.056  0.057
   18  0.001  0.000  0.056  0.057
   19  0.001  0.000  0.041  0.043
   20  0.005  0.000  0.020  0.025
   21  0.005  0.000  0.020  0.025
   22  0.000  0.000  0.043  0.043
   23  0.005  0.000  0.020  0.025
   24  0.000  0.000  0.043  0.043
   25  0.001  0.000  0.041  0.043
   26  0.001  0.000  0.041  0.043
   27  0.000  0.000  0.043  0.043
   28  0.003  0.000  0.000  0.004
   29  0.003  0.000  0.013  0.016
   30  0.003  0.000  0.013  0.016
   31  0.003  0.000  0.013  0.016
   32  0.003  0.000  0.013  0.016
   33  0.003  0.000  0.013  0.016
   34  0.003  0.000  0.013  0.016
   35  0.011  0.000  0.017  0.027
   36  0.000  0.001  0.002  0.003
   37  0.000  0.000  0.000  0.000
   38  0.000  0.000  0.000  0.000
   39  0.000  0.000  0.000  0.000
tot    0.076  0.008  0.749  0.833
 
band    19 # energy   -5.45105420 # occ.  2.00000000
 
ion      s      p      d    tot
    1  0.000  0.000  0.005  0.005
    2  0.003  0.000  0.006  0.009
    3  0.000  0.000  0.008  0.009
    4  0.003  0.000  0.006  0.009
    5  0.000  0.000  0.009  0.009
    6  0.002  0.000  0.006  0.008
    7  0.000  0.000  0.008  0.009
    8  0.001  0.000  0.006  0.008
    9  0.000  0.000  0.018  0.018
   10  0.002  0.000  0.026  0.028
   11  0.001  0.000  0.047  0.048
   12  0.001  0.000  0.023  0.023
   13  0.001  0.000  0.044  0.045
   14  0.005  0.000  0.009  0.014
   15  0.000  0.000  0.029  0.029
   16  0.001  0.000  0.022  0.023
   17  0.000  0.000  0.030  0.030
   18  0.000  0.000  0.038  0.038
   19  0.002  0.000  0.071  0.072
   20  0.001  0.000  0.054  0.055
   21  0.000  0.000  0.023  0.024
   22  0.004  0.000  0.061  0.064
   23  0.000  0.000  0.020  0.021
   24  0.013  0.000  0.021  0.034
   25  0.007  0.000  0.009  0.016
   26  0.002  0.000  0.065  0.067
   27  0.003  0.000  0.064  0.067
   28  0.000  0.000  0.004  0.004
   29  0.000  0.000  0.008  0.008
   30  0.002  0.000  0.003  0.005
   31  0.000  0.000  0.008  0.008
   32  0.001  0.001  0.008  0.009
   33  0.002  0.000  0.003  0.005
   34  0.001  0.001  0.007  0.009
   35  0.000  0.000  0.011  0.011
   36  0.000  0.000  0.001  0.001
   37  0.000  0.000  0.000  0.000
   38  0.000  0.000  0.000  0.000
   39  0.000  0.000  0.000  0.000
tot    0.057  0.007  0.780  0.844
 
band    20 # energy   -5.45104026 # occ.  2.00000000
 
ion      s      p      d    tot
    1  0.000  0.000  0.005  0.005
    2  0.000  0.000  0.007  0.008
    3  0.003  0.000  0.005  0.009
    4  0.000  0.000  0.008  0.008
    5  0.000  0.000  0.009  0.009
    6  0.001  0.000  0.008  0.009
    7  0.003  0.000  0.005  0.009
    8  0.002  0.000  0.008  0.009
    9  0.000  0.000  0.018  0.018
   10  0.000  0.000  0.021  0.021
   11  0.004  0.000  0.019  0.023
   12  0.002  0.000  0.024  0.026
   13  0.003  0.000  0.023  0.026
   14  0.000  0.000  0.058  0.058
   15  0.000  0.000  0.035  0.036
   16  0.002  0.000  0.025  0.027
   17  0.000  0.000  0.035  0.035
   18  0.000  0.000  0.027  0.027
   19  0.006  0.000  0.026  0.032
   20  0.000  0.000  0.011  0.011
   21  0.000  0.000  0.042  0.043
   22  0.009  0.000  0.037  0.046
   23  0.001  0.000  0.045  0.045
   24  0.000  0.000  0.076  0.076
   25  0.000  0.000  0.088  0.088
   26  0.005  0.000  0.031  0.036
   27  0.010  0.000  0.033  0.043
   28  0.000  0.000  0.004  0.004
   29  0.002  0.001  0.004  0.007
   30  0.000  0.000  0.010  0.010
   31  0.002  0.001  0.004  0.006
   32  0.001  0.000  0.004  0.005
   33  0.000  0.000  0.010  0.010
   34  0.001  0.000  0.005  0.006
   35  0.000  0.000  0.011  0.011
   36  0.000  0.000  0.001  0.001
   37  0.000  0.000  0.000  0.000
   38  0.000  0.000  0.000  0.000
   39  0.000  0.000  0.000  0.000