PROCAR new format
# of k-points:   10         # of bands:  252         # of ions:   38

 k-point     1 :    0.00000000 0.00000000 0.00000000     weight = 0.01562500

band     1 # energy  -23.29049772 # occ.  2.00000000
 
ion      s      p      d    tot
    1  0.000  0.000  0.000  0.000
    2  0.000  0.000  0.000  0.000
    3  0.000  0.000  0.000  0.000
    4  0.000  0.000  0.000  0.000
    5  0.000  0.000  0.000  0.000
    6  0.000  0.000  0.000  0.000
    7  0.000  0.000  0.000  0.000
    8  0.000  0.000  0.000  0.000
    9  0.000  0.000  0.000  0.000
   10  0.000  0.000  0.000  0.000
   11  0.000  0.000  0.000  0.000
   12  0.000  0.000  0.000  0.000
   13  0.000  0.000  0.000  0.000
   14  0.000  0.000  0.000  0.000
   15  0.000  0.000  0.000  0.000
   16  0.000  0.000  0.000  0.000
   17  0.000  0.000  0.000  0.000
   18  0.000  0.000  0.000  0.000
   19  0.000  0.000  0.000  0.000
   20  0.000  0.000  0.000  0.000
   21  0.000  0.000  0.000  0.000
   22  0.000  0.000  0.000  0.000
   23  0.000  0.000  0.000  0.000
   24  0.000  0.000  0.000  0.000
   25  0.000  0.000  0.000  0.000
   26  0.000  0.000  0.000  0.000
   27  0.000  0.000  0.000  0.000
   28  0.000  0.000  0.000  0.000
   29  0.000  0.000  0.000  0.000
   30  0.000  0.000  0.000  0.000
   31  0.000  0.000  0.000  0.000
   32  0.000  0.000  0.000  0.000
   33  0.000  0.000  0.000  0.000
   34  0.000  0.000  0.000  0.000
   35  0.000  0.000  0.000  0.000
   36  0.000  0.000  0.000  0.000
   37  0.161  0.122  0.000  0.283
   38  0.642  0.098  0.000  0.740
tot    0.803  0.220  0.000  1.023
 
band     2 # energy   -8.49465684 # occ.  2.00000000
 
ion      s      p      d    tot
    1  0.000  0.000  0.000  0.000
    2  0.000  0.000  0.000  0.000
    3  0.000  0.000  0.000  0.000
    4  0.000  0.000  0.000  0.000
    5  0.000  0.000  0.000  0.000
    6  0.000  0.000  0.000  0.000
    7  0.000  0.000  0.000  0.000
    8  0.000  0.000  0.000  0.000
    9  0.000  0.000  0.000  0.000
   10  0.000  0.000  0.000  0.000
   11  0.000  0.000  0.000  0.000
   12  0.000  0.000  0.000  0.000
   13  0.000  0.000  0.000  0.000
   14  0.000  0.000  0.000  0.000
   15  0.000  0.000  0.000  0.000
   16  0.000  0.000  0.000  0.000
   17  0.000  0.000  0.000  0.000
   18  0.000  0.000  0.000  0.000
   19  0.001  0.000  0.000  0.001
   20  0.002  0.000  0.000  0.003
   21  0.002  0.000  0.000  0.003
   22  0.001  0.000  0.000  0.001
   23  0.002  0.000  0.000  0.003
   24  0.001  0.000  0.000  0.001
   25  0.001  0.000  0.000  0.001
   26  0.001  0.000  0.000  0.001
   27  0.001  0.000  0.000  0.001
   28  0.000  0.000  0.000  0.000
   29  0.001  0.000  0.000  0.002
   30  0.001  0.000  0.000  0.002
   31  0.001  0.000  0.000  0.002
   32  0.001  0.000  0.000  0.002
   33  0.001  0.000  0.000  0.002
   34  0.001  0.000  0.000  0.002
   35  0.000  0.000  0.000  0.000
   36  0.026  0.007  0.016  0.049
   37  0.242  0.000  0.000  0.242
   38  0.151  0.290  0.000  0.441
tot    0.443  0.299  0.020  0.761
 
band     3 # energy   -7.98302474 # occ.  2.00000000
 
ion      s      p      d    tot
    1  0.006  0.001  0.000  0.007
    2  0.006  0.000  0.000  0.007
    3  0.006  0.000  0.000  0.007
    4  0.006  0.000  0.000  0.007
    5  0.006  0.001  0.000  0.007
    6  0.006  0.000  0.000  0.007
    7  0.006  0.000  0.000  0.007
    8  0.006  0.000  0.000  0.007
    9  0.006  0.000  0.000  0.006
   10  0.025  0.000  0.000  0.025
   11  0.026  0.000  0.000  0.026
   12  0.025  0.000  0.000  0.025
   13  0.026  0.000  0.000  0.026
   14  0.026  0.000  0.000  0.026
   15  0.024  0.000  0.000  0.025
   16  0.025  0.000  0.000  0.025
   17  0.024  0.000  0.000  0.025
   18  0.024  0.000  0.000  0.025
   19  0.022  0.000  0.000  0.023
   20  0.027  0.000  0.000  0.027
   21  0.027  0.000  0.000  0.027
   22  0.023  0.000  0.000  0.023
   23  0.027  0.000  0.000  0.027
   24  0.023  0.000  0.000  0.023
   25  0.022  0.000  0.000  0.023
   26  0.022  0.000  0.000  0.023
   27  0.023  0.000  0.000  0.023
   28  0.005  0.000  0.000  0.005
   29  0.005  0.000  0.000  0.005
   30  0.005  0.000  0.000  0.005
   31  0.005  0.000  0.000  0.005
   32  0.005  0.000  0.000  0.005
   33  0.005  0.000  0.000  0.005
   34  0.005  0.000  0.000  0.005
   35  0.005  0.000  0.000  0.005
   36  0.007  0.002  0.000  0.009
   37  0.007  0.001  0.000  0.009
   38  0.007  0.020  0.000  0.027
tot    0.556  0.034  0.004  0.593
 
band     4 # energy   -6.87384375 # occ.  2.00000000
 
ion      s      p      d    tot
    1  0.015  0.000  0.001  0.016
    2  0.015  0.000  0.001  0.017
    3  0.015  0.000  0.001  0.017
    4  0.015  0.000  0.001  0.017
    5  0.015  0.000  0.001  0.016
    6  0.015  0.000  0.001  0.017
    7  0.015  0.000  0.001  0.017
    8  0.015  0.000  0.001  0.017
    9  0.016  0.000  0.001  0.017
   10  0.011  0.001  0.002  0.015
   11  0.011  0.001  0.002  0.014
   12  0.011  0.001  0.002  0.015
   13  0.011  0.001  0.002  0.014
   14  0.011  0.001  0.002  0.014
   15  0.012  0.001  0.002  0.016
   16  0.011  0.001  0.002  0.015
   17  0.012  0.001  0.002  0.016
   18  0.012  0.001  0.002  0.016
   19  0.009  0.001  0.003  0.012
   20  0.014  0.002  0.003  0.019
   21  0.014  0.002  0.003  0.019
   22  0.009  0.001  0.002  0.012
   23  0.014  0.002  0.003  0.019
   24  0.009  0.001  0.002  0.012
   25  0.009  0.001  0.003  0.012
   26  0.009  0.001  0.003  0.012
   27  0.009  0.001  0.002  0.012
   28  0.013  0.000  0.001  0.014
   29  0.016  0.000  0.001  0.018
   30  0.016  0.000  0.001  0.018
   31  0.016  0.000  0.001  0.018
   32  0.016  0.000  0.001  0.018
   33  0.016  0.000  0.001  0.018
   34  0.016  0.000  0.001  0.018
   35  0.013  0.000  0.001  0.014
   36  0.033  0.000  0.000  0.033
   37  0.000  0.008  0.000  0.008
   38  0.003  0.021  0.000  0.024
tot    0.494  0.059  0.061  0.614
 
band     5 # energy   -6.00313002 # occ.  2.00000000
 
ion      s      p      d    tot
    1  0.012  0.000  0.001  0.013
    2  0.005  0.000  0.003  0.008
    3  0.005  0.000  0.003  0.008
    4  0.005  0.000  0.003  0.008
    5  0.007  0.000  0.003  0.009
    6  0.005  0.000  0.003  0.008
    7  0.005  0.000  0.003  0.008
    8  0.005  0.000  0.003  0.008
    9  0.001  0.000  0.004  0.005
   10  0.001  0.001  0.006  0.007
   11  0.000  0.001  0.003  0.004
   12  0.001  0.001  0.006  0.007
   13  0.000  0.001  0.003  0.004
   14  0.000  0.001  0.003  0.004
   15  0.006  0.002  0.001  0.009
   16  0.001  0.001  0.006  0.007
   17  0.006  0.002  0.001  0.009
   18  0.006  0.002  0.001  0.009
   19  0.010  0.000  0.013  0.023
   20  0.000  0.001  0.028  0.029
   21  0.000  0.001  0.027  0.029
   22  0.023  0.001  0.006  0.030
   23  0.000  0.001  0.027  0.029
   24  0.023  0.001  0.006  0.030
   25  0.010  0.000  0.013  0.023
   26  0.010  0.000  0.013  0.023
   27  0.023  0.001  0.006  0.030
   28  0.001  0.000  0.008  0.010
   29  0.008  0.001  0.011  0.019
   30  0.008  0.001  0.011  0.019
   31  0.008  0.001  0.011  0.019
   32  0.008  0.001  0.011  0.019
   33  0.008  0.001  0.011  0.019
   34  0.008  0.001  0.011  0.019
   35  0.000  0.001  0.008  0.009
   36  0.077  0.002  0.003  0.083
   37  0.006  0.053  0.000  0.059
   38  0.004  0.067  0.000  0.071
tot    0.308  0.145  0.276  0.729
 
band     6 # energy   -5.93424844 # occ.  2.00000000
 
ion      s      p      d    tot
    1  0.000  0.000  0.000  0.000
    2  0.000  0.000  0.000  0.000
    3  0.000  0.000  0.000  0.000
    4  0.000  0.000  0.000  0.000
    5  0.000  0.000  0.000  0.000
    6  0.000  0.000  0.000  0.000
    7  0.000  0.000  0.000  0.000
    8  0.000  0.000  0.000  0.000
    9  0.000  0.000  0.000  0.000
   10  0.001  0.000  0.000  0.002
   11  0.000  0.000  0.000  0.000
   12  0.000  0.000  0.000  0.001
   13  0.000  0.000  0.000  0.000
   14  0.000  0.000  0.000  0.000
   15  0.000  0.000  0.000  0.001
   16  0.000  0.000  0.000  0.001
   17  0.000  0.000  0.000  0.001
   18  0.001  0.000  0.000  0.001
   19  0.000  0.000  0.001  0.001
   20  0.001  0.000  0.001  0.002
   21  0.000  0.000  0.001  0.001
   22  0.000  0.000  0.000  0.000
   23  0.000  0.000  0.001  0.001
   24  0.000  0.000  0.000  0.001
   25  0.001  0.000  0.000  0.001
   26  0.000  0.000  0.001  0.001
   27  0.000  0.000  0.000  0.000
   28  0.000  0.000  0.000  0.000
   29  0.000  0.000  0.001  0.001
   30  0.000  0.000  0.000  0.001
   31  0.000  0.000  0.001  0.001
   32  0.001  0.000  0.001  0.002
   33  0.000  0.000  0.000  0.001
   34  0.001  0.000  0.001  0.002
   35  0.000  0.000  0.000  0.000
   36  0.000  0.001  0.007  0.008
   37  0.000  0.167  0.000  0.167
   38  0.000  0.488  0.000  0.488
tot    0.009  0.657  0.021  0.687
 
band     7 # energy   -5.93416187 # occ.  2.00000000
 
ion      s      p      d    tot
    1  0.000  0.000  0.000  0.000
    2  0.000  0.000  0.000  0.000
    3  0.000  0.000  0.000  0.000
    4  0.000  0.000  0.000  0.000
    5  0.000  0.000  0.000  0.000
    6  0.000  0.000  0.000  0.000
    7  0.000  0.000  0.000  0.000
    8  0.000  0.000  0.000  0.000
    9  0.000  0.000  0.000  0.000
   10  0.000  0.000  0.000  0.000
   11  0.000  0.000  0.000  0.000
   12  0.001  0.000  0.000  0.001
   13  0.000  0.000  0.000  0.000
   14  0.000  0.000  0.000  0.000
   15  0.000  0.000  0.000  0.001
   16  0.001  0.000  0.000  0.001
   17  0.000  0.000  0.000  0.001
   18  0.000  0.000  0.001  0.001
   19  0.001  0.000  0.000  0.001
   20  0.000  0.000  0.001  0.001
   21  0.001  0.000  0.001  0.002
   22  0.000  0.000  0.000  0.000
   23  0.001  0.000  0.001  0.002
   24  0.000  0.000  0.000  0.000
   25  0.000  0.000  0.001  0.001
   26  0.001  0.000  0.000  0.001
   27  0.000  0.000  0.000  0.000
   28  0.000  0.000  0.000  0.000
   29  0.000  0.000  0.001  0.001
   30  0.001  0.000  0.001  0.002
   31  0.000  0.000  0.001  0.001
   32  0.000  0.000  0.001  0.001
   33  0.001  0.000  0.001  0.002
   34  0.000  0.000  0.001  0.001
   35  0.000  0.000  0.000  0.000
   36  0.000  0.001  0.007  0.008
   37  0.000  0.167  0.000  0.167
   38  0.000  0.488  0.000  0.488
tot    0.009  0.657  0.021  0.687
 
band     8 # energy   -5.89394925 # occ.  2.00000000
 
ion      s      p      d    tot
    1  0.000  0.001  0.005  0.006
    2  0.003  0.000  0.004  0.007
    3  0.003  0.000  0.004  0.007
    4  0.003  0.000  0.004  0.007
    5  0.001  0.000  0.001  0.002
    6  0.003  0.000  0.004  0.007
    7  0.003  0.000  0.004  0.007
    8  0.003  0.000  0.004  0.007
    9  0.016  0.001  0.000  0.017
   10  0.008  0.001  0.013  0.021
   11  0.004  0.002  0.007  0.012
   12  0.008  0.001  0.013  0.021
   13  0.004  0.002  0.007  0.012
   14  0.004  0.002  0.007  0.012
   15  0.010  0.001  0.004  0.015
   16  0.008  0.001  0.013  0.021
   17  0.010  0.001  0.004  0.015
   18  0.010  0.001  0.004  0.015
   19  0.001  0.001  0.021  0.023
   20  0.027  0.001  0.027  0.055
   21  0.027  0.001  0.027  0.055
   22  0.006  0.002  0.008  0.015
   23  0.027  0.001  0.027  0.055
   24  0.006  0.002  0.008  0.015
   25  0.001  0.001  0.021  0.023
   26  0.001  0.001  0.021  0.023
   27  0.006  0.002  0.008  0.015
   28  0.013  0.000  0.004  0.017
   29  0.011  0.000  0.011  0.022
   30  0.011  0.000  0.011  0.022
   31  0.011  0.000  0.011  0.022
   32  0.011  0.000  0.011  0.022
   33  0.011  0.000  0.011  0.022
   34  0.011  0.000  0.011  0.022
   35  0.030  0.000  0.005  0.036
   36  0.000  0.003  0.018  0.021
   37  0.000  0.001  0.000  0.002
   38  0.000  0.001  0.000  0.001
tot    0.314  0.033  0.354  0.702
 
band     9 # energy   -5.86123008 # occ.  2.00000000
 
ion      s      p      d    tot
    1  0.000  0.001  0.008  0.008
    2  0.003  0.001  0.002  0.006
    3  0.000  0.000  0.003  0.004
    4  0.003  0.001  0.002  0.006
    5  0.000  0.001  0.005  0.006
    6  0.006  0.001  0.003  0.010
    7  0.000  0.000  0.003  0.004
    8  0.006  0.001  0.003  0.010
    9  0.000  0.000  0.001  0.001
   10  0.039  0.002  0.005  0.046
   11  0.011  0.003  0.019  0.033
   12  0.010  0.001  0.027  0.037
   13  0.011  0.003  0.019  0.033
   14  0.045  0.001  0.012  0.058
   15  0.000  0.002  0.007  0.009
   16  0.010  0.001  0.027  0.037
   17  0.000  0.002  0.007  0.009
   18  0.000  0.000  0.011  0.011
   19  0.003  0.003  0.006  0.012
   20  0.065  0.001  0.010  0.076
   21  0.016  0.002  0.033  0.051
   22  0.003  0.001  0.019  0.023
   23  0.016  0.002  0.033  0.051
   24  0.013  0.002  0.006  0.020
   25  0.013  0.000  0.013  0.027
   26  0.003  0.003  0.006  0.012
   27  0.003  0.001  0.019  0.024
   28  0.000  0.000  0.001  0.002
   29  0.007  0.001  0.004  0.012
   30  0.002  0.001  0.003  0.006
   31  0.007  0.001  0.004  0.012
   32  0.001  0.000  0.002  0.004
   33  0.002  0.001  0.003  0.006
   34  0.001  0.000  0.002  0.004
   35  0.000  0.000  0.004  0.004
   36  0.000  0.004  0.006  0.010
   37  0.000  0.002  0.000  0.002
   38  0.000  0.005  0.000  0.005
tot    0.303  0.052  0.339  0.694
 
band    10 # energy   -5.86118954 # occ.  2.00000000
 
ion      s      p      d    tot
    1  0.000  0.001  0.008  0.008
    2  0.003  0.001  0.003  0.007
    3  0.006  0.001  0.003  0.010
    4  0.003  0.001  0.003  0.007
    5  0.000  0.001  0.005  0.006
    6  0.001  0.000  0.002  0.003
    7  0.006  0.001  0.003  0.010
    8  0.001  0.000  0.002  0.003
    9  0.000  0.000  0.001  0.001
   10  0.000  0.000  0.034  0.034
   11  0.034  0.001  0.014  0.050
   12  0.029  0.002  0.012  0.043
   13  0.034  0.001  0.014  0.050
   14  0.000  0.004  0.021  0.025
   15  0.000  0.001  0.009  0.011
   16  0.029  0.002  0.012  0.043
   17  0.000  0.001  0.009  0.011
   18  0.000  0.003  0.006  0.009
   19  0.010  0.001  0.011  0.022
   20  0.000  0.002  0.041  0.043
   21  0.049  0.001  0.018  0.068
   22  0.010  0.001  0.010  0.021
   23  0.049  0.001  0.018  0.068
   24  0.000  0.001  0.024  0.025
   25  0.000  0.004  0.003  0.008
   26  0.010  0.001  0.011  0.022
   27  0.010  0.001  0.010  0.021
   28  0.000  0.000  0.001  0.002
   29  0.000  0.000  0.002  0.003
   30  0.005  0.001  0.003  0.009
   31  0.000  0.000  0.002  0.003
   32  0.005  0.001  0.004  0.010
   33  0.005  0.001  0.003  0.009
   34  0.005  0.001  0.004  0.010
   35  0.000  0.000  0.004  0.004
   36  0.000  0.004  0.006  0.010
   37  0.000  0.002  0.000  0.002
   38  0.000  0.005  0.000  0.005
tot    0.303  0.051  0.339  0.694
 
band    11 # energy   -5.83297899 # occ.  2.00000000
 
ion      s      p      d    tot
    1  0.019  0.000  0.017  0.035
    2  0.015  0.000  0.017  0.032
    3  0.015  0.000  0.017  0.032
    4  0.015  0.000  0.017  0.032
    5  0.012  0.000  0.017  0.029
    6  0.015  0.000  0.017  0.032
    7  0.015  0.000  0.017  0.032
    8  0.015  0.000  0.017  0.032
    9  0.016  0.000  0.015  0.032
   10  0.005  0.000  0.030  0.034
   11  0.012  0.000  0.024  0.036
   12  0.005  0.000  0.030  0.034
   13  0.012  0.000  0.024  0.036
   14  0.012  0.000  0.024  0.036
   15  0.007  0.000  0.025  0.033
   16  0.005  0.000  0.030  0.034
   17  0.007  0.000  0.025  0.033
   18  0.007  0.000  0.025  0.033
   19  0.004  0.000  0.009  0.013
   20  0.001  0.000  0.018  0.019
   21  0.001  0.000  0.018  0.019
   22  0.001  0.000  0.010  0.011
   23  0.001  0.000  0.018  0.019
   24  0.001  0.000  0.010  0.011
   25  0.004  0.000  0.009  0.013
   26  0.004  0.000  0.009  0.013
   27  0.001  0.000  0.010  0.011
   28  0.000  0.000  0.001  0.002
   29  0.001  0.000  0.002  0.002
   30  0.001  0.000  0.002  0.002
   31  0.001  0.000  0.002  0.002
   32  0.001  0.000  0.002  0.002
   33  0.001  0.000  0.002  0.002
   34  0.001  0.000  0.002  0.002
   35  0.001  0.000  0.001  0.002
   36  0.001  0.000  0.002  0.003
   37  0.000  0.000  0.000  0.000
   38  0.000  0.000  0.000  0.000
tot    0.235  0.005  0.511  0.751
 
band    12 # energy   -5.81002693 # occ.  2.00000000
 
ion      s      p      d    tot
    1  0.005  0.001  0.001  0.007
    2  0.000  0.001  0.006  0.007
    3  0.000  0.001  0.006  0.007
    4  0.000  0.001  0.006  0.007
    5  0.018  0.002  0.001  0.020
    6  0.000  0.001  0.006  0.007
    7  0.000  0.001  0.006  0.007
    8  0.000  0.001  0.006  0.007
    9  0.000  0.000  0.002  0.003
   10  0.023  0.003  0.002  0.028
   11  0.022  0.001  0.020  0.043
   12  0.023  0.003  0.002  0.028
   13  0.022  0.001  0.020  0.043
   14  0.022  0.001  0.020  0.043
   15  0.001  0.001  0.024  0.026
   16  0.023  0.003  0.002  0.028
   17  0.001  0.001  0.024  0.026
   18  0.001  0.001  0.024  0.026
   19  0.024  0.002  0.007  0.034
   20  0.008  0.003  0.017  0.027
   21  0.008  0.003  0.016  0.027
   22  0.007  0.000  0.025  0.032
   23  0.008  0.003  0.016  0.027
   24  0.007  0.000  0.026  0.033
   25  0.024  0.002  0.007  0.034
   26  0.024  0.002  0.007  0.034
   27  0.007  0.000  0.025  0.032
   28  0.013  0.001  0.000  0.015
   29  0.000  0.000  0.005  0.005
   30  0.000  0.000  0.005  0.005
   31  0.000  0.000  0.005  0.005
   32  0.000  0.000  0.005  0.005
   33  0.000  0.000  0.005  0.005
   34  0.000  0.000  0.005  0.005
   35  0.002  0.001  0.003  0.005
   36  0.000  0.000  0.000  0.001
   37  0.000  0.000  0.000  0.000
   38  0.000  0.000  0.000  0.000
tot    0.297  0.040  0.358  0.695
 
band    13 # energy   -5.77664274 # occ.  2.00000000
 
ion      s      p      d    tot
    1  0.000  0.001  0.003  0.003
    2  0.005  0.001  0.003  0.009
    3  0.000  0.000  0.004  0.004
    4  0.005  0.001  0.003  0.009
    5  0.000  0.000  0.005  0.005
    6  0.007  0.001  0.004  0.013
    7  0.000  0.000  0.004  0.004
    8  0.007  0.001  0.004  0.013
    9  0.000  0.001  0.010  0.012
   10  0.000  0.005  0.003  0.008
   11  0.009  0.001  0.012  0.022
   12  0.015  0.001  0.013  0.029
   13  0.009  0.001  0.012  0.023
   14  0.000  0.001  0.028  0.029
   15  0.047  0.001  0.014  0.063
   16  0.015  0.001  0.014  0.030
   17  0.046  0.001  0.015  0.062
   18  0.000  0.001  0.039  0.040
   19  0.028  0.002  0.011  0.041
   20  0.000  0.003  0.009  0.012
   21  0.000  0.001  0.014  0.015
   22  0.028  0.001  0.012  0.042
   23  0.000  0.001  0.014  0.015
   24  0.000  0.003  0.017  0.021
   25  0.000  0.000  0.036  0.036
   26  0.027  0.002  0.012  0.041
   27  0.029  0.001  0.012  0.043
   28  0.000  0.000  0.006  0.007
   29  0.004  0.001  0.002  0.007
   30  0.002  0.001  0.003  0.005
   31  0.004  0.001  0.002  0.007
   32  0.000  0.000  0.002  0.002
   33  0.002  0.001  0.003  0.005
   34  0.000  0.000  0.002  0.002
   35  0.000  0.001  0.004  0.005
   36  0.000  0.000  0.000  0.000
   37  0.000  0.002  0.000  0.002
   38  0.000  0.007  0.000  0.007
tot    0.293  0.050  0.349  0.693
 
band    14 # energy   -5.77662086 # occ.  2.00000000
 
ion      s      p      d    tot
    1  0.000  0.001  0.003  0.003
    2  0.004  0.001  0.004  0.009
    3  0.008  0.001  0.004  0.013
    4  0.003  0.001  0.004  0.008
    5  0.000  0.000  0.005  0.005
    6  0.001  0.000  0.003  0.004
    7  0.008  0.001  0.004  0.013
    8  0.001  0.000  0.003  0.005
    9  0.000  0.001  0.010  0.012
   10  0.020  0.000  0.017  0.037
   11  0.003  0.001  0.023  0.027
   12  0.005  0.003  0.007  0.015
   13  0.003  0.001  0.023  0.027
   14  0.013  0.001  0.006  0.020
   15  0.015  0.001  0.031  0.047
   16  0.005  0.004  0.006  0.015
   17  0.016  0.001  0.030  0.048
   18  0.062  0.002  0.006  0.070
   19  0.009  0.001  0.028  0.038
   20  0.000  0.001  0.015  0.016
   21  0.000  0.002  0.011  0.013
   22  0.010  0.003  0.016  0.028
   23  0.000  0.002  0.011  0.013
   24  0.039  0.001  0.010  0.050
   25  0.037  0.002  0.003  0.042
   26  0.010  0.001  0.027  0.038
   27  0.009  0.003  0.016  0.028
   28  0.000  0.000  0.006  0.007
   29  0.000  0.000  0.002  0.003
   30  0.002  0.000  0.002  0.004
   31  0.000  0.000  0.002  0.003
   32  0.004  0.001  0.003  0.007
   33  0.002  0.000  0.002  0.005
   34  0.004  0.001  0.003  0.008
   35  0.000  0.001  0.004  0.005
   36  0.000  0.000  0.000  0.000
   37  0.000  0.002  0.000  0.002
   38  0.000  0.007  0.000  0.007
tot    0.293  0.050  0.349  0.693
 
band    15 # energy   -5.52036816 # occ.  2.00000000
 
ion      s      p      d    tot
    1  0.001  0.000  0.000  0.002
    2  0.000  0.001  0.005  0.006
    3  0.000  0.001  0.005  0.006
    4  0.000  0.001  0.005  0.006
    5  0.007  0.000  0.000  0.008
    6  0.000  0.001  0.005  0.006
    7  0.000  0.001  0.005  0.006
    8  0.000  0.001  0.005  0.006
    9  0.008  0.001  0.002  0.012
   10  0.002  0.000  0.025  0.027
   11  0.004  0.001  0.004  0.010
   12  0.002  0.000  0.025  0.027
   13  0.004  0.001  0.004  0.010
   14  0.004  0.001  0.004  0.010
   15  0.020  0.001  0.008  0.030
   16  0.002  0.000  0.025  0.027
   17  0.020  0.001  0.008  0.030
   18  0.020  0.001  0.008  0.030
   19  0.003  0.001  0.003  0.007
   20  0.000  0.002  0.021  0.023
   21  0.000  0.002  0.021  0.023
   22  0.002  0.001  0.011  0.015
   23  0.000  0.002  0.021  0.023
   24  0.002  0.001  0.011  0.015
   25  0.003  0.001  0.003  0.007
   26  0.003  0.001  0.003  0.007
   27  0.002  0.001  0.011  0.015
   28  0.015  0.000  0.002  0.017
   29  0.004  0.001  0.008  0.012
   30  0.004  0.001  0.008  0.012
   31  0.004  0.001  0.008  0.012
   32  0.004  0.001  0.008  0.012
   33  0.004  0.001  0.008  0.012
   34  0.004  0.001  0.008  0.012
   35  0.008  0.000  0.004  0.013
   36  0.027  0.004  0.040  0.071
   37  0.019  0.079  0.000  0.097
   38  0.003  0.074  0.000  0.076
tot    0.206  0.187  0.342  0.735
 
band    16 # energy   -5.38214997 # occ.  2.00000000
 
ion      s      p      d    tot
    1  0.000  0.001  0.004  0.004
    2  0.001  0.001  0.005  0.006
    3  0.008  0.001  0.004  0.014
    4  0.001  0.001  0.005  0.006
    5  0.000  0.001  0.009  0.011
    6  0.004  0.001  0.003  0.009
    7  0.008  0.001  0.004  0.014
    8  0.004  0.001  0.003  0.008
    9  0.000  0.000  0.007  0.007
   10  0.000  0.001  0.051  0.052
   11  0.017  0.001  0.020  0.037
   12  0.008  0.001  0.018  0.028
   13  0.017  0.001  0.020  0.037
   14  0.000  0.000  0.046  0.046
   15  0.001  0.000  0.018  0.020
   16  0.008  0.001  0.018  0.028
   17  0.001  0.000  0.018  0.020
   18  0.000  0.001  0.011  0.012
   19  0.004  0.000  0.019  0.023
   20  0.000  0.000  0.089  0.089
   21  0.015  0.001  0.027  0.044
   22  0.003  0.001  0.019  0.023
   23  0.015  0.001  0.027  0.044
   24  0.000  0.001  0.030  0.031
   25  0.000  0.001  0.011  0.012
   26  0.004  0.000  0.019  0.023
   27  0.003  0.001  0.019  0.023
   28  0.000  0.000  0.009  0.009
   29  0.004  0.001  0.005  0.010
   30  0.009  0.001  0.005  0.015
   31  0.004  0.001  0.005  0.010
   32  0.001  0.001  0.004  0.006
   33  0.009  0.001  0.005  0.015
   34  0.001  0.001  0.004  0.006
   35  0.000  0.000  0.003  0.003
   36  0.000  0.004  0.006  0.011
   37  0.000  0.000  0.000  0.000
   38  0.000  0.000  0.000  0.000
tot    0.151  0.031  0.572  0.754
 
band    17 # energy   -5.38210869 # occ.  2.00000000
 
ion      s      p      d    tot
    1  0.000  0.001  0.004  0.004
    2  0.008  0.001  0.004  0.013
    3  0.001  0.000  0.004  0.005
    4  0.008  0.001  0.004  0.013
    5  0.000  0.001  0.009  0.011
    6  0.005  0.001  0.005  0.010
    7  0.001  0.000  0.004  0.005
    8  0.005  0.001  0.005  0.010
    9  0.000  0.000  0.007  0.007
   10  0.010  0.002  0.008  0.020
   11  0.006  0.000  0.037  0.043
   12  0.003  0.001  0.040  0.044
   13  0.006  0.000  0.037  0.043
   14  0.022  0.001  0.011  0.035
   15  0.000  0.001  0.013  0.015
   16  0.003  0.001  0.040  0.044
   17  0.000  0.001  0.013  0.015
   18  0.002  0.000  0.021  0.023
   19  0.001  0.001  0.014  0.016
   20  0.020  0.001  0.007  0.028
   21  0.005  0.000  0.069  0.074
   22  0.001  0.001  0.026  0.028
   23  0.005  0.000  0.069  0.074
   24  0.004  0.001  0.015  0.020
   25  0.005  0.000  0.021  0.027
   26  0.001  0.001  0.014  0.016
   27  0.001  0.001  0.026  0.028
   28  0.000  0.000  0.009  0.009
   29  0.006  0.001  0.004  0.011
   30  0.000  0.000  0.005  0.005
   31  0.006  0.001  0.004  0.011
   32  0.008  0.001  0.006  0.015
   33  0.000  0.000  0.005  0.005
   34  0.008  0.001  0.006  0.015
   35  0.000  0.000  0.003  0.003
   36  0.000  0.004  0.006  0.011
   37  0.000  0.000  0.000  0.000
   38  0.000  0.000  0.000  0.000
tot    0.151  0.031  0.572  0.754
 
band    18 # energy   -5.36676051 # occ.  2.00000000
 
ion      s      p      d    tot
    1  0.013  0.002  0.002  0.017
    2  0.000  0.001  0.007  0.008
    3  0.000  0.001  0.007  0.008
    4  0.000  0.001  0.007  0.008
    5  0.000  0.000  0.002  0.002
    6  0.000  0.001  0.007  0.008
    7  0.000  0.001  0.007  0.008
    8  0.000  0.001  0.007  0.008
    9  0.014  0.001  0.000  0.015
   10  0.010  0.001  0.013  0.024
   11  0.003  0.000  0.044  0.047
   12  0.010  0.001  0.013  0.024
   13  0.003  0.000  0.044  0.047
   14  0.003  0.000  0.043  0.046
   15  0.003  0.001  0.020  0.024
   16  0.010  0.001  0.013  0.024
   17  0.003  0.001  0.020  0.024
   18  0.003  0.001  0.020  0.024
   19  0.003  0.001  0.013  0.017
   20  0.001  0.000  0.059  0.060
   21  0.001  0.000  0.058  0.060
   22  0.011  0.001  0.018  0.030
   23  0.001  0.000  0.058  0.060
   24  0.011  0.001  0.018  0.030
   25  0.003  0.001  0.013  0.017
   26  0.003  0.001  0.013  0.017
   27  0.011  0.001  0.018  0.030
   28  0.016  0.001  0.000  0.017
   29  0.000  0.000  0.008  0.008
   30  0.000  0.000  0.008  0.008
   31  0.000  0.000  0.008  0.008
   32  0.000  0.000  0.007  0.008
   33  0.000  0.000  0.008  0.008
   34  0.000  0.000  0.007  0.008
   35  0.005  0.001  0.003  0.009
   36  0.001  0.000  0.001  0.002
   37  0.000  0.000  0.000  0.000
   38  0.000  0.000  0.000  0.000
tot    0.143  0.026  0.590  0.758
 
band    19 # energy   -5.29936536 # occ.  2.00000000
 
ion      s      p      d    tot
    1  0.000  0.001  0.013  0.014
    2  0.009  0.001  0.004  0.015
    3  0.001  0.000  0.005  0.006
    4  0.009  0.001  0.004  0.015
    5  0.000  0.000  0.005  0.005
    6  0.004  0.001  0.005  0.010
    7  0.001  0.000  0.005  0.006
    8  0.004  0.001  0.005  0.010
    9  0.000  0.001  0.006  0.008
   10  0.000  0.001  0.029  0.030
   11  0.000  0.001  0.019  0.021
   12  0.008  0.000  0.021  0.030
   13  0.000  0.001  0.019  0.021
   14  0.000  0.001  0.018  0.019
   15  0.011  0.002  0.020  0.032
   16  0.008  0.000  0.021  0.030
   17  0.011  0.002  0.020  0.032
   18  0.000  0.000  0.061  0.062
   19  0.013  0.001  0.019  0.033
   20  0.000  0.002  0.020  0.022
   21  0.000  0.001  0.024  0.025
   22  0.017  0.001  0.019  0.037
   23  0.000  0.001  0.024  0.025
   24  0.000  0.000  0.032  0.032
   25  0.000  0.000  0.065  0.065
   26  0.013  0.001  0.019  0.033
   27  0.017  0.001  0.019  0.037
   28  0.000  0.001  0.005  0.006
   29  0.006  0.001  0.004  0.011
   30  0.000  0.000  0.006  0.006
   31  0.006  0.001  0.004  0.011
   32  0.005  0.001  0.003  0.009
   33  0.000  0.000  0.006  0.006
   34  0.005  0.001  0.003  0.009
   35  0.000  0.001  0.009  0.010
   36  0.000  0.000  0.003  0.003
   37  0.000  0.000  0.000  0.000
   38  0.000  0.000  0.000  0.000
tot    0.151  0.029  0.569  0.748
 
band    20 # energy   -5.29934033 # occ.  2.00000000
 
ion      s      p      d    tot
    1  0.000  0.001  0.013  0.014
    2  0.000  0.000  0.005  0.006
    3  0.008  0.001  0.005  0.014
    4  0.000  0.000  0.005  0.006
    5  0.000  0.000  0.005  0.005
    6  0.006  0.001  0.004  0.011
    7  0.008  0.001  0.005  0.014
    8  0.006  0.001  0.004  0.011
    9  0.000  0.001  0.006  0.008
   10  0.011  0.000  0.019  0.030
   11  0.000  0.001  0.019  0.020
   12  0.003  0.001  0.027  0.030
   13  0.000  0.001  0.019  0.020
   14  0.001  0.001  0.020  0.021
   15  0.004  0.001  0.047  0.052
   16  0.003  0.001  0.027  0.030
   17  0.004  0.001  0.048  0.052
   18  0.015  0.002  0.006  0.023
   19  0.004  0.001  0.050  0.055
   20  0.000  0.000  0.026  0.026
   21  0.000  0.001  0.021  0.023
   22  0.005  0.001  0.028  0.034
   23  0.000  0.001  0.021  0.023
   24  0.022  0.001  0.015  0.038
   25  0.017  0.001  0.004  0.023
   26  0.004  0.001  0.050  0.055
   27  0.006  0.001  0.028  0.034
   28  0.000  0.001  0.005  0.006
   29  0.001  0.000  0.005  0.006
   30  0.008  0.001  0.003  0.012
   31  0.001  0.000  0.005  0.006
   32  0.003  0.001  0.005  0.009
   33  0.008  0.001  0.003  0.012
   34  0.003  0.001  0.005  0.009
   35  0.000  0.001  0.009  0.010
   36  0.000  0.000  0.003  0.003
   37  0.000  0.000  0.000  0.000
   38  0.000  0.000  0.000  0.000
tot    0.151  0.029  0.569  0.748
 
band    21 # energy   -5.22160696 # occ.  2.00000000
 
ion      s      p      d    tot
    1  0.013  0.001  0.001  0.015
    2  0.000  0.000  0.009  0.009
    3  0.000  0.000  0.009  0.009
    4  0.000  0.000  0.009  0.009
    5  0.014  0.002  0.001  0.017
    6  0.000  0.000  0.009  0.009
    7  0.000  0.000  0.009  0.009
    8  0.000  0.000  0.009  0.009
    9  0.000  0.000  0.002  0.002
   10  0.000  0.001  0.030  0.030
   11  0.004  0.001  0.016  0.021
   12  0.000  0.001  0.030  0.030
   13  0.004  0.001  0.016  0.021
   14  0.004  0.001  0.016  0.021
   15  0.001  0.000  0.023  0.024
   16  0.000  0.001  0.030  0.030