 vasp.6.2.0 18Jan21 (build Jun 12 2021 23:27:24) complex                        
  
 executed on             LinuxIFC date 2022.05.30  17:59:57
 running on   28 total cores
 distrk:  each k-point on   28 cores,    1 groups
 distr:  one band on NCORE=   1 cores,   28 groups


--------------------------------------------------------------------------------------------------------


 INCAR:
   ISMEAR = -5
   SIGMA = 0.1
   ISPIN = 1
   EDIFF = 1.d-5
   EDIFFG = -0.01
   NSW = 0
   NELM = 150
   ENCUT = 500
   ISIF = 2
   IBRION = 2
   LREAL = Auto
   ALGO = Fast
   ICHARG = 11
   LORBIT = 10
   LCHARG = .F.
   LWAVE = .F.

 POTCAR:    PAW_PBE Cu 22Jun2005                  
 POTCAR:    PAW_PBE Mn 06Sep2000                  
 POTCAR:    PAW_PBE O 08Apr2002                   
 -----------------------------------------------------------------------------
|                                                                             |
|           W    W    AA    RRRRR   N    N  II  N    N   GGGG   !!!           |
|           W    W   A  A   R    R  NN   N  II  NN   N  G    G  !!!           |
|           W    W  A    A  R    R  N N  N  II  N N  N  G       !!!           |
|           W WW W  AAAAAA  RRRRR   N  N N  II  N  N N  G  GGG   !            |
|           WW  WW  A    A  R   R   N   NN  II  N   NN  G    G                |
|           W    W  A    A  R    R  N    N  II  N    N   GGGG   !!!           |
|                                                                             |
|     For optimal performance we recommend to set                             |
|       NCORE = 2 up to number-of-cores-per-socket                            |
|     NCORE specifies how many cores store one orbital (NPAR=cpu/NCORE).      |
|     This setting can greatly improve the performance of VASP for DFT.       |
|     The default, NCORE=1 might be grossly inefficient on modern             |
|     multi-core architectures or massively parallel machines. Do your        |
|     own testing! More info at https://www.vasp.at/wiki/index.php/NCORE      |
|     Unfortunately you need to use the default for GW and RPA                |
|     calculations (for HF NCORE is supported but not extensively tested      |
|     yet).                                                                   |
|                                                                             |
 -----------------------------------------------------------------------------

 POTCAR:    PAW_PBE Cu 22Jun2005                  
   VRHFIN =Cu: d10 p1                                                                               
   LEXCH  = PE                                                                                      
   EATOM  =  1390.9808 eV,  102.2342 Ry                                                             
                                                                                                    
   TITEL  = PAW_PBE Cu 22Jun2005                                                                    
   LULTRA =        F    use ultrasoft PP ?                                                          
   IUNSCR =        1    unscreen: 0-lin 1-nonlin 2-no                                               
   RPACOR =    2.000    partial core radius                                                         
   POMASS =   63.546; ZVAL   =   11.000    mass and valenz                                          
   RCORE  =    2.300    outmost cutoff radius                                                       
   RWIGS  =    2.200; RWIGS  =    1.164    wigner-seitz radius (au A)                               
   ENMAX  =  295.446; ENMIN  =  221.585 eV                                                          
   ICORE  =        3    local potential                                                             
   LCOR   =        T    correct aug charges                                                         
   LPAW   =        T    paw PP                                                                      
   EAUG   =  586.980                                                                                
   DEXC   =    0.000                                                                                
   RMAX   =    2.344    core radius for proj-oper                                                   
   RAUG   =    1.300    factor for augmentation sphere                                              
   RDEP   =    2.302    radius for radial grids                                                     
   RDEPT  =    1.771    core radius for aug-charge                                                  
                                                                                                    
   Atomic configuration                                                                             
    9 entries                                                                                       
     n  l   j            E        occ.                                                              
     1  0  0.50     -8850.2468   2.0000                                                             
     2  0  0.50     -1062.3498   2.0000                                                             
     2  1  1.50      -916.8226   6.0000                                                             
     3  0  0.50      -114.6929   2.0000                                                             
     3  1  1.50       -72.1325   6.0000                                                             
     3  2  2.50        -5.0394  10.0000                                                             
     4  0  0.50        -4.6097   1.0000                                                             
     4  1  0.50        -4.0817   0.0000                                                             
     4  3  2.50        -1.3606   0.0000                                                             
   Description                                                                                      
     l       E           TYP  RCUT    TYP  RCUT                                                     
     2     -5.0393973     23  2.200                                                                 
     2     10.8846608     23  2.200                                                                 
     0     -4.6097109     23  2.200                                                                 
     0      8.2520465     23  2.200                                                                 
     1     -2.7211652     23  2.200                                                                 
     1     21.7055443     23  2.200                                                                 
     3      2.7211652     23  2.300                                                                 
  local pseudopotential read in
  partial core-charges read in
  partial kinetic energy density read in
  atomic valenz-charges read in
  non local Contribution for L=           2  read in
    real space projection operators read in
  non local Contribution for L=           2  read in
    real space projection operators read in
  non local Contribution for L=           0  read in
    real space projection operators read in
  non local Contribution for L=           0  read in
    real space projection operators read in
  non local Contribution for L=           1  read in
    real space projection operators read in
  non local Contribution for L=           1  read in
    real space projection operators read in
    PAW grid and wavefunctions read in
 
   number of l-projection  operators is LMAX  =           6
   number of lm-projection operators is LMMAX =          18
 
 POTCAR:    PAW_PBE Mn 06Sep2000                  
   VRHFIN =Mn: d6 s1                                                                                
   LEXCH  = PE                                                                                      
   EATOM  =   416.7541 eV,   30.6306 Ry                                                             
                                                                                                    
   TITEL  = PAW_PBE Mn 06Sep2000                                                                    
   LULTRA =        F    use ultrasoft PP ?                                                          
   IUNSCR =        1    unscreen: 0-lin 1-nonlin 2-no                                               
   RPACOR =    2.000    partial core radius                                                         
   POMASS =   54.938; ZVAL   =    7.000    mass and valenz                                          
   RCORE  =    2.300    outmost cutoff radius                                                       
   RWIGS  =    2.500; RWIGS  =    1.323    wigner-seitz radius (au A)                               
   ENMAX  =  269.864; ENMIN  =  202.398 eV                                                          
   RCLOC  =    1.725    cutoff for local pot                                                        
   LCOR   =        T    correct aug charges                                                         
   LPAW   =        T    paw PP                                                                      
   EAUG   =  500.711                                                                                
   DEXC   =    0.000                                                                                
   RMAX   =    2.343    core radius for proj-oper                                                   
   RAUG   =    1.300    factor for augmentation sphere                                              
   RDEP   =    2.338    radius for radial grids                                                     
   RDEPT  =    1.911    core radius for aug-charge                                                  
                                                                                                    
   Atomic configuration                                                                             
    9 entries                                                                                       
     n  l   j            E        occ.                                                              
     1  0  0.50     -6424.8288   2.0000                                                             
     2  0  0.50      -739.1154   2.0000                                                             
     2  1  1.50      -625.3949   6.0000                                                             
     3  0  0.50       -81.6100   2.0000                                                             
     3  1  1.50       -50.4667   6.0000                                                             
     3  2  2.50        -3.3745   6.0000                                                             
     4  0  0.50        -4.1331   1.0000                                                             
     4  1  0.50        -4.0817   0.0000                                                             
     4  3  2.50        -1.3606   0.0000                                                             
   Description                                                                                      
     l       E           TYP  RCUT    TYP  RCUT                                                     
     2     -3.3744664     23  2.300                                                                 
     2     -4.7350490     23  2.300                                                                 
     0     -4.1331408     23  2.300                                                                 
     0      7.6656614     23  2.300                                                                 
     1     -2.7211652     23  2.300                                                                 
     1     20.4087390     23  2.300                                                                 
  local pseudopotential read in
  partial core-charges read in
  partial kinetic energy density read in
  atomic valenz-charges read in
  non local Contribution for L=           2  read in
    real space projection operators read in
  non local Contribution for L=           2  read in
    real space projection operators read in
  non local Contribution for L=           0  read in
    real space projection operators read in
  non local Contribution for L=           0  read in
    real space projection operators read in
  non local Contribution for L=           1  read in
    real space projection operators read in
  non local Contribution for L=           1  read in
    real space projection operators read in
    PAW grid and wavefunctions read in
 
   number of l-projection  operators is LMAX  =           6
   number of lm-projection operators is LMMAX =          18
 
 POTCAR:    PAW_PBE O 08Apr2002                   
   VRHFIN =O: s2p4                                                                                  
   LEXCH  = PE                                                                                      
   EATOM  =   432.3788 eV,   31.7789 Ry                                                             
                                                                                                    
   TITEL  = PAW_PBE O 08Apr2002                                                                     
   LULTRA =        F    use ultrasoft PP ?                                                          
   IUNSCR =        1    unscreen: 0-lin 1-nonlin 2-no                                               
   RPACOR =    1.200    partial core radius                                                         
   POMASS =   16.000; ZVAL   =    6.000    mass and valenz                                          
   RCORE  =    1.520    outmost cutoff radius                                                       
   RWIGS  =    1.550; RWIGS  =    0.820    wigner-seitz radius (au A)                               
   ENMAX  =  400.000; ENMIN  =  300.000 eV                                                          
   ICORE  =        2    local potential                                                             
   LCOR   =        T    correct aug charges                                                         
   LPAW   =        T    paw PP                                                                      
   EAUG   =  605.392                                                                                
   DEXC   =    0.000                                                                                
   RMAX   =    1.553    core radius for proj-oper                                                   
   RAUG   =    1.300    factor for augmentation sphere                                              
   RDEP   =    1.550    radius for radial grids                                                     
   RDEPT  =    1.329    core radius for aug-charge                                                  
                                                                                                    
   Atomic configuration                                                                             
    4 entries                                                                                       
     n  l   j            E        occ.                                                              
     1  0  0.50      -514.6923   2.0000                                                             
     2  0  0.50       -23.9615   2.0000                                                             
     2  1  0.50        -9.0305   4.0000                                                             
     3  2  1.50        -9.5241   0.0000                                                             
   Description                                                                                      
     l       E           TYP  RCUT    TYP  RCUT                                                     
     0    -23.9615318     23  1.200                                                                 
     0     -9.5240782     23  1.200                                                                 
     1     -9.0304911     23  1.520                                                                 
     1      8.1634956     23  1.520                                                                 
     2     -9.5240782      7  1.500                                                                 
  local pseudopotential read in
  partial core-charges read in
  partial kinetic energy density read in
  kinetic energy density of atom read in
  atomic valenz-charges read in
  non local Contribution for L=           0  read in
    real space projection operators read in
  non local Contribution for L=           0  read in
    real space projection operators read in
  non local Contribution for L=           1  read in
    real space projection operators read in
  non local Contribution for L=           1  read in
    real space projection operators read in
    PAW grid and wavefunctions read in
 
   number of l-projection  operators is LMAX  =           4
   number of lm-projection operators is LMMAX =           8
 
 Optimization of the real space projectors (new method)

 maximal supplied QI-value         = 16.25
 optimisation between [QCUT,QGAM] = [ 11.38, 22.75] = [ 36.24,144.96] Ry 
 Optimized for a Real-space Cutoff    1.52 Angstroem

   l    n(q)    QCUT    max X(q) W(low)/X(q) W(high)/X(q)  e(spline) 
   2      9    11.376     4.610    0.21E-03    0.10E-03    0.26E-06
   2      9    11.376     8.522    0.33E-03    0.16E-03    0.37E-06
   0     10    11.376    51.609    0.62E-04    0.20E-04    0.13E-06
   0     10    11.376    27.747    0.54E-04    0.20E-04    0.13E-06
   1     10    11.376    20.408    0.13E-04    0.99E-04    0.19E-06
   1     10    11.376    13.425    0.12E-04    0.87E-04    0.17E-06
 Optimization of the real space projectors (new method)

 maximal supplied QI-value         = 16.25
 optimisation between [QCUT,QGAM] = [ 11.38, 22.75] = [ 36.24,144.96] Ry 
 Optimized for a Real-space Cutoff    1.39 Angstroem

   l    n(q)    QCUT    max X(q) W(low)/X(q) W(high)/X(q)  e(spline) 
   2      8    11.376   110.144    0.49E-03    0.27E-04    0.26E-06
   2      8    11.376   103.200    0.49E-03    0.28E-04    0.27E-06
   0      9    11.376    68.437    0.57E-04    0.92E-04    0.15E-06
   0      9    11.376    33.971    0.51E-04    0.83E-04    0.14E-06
   1      9    11.376    17.065    0.34E-03    0.68E-04    0.14E-06
   1      9    11.376    12.540    0.27E-03    0.59E-04    0.11E-06
 Optimization of the real space projectors (new method)

 maximal supplied QI-value         = 24.76
 optimisation between [QCUT,QGAM] = [ 11.39, 22.77] = [ 36.31,145.25] Ry 
 Optimized for a Real-space Cutoff    1.00 Angstroem

   l    n(q)    QCUT    max X(q) W(low)/X(q) W(high)/X(q)  e(spline) 
   0      7    11.387    20.381    0.39E-03    0.13E-02    0.15E-06
   0      7    11.387    15.268    0.42E-03    0.14E-02    0.17E-06
   1      6    11.387     5.964    0.41E-03    0.11E-02    0.17E-06
   1      6    11.387     5.382    0.39E-03    0.87E-03    0.15E-06
  PAW_PBE Cu 22Jun2005                  :
 energy of atom  1       EATOM=-1390.9808
 kinetic energy error for atom=    0.0043 (will be added to EATOM!!)
  PAW_PBE Mn 06Sep2000                  :
 energy of atom  2       EATOM= -416.7541
 kinetic energy error for atom=    0.0024 (will be added to EATOM!!)
  PAW_PBE O 08Apr2002                   :
 energy of atom  3       EATOM= -432.3788
 kinetic energy error for atom=    0.0224 (will be added to EATOM!!)
 
 
 POSCAR: Cu-Mn-O2
  positions in direct lattice
  velocities in cartesian coordinates
 exchange correlation table for  LEXCH =        8
   RHO(1)=    0.500       N(1)  =     2000
   RHO(2)=  100.500       N(2)  =     4000

 VTST: version 3.2, (02/03/18)

 CHAIN: initializing optimizer
 
 OPT: Using VASP Conjugate-Gradient optimizer
 CHAIN: Read ICHAIN            0
 
 POSCAR: Cu-Mn-O2
  positions in direct lattice
  velocities in cartesian coordinates
 


--------------------------------------------------------------------------------------------------------


 ion  position               nearest neighbor table
   1  0.000  0.000  0.226-   7 2.57   3 2.57   4 2.57   2 2.57   6 2.57   8 2.57  12 2.57  10 2.57
                            16 2.57
   2  0.333  0.000  0.226-   8 2.57   9 2.57   5 2.57   1 2.57   3 2.57  11 2.57   4 2.57  10 2.57
                            17 2.57
   3  0.667  0.000  0.226-   1 2.57   7 2.57   6 2.57   9 2.57   2 2.57  12 2.57   5 2.57  18 2.57
                            11 2.57
   4  0.000  0.333  0.226-   5 2.57   6 2.57   1 2.57   7 2.57   2 2.57  13 2.57   9 2.57  10 2.57
                            15 2.57
   5  0.333  0.333  0.226-   4 2.57   2 2.57   7 2.57  13 2.57   8 2.57   6 2.57   3 2.57  11 2.57
                            14 2.57
   6  0.667  0.333  0.226-   4 2.57   9 2.57  15 2.57   3 2.57   1 2.57   8 2.57  14 2.57   5 2.57
                            12 2.57
   7  0.000  0.667  0.226-   1 2.57   3 2.57  16 2.57  18 2.57   4 2.57   5 2.57   8 2.57   9 2.57
                            13 2.57
   8  0.333  0.667  0.226-   9 2.57   2 2.57  17 2.57   6 2.57   1 2.57   7 2.57   5 2.57  14 2.57
                            16 2.57
   9  0.667  0.667  0.226-   8 2.57   6 2.57   2 2.57  17 2.57   3 2.57   7 2.57   4 2.57  15 2.57
                            18 2.57
  10  0.111  0.111  0.314-  20 2.55  26 2.56  19 2.56  11 2.57  12 2.57  13 2.57   1 2.57   2 2.57
                             4 2.57  15 2.57  16 2.57  17 2.57
  11  0.444  0.111  0.314-  20 2.55  21 2.55  27 2.56  10 2.57  13 2.57   2 2.57  17 2.57  14 2.57
                            12 2.57   5 2.57   3 2.57  18 2.57
  12  0.778  0.111  0.314-  21 2.55  19 2.56  25 2.56  15 2.57  10 2.57  14 2.57  18 2.57   3 2.57
                             1 2.57  16 2.57  11 2.57   6 2.57
  13  0.111  0.444  0.314-  23 2.55  20 2.55  22 2.56  16 2.57  18 2.57  10 2.57  11 2.57  14 2.57
                             5 2.57   4 2.57   7 2.57  15 2.57
  14  0.444  0.444  0.314-  21 2.55  23 2.55  24 2.56  15 2.57  17 2.57  12 2.57  16 2.57  13 2.57
                            11 2.57   6 2.57   8 2.57   5 2.57
  15  0.778  0.444  0.314-  19 2.56  24 2.56  22 2.56  14 2.57  17 2.57  12 2.57   6 2.57  18 2.57
                            10 2.57   9 2.57  13 2.57   4 2.57
  16  0.111  0.778  0.314-  23 2.55  25 2.56  26 2.56  18 2.57  13 2.57   7 2.57  14 2.57  17 2.57
                            12 2.57  10 2.57   8 2.57   1 2.57
  17  0.444  0.778  0.314-  26 2.56  27 2.56  24 2.56  14 2.57  15 2.57   8 2.57   9 2.57  11 2.57
                            16 2.57  18 2.57  10 2.57   2 2.57
  18  0.778  0.778  0.314-  25 2.56  22 2.56  27 2.56  16 2.57  13 2.57   7 2.57  15 2.57  12 2.57
                            17 2.57   9 2.57   3 2.57  11 2.57
  19  0.889  0.222  0.402-  28 2.55  15 2.56  12 2.56  10 2.56  22 2.56  24 2.56  21 2.57  20 2.57
                            25 2.57  26 2.57  32 2.57  31 2.57
  20  0.222  0.222  0.401-  36 2.48  11 2.55  13 2.55  10 2.55  29 2.56  31 2.56  23 2.56  21 2.56
                            26 2.57  19 2.57  27 2.57  22 2.57
  21  0.555  0.222  0.401-  36 2.48  14 2.55  11 2.55  12 2.55  32 2.56  30 2.56  20 2.56  23 2.56
                            19 2.57  25 2.57  24 2.57  27 2.57
  22  0.888  0.556  0.402-  35 2.55  24 2.56  27 2.56  31 2.56  33 2.56  18 2.56  15 2.56  13 2.56
                            19 2.56  25 2.56  23 2.57  20 2.57
  23  0.222  0.555  0.401-  36 2.48  13 2.55  14 2.55  16 2.55  33 2.56  34 2.56  20 2.56  21 2.56
                            25 2.57  26 2.57  22 2.57  24 2.57
  24  0.556  0.556  0.402-  35 2.55  22 2.56  27 2.56  32 2.56  34 2.56  15 2.56  17 2.56  14 2.56
                            19 2.56  26 2.56  21 2.57  23 2.57
  25  0.889  0.889  0.402-  28 2.55  18 2.56  16 2.56  12 2.56  22 2.56  27 2.56  21 2.57  23 2.57
                            19 2.57  26 2.57  33 2.57  30 2.57
  26  0.222  0.889  0.402-  28 2.55  17 2.56  10 2.56  16 2.56  27 2.56  24 2.56  20 2.57  23 2.57
                            25 2.57  19 2.57  29 2.57  34 2.57
  27  0.556  0.888  0.402-  35 2.55  24 2.56  22 2.56  29 2.56  30 2.56  17 2.56  18 2.56  11 2.56
                            26 2.56  25 2.56  20 2.57  21 2.57
  28  0.000  0.000  0.489-  25 2.55  19 2.55  26 2.55  33 2.58  30 2.58  31 2.58  29 2.58  32 2.58
                            34 2.58
  29  0.333  0.003  0.489-  31 2.54  36 2.55  30 2.55  20 2.56  27 2.56  26 2.57  28 2.58  35 2.58
                            34 2.61
  30  0.664  0.003  0.489-  32 2.54  36 2.55  29 2.55  21 2.56  27 2.56  25 2.57  28 2.58  35 2.58
                            33 2.61
  31  0.003  0.333  0.489-  29 2.54  36 2.55  33 2.55  20 2.56  22 2.56  19 2.57  28 2.58  35 2.58
                            32 2.61
  32  0.664  0.333  0.489-  30 2.54  36 2.55  34 2.55  21 2.56  24 2.56  19 2.57  28 2.58  35 2.58
                            31 2.61
  33  0.003  0.664  0.489-  34 2.54  36 2.55  31 2.55  23 2.56  22 2.56  25 2.57  28 2.58  35 2.58
                            30 2.61
  34  0.333  0.664  0.489-  33 2.54  36 2.55  32 2.55  23 2.56  24 2.56  26 2.57  28 2.58  35 2.58
                            29 2.61
  35  0.667  0.667  0.489-  24 2.55  27 2.55  22 2.55  34 2.58  32 2.58  29 2.58  30 2.58  33 2.58
                            31 2.58
  36  0.333  0.333  0.485-  37 1.87  38 1.87  23 2.48  20 2.48  21 2.48  31 2.55  29 2.55  33 2.55
                            34 2.55  32 2.55  30 2.55
  37  0.240  0.332  0.557-  38 1.46  36 1.87
  38  0.429  0.332  0.557-  37 1.46  36 1.87
 
  LATTYP: Found a hexagonal cell.
 ALAT       =     7.6967864036
 C/A-ratio  =     3.0908716217
  
  Lattice vectors:
  
 A1 = (  -3.8483927580,  -6.6656128093,   0.0000000000)
 A2 = (   7.6967864037,   0.0000000000,   0.0000000000)
 A3 = (   0.0000000000,   0.0000000000,  23.7897786731)


Analysis of symmetry for initial positions (statically):
=====================================================================
 Subroutine PRICEL returns:
 Original cell was already a primitive cell.
 

 Routine SETGRP: Setting up the symmetry group for a 
 hexagonal supercell.


 Subroutine GETGRP returns: Found  2 space group operations
 (whereof  2 operations were pure point group operations)
 out of a pool of 24 trial point group operations.


The static configuration has the point symmetry C_1h.


Analysis of symmetry for dynamics (positions and initial velocities):
=====================================================================
 Subroutine PRICEL returns:
 Original cell was already a primitive cell.
 

 Routine SETGRP: Setting up the symmetry group for a 
 hexagonal supercell.


 Subroutine GETGRP returns: Found  2 space group operations
 (whereof  2 operations were pure point group operations)
 out of a pool of 24 trial point group operations.


The dynamic configuration has the point symmetry C_1h.


Analysis of constrained symmetry for selective dynamics:
=====================================================================
 Subroutine PRICEL returns:
 Original cell was already a primitive cell.
 

 Routine SETGRP: Setting up the symmetry group for a 
 hexagonal supercell.


 Subroutine GETGRP returns: Found  2 space group operations
 (whereof  2 operations were pure point group operations)
 out of a pool of 24 trial point group operations.


The constrained configuration has the point symmetry C_1h.


 Subroutine INISYM returns: Found  2 space group operations
 (whereof  2 operations are pure point group operations),
 and found     1 'primitive' translations


----------------------------------------------------------------------------------------

                                     Primitive cell                                     

  volume of cell :    1220.5060

  direct lattice vectors                    reciprocal lattice vectors
     7.696786404  0.000000000  0.000000000     0.129924354 -0.075011849  0.000000000
     3.848392758  6.665612809  0.000000000     0.000000000  0.150023716  0.000000000
     0.000000000  0.000000000 23.789778673     0.000000000  0.000000000  0.042034859

  length of vectors
     7.696786404  7.696786404 23.789778673     0.150023716  0.150023716  0.042034859

  position of ions in fractional coordinates (direct lattice)
     0.000000000  0.000000000  0.225792754
     0.333333343  0.000000000  0.225792754
     0.666666687  0.000000000  0.225792754
     1.000000000  0.333333343  0.225792754
     0.333333313  0.333333343  0.225792754
     0.666666687  0.333333343  0.225792754
     1.000000000  0.666666687  0.225792754
     0.333333373  0.666666687  0.225792754
     0.666666627  0.666666687  0.225792754
     0.111111119  0.111111112  0.313847389
     0.444444418  0.111111112  0.313847389
     0.777777791  0.111111112  0.313847389
     0.111111119  0.444444448  0.313847389
     0.444444478  0.444444448  0.313847389
     0.777777731  0.444444448  0.313847389
     0.111111112  0.777777731  0.313847389
     0.444444478  0.777777731  0.313847389
     0.777777851  0.777777731  0.313847389
     0.888776270  0.222447477  0.401570319
     0.222356541  0.222356526  0.401122206
     0.555286979  0.222356526  0.401122206
     0.888337319  0.555831311  0.401721709
     0.222356511  0.555286919  0.401122206
     0.555831371  0.555831311  0.401721709
     0.888776270  0.888776270  0.401570319
     0.222447492  0.888776270  0.401570319
     0.555831311  0.888337319  0.401721709
     0.000000000  0.000000000  0.488956749
     0.333090090  0.002964472  0.489415086
     0.663945468  0.002964472  0.489415086
     0.002964472  0.333090090  0.489415086
     0.663945468  0.333090090  0.489415086
     0.002964472  0.663945468  0.489415086
     0.333090120  0.663945468  0.489415086
     0.666666627  0.666666687  0.489034915
     0.333333313  0.333333343  0.484620833
     0.239567444  0.331590309  0.556978221
     0.428842216  0.331590309  0.556978221

  ion indices of the primitive-cell ions
   primitive index   ion index
                 1           1
                 2           2
                 3           3
                 4           4
                 5           5
                 6           6
                 7           7
                 8           8
                 9           9
                10          10
                11          11
                12          12
                13          13
                14          14
                15          15
                16          16
                17          17
                18          18
                19          19
                20          20
                21          21
                22          22
                23          23
                24          24
                25          25
                26          26
                27          27
                28          28
                29          29
                30          30
                31          31
                32          32
                33          33
                34          34
                35          35
                36          36
                37          37
                38          38

----------------------------------------------------------------------------------------

 
 
 KPOINTS: Automatic mesh                          

Automatic generation of k-mesh.
 Grid dimensions read from file:
 generate k-points for:    8    8    1

 Generating k-lattice:

  Cartesian coordinates                     Fractional coordinates (reciprocal lattice)
     0.016240544 -0.009376481  0.000000000     0.125000000 -0.000000000  0.000000000
     0.000000000  0.018752964  0.000000000     0.000000000  0.125000000  0.000000000
     0.000000000  0.000000000  0.042034859     0.000000000  0.000000000  1.000000000

  Length of vectors
     0.018752964  0.018752964  0.042034859

  Shift w.r.t. Gamma in fractional coordinates (k-lattice)
     0.000000000  0.000000000  0.000000000

 TETIRR: Found    100 inequivalent tetrahedra from      384
 
 Subroutine IBZKPT returns following result:
 ===========================================
 
 Found     21 irreducible k-points:
 
 Following reciprocal coordinates:
            Coordinates               Weight
  0.000000  0.000000  0.000000      1.000000
  0.125000 -0.000000  0.000000      4.000000
  0.000000  0.125000  0.000000      2.000000
  0.250000 -0.000000  0.000000      4.000000
  0.000000  0.250000  0.000000      2.000000
  0.375000 -0.000000  0.000000      4.000000
  0.000000  0.375000  0.000000      2.000000
  0.500000 -0.000000  0.000000      2.000000
  0.000000  0.500000  0.000000      1.000000
  0.250000  0.125000  0.000000      2.000000
  0.125000  0.250000  0.000000      4.000000
  0.375000  0.125000  0.000000      4.000000
  0.250000  0.375000  0.000000      4.000000
 -0.125000  0.250000  0.000000      4.000000
  0.500000  0.125000  0.000000      4.000000
  0.375000  0.500000  0.000000      4.000000
 -0.125000  0.375000  0.000000      4.000000
  0.500000  0.250000  0.000000      2.000000
  0.250000  0.500000  0.000000      4.000000
 -0.375000  0.250000  0.000000      4.000000
 -0.250000  0.375000  0.000000      2.000000
 
 Following cartesian coordinates:
            Coordinates               Weight
  0.000000  0.000000  0.000000      1.000000
  0.016241 -0.009376  0.000000      4.000000
  0.000000  0.018753  0.000000      2.000000
  0.032481 -0.018753  0.000000      4.000000
  0.000000  0.037506  0.000000      2.000000
  0.048722 -0.028129  0.000000      4.000000
  0.000000  0.056259  0.000000      2.000000
  0.064962 -0.037506  0.000000      2.000000
  0.000000  0.075012  0.000000      1.000000
  0.032481  0.000000  0.000000      2.000000
  0.016241  0.028129  0.000000      4.000000
  0.048722 -0.009376  0.000000      4.000000
  0.032481  0.037506  0.000000      4.000000
 -0.016241  0.046882  0.000000      4.000000
  0.064962 -0.018753  0.000000      4.000000
  0.048722  0.046882  0.000000      4.000000
 -0.016241  0.065635  0.000000      4.000000
  0.064962  0.000000  0.000000      2.000000
  0.032481  0.056259  0.000000      4.000000
 -0.048722  0.065635  0.000000      4.000000
 -0.032481  0.075012  0.000000      2.000000
 


--------------------------------------------------------------------------------------------------------




 Dimension of arrays:
   k-points           NKPTS =     21   k-points in BZ     NKDIM =     21   number of bands    NBANDS=    252
   number of dos      NEDOS =    301   number of ions     NIONS =     38
   non local maximal  LDIM  =      6   non local SUM 2l+1 LMDIM =     18
   total plane-waves  NPLWV = 246960
   max r-space proj   IRMAX =   3018   max aug-charges    IRDMAX=   7638
   dimension x,y,z NGX =    42 NGY =   42 NGZ =  140
   dimension x,y,z NGXF=    84 NGYF=   84 NGZF=  280
   support grid    NGXF=    84 NGYF=   84 NGZF=  280
   ions per type =              35   1   2
   NGX,Y,Z   is equivalent  to a cutoff of   9.07,  9.07,  9.78 a.u.
   NGXF,Y,Z  is equivalent  to a cutoff of  18.14, 18.14, 19.57 a.u.

 SYSTEM =  unknown system                          
 POSCAR =  Cu-Mn-O2                                

 Startparameter for this run:
   NWRITE =      2    write-flag & timer
   PREC   = normal    normal or accurate (medium, high low for compatibility)
   ISTART =      0    job   : 0-new  1-cont  2-samecut
   ICHARG =     11    charge: 1-file 2-atom 10-const
   ISPIN  =      1    spin polarized calculation?
   LNONCOLLINEAR =      F non collinear calculations
   LSORBIT =      F    spin-orbit coupling
   INIWAV =      1    electr: 0-lowe 1-rand  2-diag
   LASPH  =      F    aspherical Exc in radial PAW
   METAGGA=      F    non-selfconsistent MetaGGA calc.

 Electronic Relaxation 1
   ENCUT  =  500.0 eV  36.75 Ry    6.06 a.u.  14.03 14.03 43.37*2*pi/ulx,y,z
   ENINI  =  500.0     initial cutoff
   ENAUG  =  605.4 eV  augmentation charge cutoff
   NELM   =    150;   NELMIN=  2; NELMDL= -5     # of ELM steps 
   EDIFF  = 0.1E-04   stopping-criterion for ELM
   LREAL  =      T    real-space projection
   NLSPLINE    = F    spline interpolate recip. space projectors
   LCOMPAT=      F    compatible to vasp.4.4
   GGA_COMPAT  = T    GGA compatible to vasp.4.4-vasp.4.6
   LMAXPAW     = -100 max onsite density
   LMAXMIX     =    2 max onsite mixed and CHGCAR
   VOSKOWN=      0    Vosko Wilk Nusair interpolation
   ROPT   =   -0.00050  -0.00050  -0.00050
 Ionic relaxation
   EDIFFG = -.1E-01   stopping-criterion for IOM
   NSW    =      0    number of steps for IOM
   NBLOCK =      1;   KBLOCK =      1    inner block; outer block 
   IBRION =     -1    ionic relax: 0-MD 1-quasi-New 2-CG
   NFREE  =      1    steps in history (QN), initial steepest desc. (CG)
   ISIF   =      2    stress and relaxation
   IWAVPR =     10    prediction:  0-non 1-charg 2-wave 3-comb
   ISYM   =      2    0-nonsym 1-usesym 2-fastsym
   LCORR  =      T    Harris-Foulkes like correction to forces

   POTIM  = 0.5000    time-step for ionic-motion
   TEIN   =    0.0    initial temperature
   TEBEG  =    0.0;   TEEND  =   0.0 temperature during run
   SMASS  =  -3.00    Nose mass-parameter (am)
   estimated Nose-frequenzy (Omega)   =  0.10E-29 period in steps = 0.13E+47 mass=  -0.135E-26a.u.
   SCALEE = 1.0000    scale energy and forces
   NPACO  =    256;   APACO  = 16.0  distance and # of slots for P.C.
   PSTRESS=    0.0 pullay stress

  Mass of Ions in am
   POMASS =  63.55 54.94 16.00
  Ionic Valenz
   ZVAL   =  11.00  7.00  6.00
  Atomic Wigner-Seitz radii
   RWIGS  =  -1.00 -1.00 -1.00
  virtual crystal weights 
   VCA    =   1.00  1.00  1.00
   NELECT =     404.0000    total number of electrons
   NUPDOWN=      -1.0000    fix difference up-down

 DOS related values:
   EMIN   =  10.00;   EMAX   =-10.00  energy-range for DOS
   EFERMI =   0.00
   ISMEAR =    -5;   SIGMA  =   0.10  broadening in eV -4-tet -1-fermi 0-gaus

 Electronic relaxation 2 (details)
   IALGO  =     68    algorithm
   LDIAG  =      T    sub-space diagonalisation (order eigenvalues)
   LSUBROT=      F    optimize rotation matrix (better conditioning)
   TURBO    =      0    0=normal 1=particle mesh
   IRESTART =      0    0=no restart 2=restart with 2 vectors
   NREBOOT  =      0    no. of reboots
   NMIN     =      0    reboot dimension
   EREF     =   0.00    reference energy to select bands
   IMIX   =      4    mixing-type and parameters
     AMIX     =   0.40;   BMIX     =  1.00
     AMIX_MAG =   1.60;   BMIX_MAG =  1.00
     AMIN     =   0.10
     WC   =   100.;   INIMIX=   1;  MIXPRE=   1;  MAXMIX= -45

 Intra band minimization:
   WEIMIN = 0.0000     energy-eigenvalue tresh-hold
   EBREAK =  0.99E-08  absolut break condition
   DEPER  =   0.30     relativ break condition  

   TIME   =   0.40     timestep for ELM

  volume/ion in A,a.u.               =      32.12       216.75
  Fermi-wavevector in a.u.,A,eV,Ry     =   1.132458  2.140035 17.448933  1.282460
  Thomas-Fermi vector in A             =   2.269159
 
 Write flags
   LWAVE        =      F    write WAVECAR
   LDOWNSAMPLE  =      F    k-point downsampling of WAVECAR
   LCHARG       =      F    write CHGCAR
   LVTOT        =      F    write LOCPOT, total local potential
   LVHAR        =      F    write LOCPOT, Hartree potential only
   LELF         =      F    write electronic localiz. function (ELF)
   LORBIT       =     10    0 simple, 1 ext, 2 COOP (PROOUT), +10 PAW based schemes


 Dipole corrections
   LMONO  =      F    monopole corrections only (constant potential shift)
   LDIPOL =      F    correct potential (dipole corrections)
   IDIPOL =      0    1-x, 2-y, 3-z, 4-all directions 
   EPSILON=  1.0000000 bulk dielectric constant

 Exchange correlation treatment:
   GGA     =    --    GGA type
   LEXCH   =     8    internal setting for exchange type
   VOSKOWN=      0    Vosko Wilk Nusair interpolation
   LHFCALC =     F    Hartree Fock is set to
   LHFONE  =     F    Hartree Fock one center treatment
   AEXX    =    0.0000 exact exchange contribution

 Linear response parameters
   LEPSILON=     F    determine dielectric tensor
   LRPA    =     F    only Hartree local field effects (RPA)
   LNABLA  =     F    use nabla operator in PAW spheres
   LVEL    =     F    velocity operator in full k-point grid
   LINTERFAST=   F  fast interpolation
   KINTER  =     0    interpolate to denser k-point grid
   CSHIFT  =0.1000    complex shift for real part using Kramers Kronig
   OMEGAMAX=  -1.0    maximum frequency
   DEG_THRESHOLD= 0.2000000E-02 threshold for treating states as degnerate
   RTIME   =   -0.100 relaxation time in fs
  (WPLASMAI=    0.000 imaginary part of plasma frequency in eV, 0.658/RTIME)
   DFIELD  = 0.0000000 0.0000000 0.0000000 field for delta impulse in time
 
 Orbital magnetization related:
   ORBITALMAG=     F  switch on orbital magnetization
   LCHIMAG   =     F  perturbation theory with respect to B field
   DQ        =  0.001000  dq finite difference perturbation B field
   LLRAUG    =     F  two centre corrections for induced B field



--------------------------------------------------------------------------------------------------------


 Static calculation
 charge density and potential remain constant during run
 non-spin polarized calculation
 RMM-DIIS sequential band-by-band and
  variant of blocked Davidson during initial phase
 perform sub-space diagonalisation
    before iterative eigenvector-optimisation
 no mixing
 using additional bands           50
 real space projection scheme for non local part
 use partial core corrections
 calculate Harris-corrections to forces 
   (improved forces if not selfconsistent)
 use gradient corrections 
 WARNING: stress and forces are not correct
  (second derivative of E(xc) not defined)
 use of overlap-Matrix (Vanderbilt PP)
 Fermi weights with tetrahedron method with Bloechl corrections


--------------------------------------------------------------------------------------------------------


  energy-cutoff  :      500.00
  volume of cell :     1220.51
      direct lattice vectors                 reciprocal lattice vectors
     7.696786404  0.000000000  0.000000000     0.129924354 -0.075011849  0.000000000
     3.848392758  6.665612809  0.000000000     0.000000000  0.150023716  0.000000000
     0.000000000  0.000000000 23.789778673     0.000000000  0.000000000  0.042034859

  length of vectors
     7.696786404  7.696786404 23.789778673     0.150023716  0.150023716  0.042034859


 
 k-points in units of 2pi/SCALE and weight: Automatic mesh                          
   0.00000000  0.00000000  0.00000000       0.016
   0.01624054 -0.00937648  0.00000000       0.062
   0.00000000  0.01875296  0.00000000       0.031
   0.03248109 -0.01875296  0.00000000       0.062
   0.00000000  0.03750593  0.00000000       0.031
   0.04872163 -0.02812944  0.00000000       0.062
   0.00000000  0.05625889  0.00000000       0.031
   0.06496218 -0.03750592  0.00000000       0.031
   0.00000000  0.07501186  0.00000000       0.016
   0.03248109  0.00000000  0.00000000       0.031
   0.01624054  0.02812945  0.00000000       0.062
   0.04872163 -0.00937648  0.00000000       0.062
   0.03248109  0.03750593  0.00000000       0.062
  -0.01624054  0.04688241  0.00000000       0.062
   0.06496218 -0.01875296  0.00000000       0.062
   0.04872163  0.04688241  0.00000000       0.062
  -0.01624054  0.06563537  0.00000000       0.062
   0.06496218  0.00000000  0.00000000       0.031
   0.03248109  0.05625890  0.00000000       0.062
  -0.04872163  0.06563537  0.00000000       0.062
  -0.03248109  0.07501186  0.00000000       0.031
 
 k-points in reciprocal lattice and weights: Automatic mesh                          
   0.00000000  0.00000000  0.00000000       0.016
   0.12500000 -0.00000000  0.00000000       0.062
   0.00000000  0.12500000  0.00000000       0.031
   0.25000000 -0.00000000  0.00000000       0.062
   0.00000000  0.25000000  0.00000000       0.031
   0.37500000 -0.00000000  0.00000000       0.062
   0.00000000  0.37500000  0.00000000       0.031
   0.50000000 -0.00000000  0.00000000       0.031
   0.00000000  0.50000000  0.00000000       0.016
   0.25000000  0.12500000  0.00000000       0.031
   0.12500000  0.25000000  0.00000000       0.062
   0.37500000  0.12500000  0.00000000       0.062
   0.25000000  0.37500000  0.00000000       0.062
  -0.12500000  0.25000000  0.00000000       0.062
   0.50000000  0.12500000  0.00000000       0.062
   0.37500000  0.50000000  0.00000000       0.062
  -0.12500000  0.37500000  0.00000000       0.062
   0.50000000  0.25000000  0.00000000       0.031
   0.25000000  0.50000000  0.00000000       0.062
  -0.37500000  0.25000000  0.00000000       0.062
  -0.25000000  0.37500000  0.00000000       0.031
 
 position of ions in fractional coordinates (direct lattice) 
   0.00000000  0.00000000  0.22579275
   0.33333334  0.00000000  0.22579275
   0.66666669  0.00000000  0.22579275
   0.00000000  0.33333334  0.22579275
   0.33333331  0.33333334  0.22579275
   0.66666669  0.33333334  0.22579275
   0.00000000  0.66666669  0.22579275
   0.33333337  0.66666669  0.22579275
   0.66666663  0.66666669  0.22579275
   0.11111112  0.11111111  0.31384739
   0.44444442  0.11111111  0.31384739
   0.77777779  0.11111111  0.31384739
   0.11111112  0.44444445  0.31384739
   0.44444448  0.44444445  0.31384739
   0.77777773  0.44444445  0.31384739
   0.11111111  0.77777773  0.31384739
   0.44444448  0.77777773  0.31384739
   0.77777785  0.77777773  0.31384739
   0.88877627  0.22244748  0.40157032
   0.22235654  0.22235653  0.40112221
   0.55528698  0.22235653  0.40112221
   0.88833732  0.55583131  0.40172171
   0.22235651  0.55528692  0.40112221
   0.55583137  0.55583131  0.40172171
   0.88877627  0.88877627  0.40157032
   0.22244749  0.88877627  0.40157032
   0.55583131  0.88833732  0.40172171
   0.00000000  0.00000000  0.48895675
   0.33309009  0.00296447  0.48941509
   0.66394547  0.00296447  0.48941509
   0.00296447  0.33309009  0.48941509
   0.66394547  0.33309009  0.48941509
   0.00296447  0.66394547  0.48941509
   0.33309012  0.66394547  0.48941509
   0.66666663  0.66666669  0.48903492
   0.33333331  0.33333334  0.48462083
   0.23956744  0.33159031  0.55697822
   0.42884222  0.33159031  0.55697822
 
 position of ions in cartesian coordinates  (Angst):
   0.00000000  0.00000000  5.37155964
   2.56559554  0.00000000  5.37155964
   5.13119109  0.00000000  5.37155964
   1.28279762  2.22187100  5.37155964
   3.84839293  2.22187100  5.37155964
   6.41398872  2.22187100  5.37155964
   2.56559525  4.44374201  5.37155964
   5.13119102  4.44374201  5.37155964
   7.69678588  4.44374201  5.37155964
   1.28279775  0.74062365  7.46635991
   3.84839295  0.74062365  7.46635991
   6.41398873  0.74062365  7.46635991
   2.56559535  2.96249461  7.46635991
   5.13119101  2.96249461  7.46635991
   7.69678586  2.96249461  7.46635991
   3.84839268  5.18436521  7.46635991
   6.41398840  5.18436521  7.46635991
   8.97958418  5.18436521  7.46635991
   7.69678637  1.48274875  9.55326900
   2.56714604  1.48214251  9.54260849
   5.12964051  1.48214251  9.54260849
   8.97639979  3.70495630  9.55687053
   3.84839272  3.70132760  9.54260849
   6.41717253  3.70495630  9.55687053
  10.26108127  5.92423849  9.55326900
   5.13249099  5.92423849  9.55326900
   7.69678578  5.92131261  9.55687053
   0.00000000  0.00000000 11.63217284
   2.57513173  0.01976003 11.64307657
   5.12165490  0.01976003 11.64307657
   1.30467840  2.22024957 11.64307657
   6.39210794  2.22024957 11.64307657
   2.57793984  4.42560341 11.64307657
   5.11884644  4.42560341 11.64307657
   7.69678588  4.44374201 11.63403240
   3.84839293  2.22187100 11.52902236
   3.11998919  2.21025261 13.25038861
   4.57679668  2.21025261 13.25038861
 


--------------------------------------------------------------------------------------------------------


 k-point   1 :   0.0000 0.0000 0.0000  plane waves:   30861
 k-point   2 :   0.1250-0.0000 0.0000  plane waves:   30923
 k-point   3 :   0.0000 0.1250 0.0000  plane waves:   30923
 k-point   4 :   0.2500-0.0000 0.0000  plane waves:   31010
 k-point   5 :   0.0000 0.2500 0.0000  plane waves:   31010
 k-point   6 :   0.3750-0.0000 0.0000  plane waves:   30958
 k-point   7 :   0.0000 0.3750 0.0000  plane waves:   30958
 k-point   8 :   0.5000-0.0000 0.0000  plane waves:   30974
 k-point   9 :   0.0000 0.5000 0.0000  plane waves:   30974
 k-point  10 :   0.2500 0.1250 0.0000  plane waves:   30938
 k-point  11 :   0.1250 0.2500 0.0000  plane waves:   30938
 k-point  12 :   0.3750 0.1250 0.0000  plane waves:   30990
 k-point  13 :   0.2500 0.3750 0.0000  plane waves:   30990
 k-point  14 :  -0.1250 0.2500 0.0000  plane waves:   30990
 k-point  15 :   0.5000 0.1250 0.0000  plane waves:   31017
 k-point  16 :   0.3750 0.5000 0.0000  plane waves:   31017
 k-point  17 :  -0.1250 0.3750 0.0000  plane waves:   31017
 k-point  18 :   0.5000 0.2500 0.0000  plane waves:   30996
 k-point  19 :   0.2500 0.5000 0.0000  plane waves:   30996
 k-point  20 :  -0.3750 0.2500 0.0000  plane waves:   31036
 k-point  21 :  -0.2500 0.3750 0.0000  plane waves:   31036

 maximum and minimum number of plane-waves per node :     31036    30861

 maximum number of plane-waves:     31036
 maximum index in each direction: 
   IXMAX=   14   IYMAX=   14   IZMAX=   43
   IXMIN=  -14   IYMIN=  -14   IZMIN=  -43


 serial   3D FFT for wavefunctions
 parallel 3D FFT for charge:
    minimum data exchange during FFTs selected (reduces bandwidth)


 total amount of memory used by VASP MPI-rank0   162844. kBytes
=======================================================================

   base      :      30000. kBytes
   nonlr-proj:      18481. kBytes
   fftplans  :       3394. kBytes
   grid      :      14446. kBytes
   one-center:        590. kBytes
   wavefun   :      95933. kBytes
 
     INWAV:  cpu time    0.0000: real time    0.0000
 initial charge density was supplied:
 number of electron     404.0000082 magnetization 
 keeping initial charge density in first step


--------------------------------------------------------------------------------------------------------


 Maximum index for non-local projection operator         2922
 Maximum index for augmentation-charges          422 (set IRDMAX)


--------------------------------------------------------------------------------------------------------


 First call to EWALD:  gamma=   0.166
 Maximum number of real-space cells 4x 4x 2
 Maximum number of reciprocal cells 2x 2x 6

    FEWALD:  cpu time    0.0013: real time    0.0013


--------------------------------------- Iteration      1(   1)  ---------------------------------------


    POTLOK:  cpu time    0.0311: real time    0.0315
    SETDIJ:  cpu time    0.0040: real time    0.0041
     EDDAV:  cpu time   13.4714: real time   13.4729
 BZINTS: Fermi energy:   12.946915;  404.000000 electrons
         Band energy: 0.239260E+04;  BLOECHL correction:   -0.028699
       DOS:  cpu time    0.0305: real time    0.0306
    --------------------------------------------
      LOOP:  cpu time   13.5370: real time   13.5391

 eigenvalue-minimisations  : 10584
 total energy-change (2. order) : 0.3664743E+04  (-0.1735765E+05)
 number of electron     404.0000082 magnetization 
 augmentation part      404.0000082 magnetization 

 Free energy of the ion-electron system (eV)
  ---------------------------------------------------
  alpha Z        PSCENC =       811.68303918
  Ewald energy   TEWEN  =    199368.95127621
  -Hartree energ DENC   =   -246718.79519807
  -exchange      EXHF   =         0.00000000
  -V(xc)+E(xc)   XCENC  =      1601.76942555
  PAW double counting   =     47049.31410648   -50806.42422934
  entropy T*S    EENTRO =         0.00000000
  eigenvalues    EBANDS =      2392.60086711
  atomic energy  EATOM  =     49965.64366254
  Solvation  Ediel_sol  =         0.00000000
  ---------------------------------------------------
  free energy    TOTEN  =      3664.74294965 eV

  energy without entropy =     3664.74294965  energy(sigma->0) =     3664.74294965


--------------------------------------------------------------------------------------------------------




--------------------------------------- Iteration      1(   2)  ---------------------------------------


     EDDAV:  cpu time   13.4553: real time   13.4554
 BZINTS: Fermi energy:    2.499058;  404.000000 electrons
         Band energy:-0.906570E+03;  BLOECHL correction:   -0.018468
       DOS:  cpu time    0.0316: real time    0.0316
    --------------------------------------------
      LOOP:  cpu time   13.4869: real time   13.4870

 eigenvalue-minimisations  : 10584
 total energy-change (2. order) :-0.3299171E+04  (-0.3175029E+04)
 number of electron     404.0000082 magnetization 
 augmentation part      404.0000082 magnetization 

 Free energy of the ion-electron system (eV)
  ---------------------------------------------------
  alpha Z        PSCENC =       811.68303918
  Ewald energy   TEWEN  =    199368.95127621
  -Hartree energ DENC   =   -246718.79519807
  -exchange      EXHF   =         0.00000000
  -V(xc)+E(xc)   XCENC  =      1601.76942555
  PAW double counting   =     47049.31410648   -50806.42422934
  entropy T*S    EENTRO =         0.00000000
  eigenvalues    EBANDS =      -906.56972957
  atomic energy  EATOM  =     49965.64366254
  Solvation  Ediel_sol  =         0.00000000
  ---------------------------------------------------
  free energy    TOTEN  =       365.57235298 eV

  energy without entropy =      365.57235298  energy(sigma->0) =      365.57235298


--------------------------------------------------------------------------------------------------------




--------------------------------------- Iteration      1(   3)  ---------------------------------------


     EDDAV:  cpu time   14.8592: real time   14.8594
 BZINTS: Fermi energy:   -0.205505;  404.000000 electrons
         Band energy:-0.137390E+04;  BLOECHL correction:   -0.046149
       DOS:  cpu time    0.0294: real time    0.0294
    --------------------------------------------
      LOOP:  cpu time   14.8887: real time   14.8888

 eigenvalue-minimisations  : 11956
 total energy-change (2. order) :-0.4673295E+03  (-0.4417341E+03)
 number of electron     404.0000082 magnetization 
 augmentation part      404.0000082 magnetization 

 Free energy of the ion-electron system (eV)
  ---------------------------------------------------
  alpha Z        PSCENC =       811.68303918
  Ewald energy   TEWEN  =    199368.95127621
  -Hartree energ DENC   =   -246718.79519807
  -exchange      EXHF   =         0.00000000
  -V(xc)+E(xc)   XCENC  =      1601.76942555
  PAW double counting   =     47049.31410648   -50806.42422934
  entropy T*S    EENTRO =         0.00000000
  eigenvalues    EBANDS =     -1373.89917962
  atomic energy  EATOM  =     49965.64366254
  Solvation  Ediel_sol  =         0.00000000
  ---------------------------------------------------
  free energy    TOTEN  =      -101.75709708 eV

  energy without entropy =     -101.75709708  energy(sigma->0) =     -101.75709708


--------------------------------------------------------------------------------------------------------




--------------------------------------- Iteration      1(   4)  ---------------------------------------


     EDDAV:  cpu time   19.7165: real time   19.7164
 BZINTS: Fermi energy:   -0.464933;  404.000000 electrons
         Band energy:-0.141190E+04;  BLOECHL correction:   -0.031191
       DOS:  cpu time    0.0298: real time    0.0298
    --------------------------------------------
      LOOP:  cpu time   19.7463: real time   19.7462

 eigenvalue-minimisations  : 16688
 total energy-change (2. order) :-0.3799607E+02  (-0.3637471E+02)
 number of electron     404.0000082 magnetization 
 augmentation part      404.0000082 magnetization 

 Free energy of the ion-electron system (eV)
  ---------------------------------------------------
  alpha Z        PSCENC =       811.68303918
  Ewald energy   TEWEN  =    199368.95127621
  -Hartree energ DENC   =   -246718.79519807
  -exchange      EXHF   =         0.00000000
  -V(xc)+E(xc)   XCENC  =      1601.76942555
  PAW double counting   =     47049.31410648   -50806.42422934
  entropy T*S    EENTRO =         0.00000000
  eigenvalues    EBANDS =     -1411.89524989
  atomic energy  EATOM  =     49965.64366254
  Solvation  Ediel_sol  =         0.00000000
  ---------------------------------------------------
  free energy    TOTEN  =      -139.75316735 eV

  energy without entropy =     -139.75316735  energy(sigma->0) =     -139.75316735


--------------------------------------------------------------------------------------------------------




--------------------------------------- Iteration      1(   5)  ---------------------------------------


     EDDAV:  cpu time   15.6868: real time   15.6867
 BZINTS: Fermi energy:   -0.484844;  404.000000 electrons
         Band energy:-0.141302E+04;  BLOECHL correction:   -0.030580
       DOS:  cpu time    0.0305: real time    0.0305
    --------------------------------------------
      LOOP:  cpu time   15.7173: real time   15.7172

 eigenvalue-minimisations  : 12768
 total energy-change (2. order) :-0.1124122E+01  (-0.1113773E+01)
 number of electron     404.0000082 magnetization 
 augmentation part      404.0000082 magnetization 

 Free energy of the ion-electron system (eV)
  ---------------------------------------------------
  alpha Z        PSCENC =       811.68303918
  Ewald energy   TEWEN  =    199368.95127621
  -Hartree energ DENC   =   -246718.79519807
  -exchange      EXHF   =         0.00000000
  -V(xc)+E(xc)   XCENC  =      1601.76942555
  PAW double counting   =     47049.31410648   -50806.42422934
  entropy T*S    EENTRO =         0.00000000
  eigenvalues    EBANDS =     -1413.01937220
  atomic energy  EATOM  =     49965.64366254
  Solvation  Ediel_sol  =         0.00000000
  ---------------------------------------------------
  free energy    TOTEN  =      -140.87728966 eV

  energy without entropy =     -140.87728966  energy(sigma->0) =     -140.87728966


--------------------------------------------------------------------------------------------------------




--------------------------------------- Iteration      1(   6)  ---------------------------------------


    EDDIAG:  cpu time    2.5382: real time    2.5384
  RMM-DIIS:  cpu time    7.7808: real time    7.7808
    ORTHCH:  cpu time    0.4723: real time    0.4724
 BZINTS: Fermi energy:   -0.484909;  404.000000 electrons
         Band energy:-0.141304E+04;  BLOECHL correction:   -0.030575
       DOS:  cpu time    0.0305: real time    0.0305
    --------------------------------------------
      LOOP:  cpu time   10.8219: real time   10.8220

 eigenvalue-minimisations  : 11586
 total energy-change (2. order) :-0.1729715E-01  (-0.1729607E-01)
 number of electron     404.0000082 magnetization 
 augmentation part      404.0000082 magnetization 

 Free energy of the ion-electron system (eV)
  ---------------------------------------------------
  alpha Z        PSCENC =       811.68303918
  Ewald energy   TEWEN  =    199368.95127621
  -Hartree energ DENC   =   -246718.79519807
  -exchange      EXHF   =         0.00000000
  -V(xc)+E(xc)   XCENC  =      1601.76942555
  PAW double counting   =     47049.31410648   -50806.42422934
  entropy T*S    EENTRO =         0.00000000
  eigenvalues    EBANDS =     -1413.03666935
  atomic energy  EATOM  =     49965.64366254
  Solvation  Ediel_sol  =         0.00000000
  ---------------------------------------------------
  free energy    TOTEN  =      -140.89458681 eV

  energy without entropy =     -140.89458681  energy(sigma->0) =     -140.89458681


--------------------------------------------------------------------------------------------------------




--------------------------------------- Iteration      1(   7)  ---------------------------------------


    EDDIAG:  cpu time    2.5368: real time    2.5368
  RMM-DIIS:  cpu time   10.6280: real time   10.6279
    ORTHCH:  cpu time    0.4725: real time    0.4725
 BZINTS: Fermi energy:   -0.484930;  404.000000 electrons
         Band energy:-0.141304E+04;  BLOECHL correction:   -0.030575
       DOS:  cpu time    0.0305: real time    0.0305
    --------------------------------------------
      LOOP:  cpu time   13.6678: real time   13.6678

 eigenvalue-minimisations  : 15806
 total energy-change (2. order) :-0.6725186E-02  (-0.6584598E-02)
 number of electron     404.0000082 magnetization 
 augmentation part      404.0000082 magnetization 

 Free energy of the ion-electron system (eV)
  ---------------------------------------------------
  alpha Z        PSCENC =       811.68303918
  Ewald energy   TEWEN  =    199368.95127621
  -Hartree energ DENC   =   -246718.79519807
  -exchange      EXHF   =         0.00000000
  -V(xc)+E(xc)   XCENC  =      1601.76942555
  PAW double counting   =     47049.31410648   -50806.42422934
  entropy T*S    EENTRO =         0.00000000
  eigenvalues    EBANDS =     -1413.04339453
  atomic energy  EATOM  =     49965.64366254
  Solvation  Ediel_sol  =         0.00000000
  ---------------------------------------------------
  free energy    TOTEN  =      -140.90131199 eV

  energy without entropy =     -140.90131199  energy(sigma->0) =     -140.90131199


--------------------------------------------------------------------------------------------------------




--------------------------------------- Iteration      1(   8)  ---------------------------------------


    EDDIAG:  cpu time    2.5348: real time    2.5349
  RMM-DIIS:  cpu time    9.0296: real time    9.0296
    ORTHCH:  cpu time    0.4715: real time    0.4715
 BZINTS: Fermi energy:   -0.484934;  404.000000 electrons
         Band energy:-0.141304E+04;  BLOECHL correction:   -0.030574
       DOS:  cpu time    0.0292: real time    0.0292
    --------------------------------------------
      LOOP:  cpu time   12.0651: real time   12.0653

 eigenvalue-minimisations  : 13683
 total energy-change (2. order) :-0.5081845E-03  (-0.5563616E-03)
 number of electron     404.0000082 magnetization 
 augmentation part      404.0000082 magnetization 

 Free energy of the ion-electron system (eV)
  ---------------------------------------------------
  alpha Z        PSCENC =       811.68303918
  Ewald energy   TEWEN  =    199368.95127621
  -Hartree energ DENC   =   -246718.79519807
  -exchange      EXHF   =         0.00000000
  -V(xc)+E(xc)   XCENC  =      1601.76942555
  PAW double counting   =     47049.31410648   -50806.42422934
  entropy T*S    EENTRO =         0.00000000
  eigenvalues    EBANDS =     -1413.04390272
  atomic energy  EATOM  =     49965.64366254
  Solvation  Ediel_sol  =         0.00000000
  ---------------------------------------------------
  free energy    TOTEN  =      -140.90182018 eV

  energy without entropy =     -140.90182018  energy(sigma->0) =     -140.90182018


--------------------------------------------------------------------------------------------------------




--------------------------------------- Iteration      1(   9)  ---------------------------------------


    EDDIAG:  cpu time    2.5340: real time    2.5341
  RMM-DIIS:  cpu time   10.4110: real time   10.4110
    ORTHCH:  cpu time    0.4715: real time    0.4715
 BZINTS: Fermi energy:   -0.484934;  404.000000 electrons
         Band energy:-0.141304E+04;  BLOECHL correction:   -0.030574
       DOS:  cpu time    0.0305: real time    0.0305
    --------------------------------------------
      LOOP:  cpu time   13.4472: real time   13.4472

 eigenvalue-minimisations  : 15487
 total energy-change (2. order) :-0.9030293E-04  (-0.9149863E-04)
 number of electron     404.0000082 magnetization 
 augmentation part      404.0000082 magnetization 

 Free energy of the ion-electron system (eV)
  ---------------------------------------------------
  alpha Z        PSCENC =       811.68303918
  Ewald energy   TEWEN  =    199368.95127621
  -Hartree energ DENC   =   -246718.79519807
  -exchange      EXHF   =         0.00000000
  -V(xc)+E(xc)   XCENC  =      1601.76942555
  PAW double counting   =     47049.31410648   -50806.42422934
  entropy T*S    EENTRO =         0.00000000
  eigenvalues    EBANDS =     -1413.04399302
  atomic energy  EATOM  =     49965.64366254
  Solvation  Ediel_sol  =         0.00000000
  ---------------------------------------------------
  free energy    TOTEN  =      -140.90191048 eV

  energy without entropy =     -140.90191048  energy(sigma->0) =     -140.90191048


--------------------------------------------------------------------------------------------------------




--------------------------------------- Iteration      1(  10)  ---------------------------------------


    EDDIAG:  cpu time    2.5367: real time    2.5368
  RMM-DIIS:  cpu time    6.5638: real time    6.5638
    ORTHCH:  cpu time    0.4713: real time    0.4713
 BZINTS: Fermi energy:   -0.484934;  404.000000 electrons
         Band energy:-0.141304E+04;  BLOECHL correction:   -0.030574
       DOS:  cpu time    0.0306: real time    0.0306
    --------------------------------------------
      LOOP:  cpu time    9.6023: real time    9.6025

 eigenvalue-minimisations  :  9061
 total energy-change (2. order) :-0.5385780E-05  (-0.5723050E-05)
 number of electron     404.0000082 magnetization 
 augmentation part      404.0000082 magnetization 

 Free energy of the ion-electron system (eV)
  ---------------------------------------------------
  alpha Z        PSCENC =       811.68303918
  Ewald energy   TEWEN  =    199368.95127621
  -Hartree energ DENC   =   -246718.79519807
  -exchange      EXHF   =         0.00000000
  -V(xc)+E(xc)   XCENC  =      1601.76942555
  PAW double counting   =     47049.31410648   -50806.42422934
  entropy T*S    EENTRO =         0.00000000
  eigenvalues    EBANDS =     -1413.04399841
  atomic energy  EATOM  =     49965.64366254
  Solvation  Ediel_sol  =         0.00000000
  ---------------------------------------------------
  free energy    TOTEN  =      -140.90191586 eV

  energy without entropy =     -140.90191586  energy(sigma->0) =     -140.90191586


--------------------------------------------------------------------------------------------------------




 average (electrostatic) potential at core
  the test charge radii are     0.9430  1.0210  0.7215
  (the norm of the test charge is              1.0000)
       1 -71.4771       2 -71.4559       3 -71.4558       4 -71.4628       5 -71.4718
       6 -71.4625       7 -71.4575       8 -71.4573       9 -71.4747      10 -71.7440
      11 -71.7096      12 -71.7439      13 -71.7132      14 -71.7131      15 -71.7347
      16 -71.7430      17 -71.7291      18 -71.7291      19 -71.6832      20 -71.8097
      21 -71.8100      22 -71.7096      23 -71.8333      24 -71.7097      25 -71.6878
      26 -71.6878      27 -71.6949      28 -71.4005      29 -71.4742      30 -71.4742
      31 -71.4848      32 -71.4847      33 -71.4795      34 -71.4795      35 -71.4046
      36 -50.4214      37 -77.7051      38 -77.7048
 
 
 
 E-fermi :  -0.4849     XC(G=0):  -5.3601     alpha+bet : -4.8077

 Fermi energy:        -0.4849337091

 k-point     1 :       0.0000    0.0000    0.0000
  band No.  band energies     occupation 
      1     -23.3531      2.00000
      2     -16.4125      2.00000
      3      -9.3071      2.00000
      4      -8.2072      2.00000
      5      -7.5853      2.00000
      6      -6.8290      2.00000
      7      -6.4873      2.00000
      8      -6.3078      2.00000
      9      -6.3032      2.00000
     10      -6.2841      2.00000
     11      -6.2803      2.00000
     12      -6.2761      2.00000
     13      -6.2580      2.00000
     14      -6.1020      2.00000
     15      -5.5263      2.00000
     16      -5.5197      2.00000
     17      -5.5188      2.00000
     18      -5.5146      2.00000
     19      -5.4996      2.00000
     20      -5.4786      2.00000
     21      -5.3205      2.00000
     22      -4.8584      2.00000
     23      -4.8288      2.00000
     24      -4.8174      2.00000
     25      -4.8169      2.00000
     26      -4.7941      2.00000
     27      -4.7058      2.00000
     28      -4.5532      2.00000
     29      -4.5423      2.00000
     30      -4.5377      2.00000
     31      -4.5248      2.00000
     32      -4.5181      2.00000
     33      -4.5071      2.00000
     34      -4.3811      2.00000
     35      -4.3622      2.00000
     36      -4.3621      2.00000
     37      -4.3605      2.00000
     38      -4.3537      2.00000
     39      -4.3520      2.00000
     40      -4.3365      2.00000
     41      -4.3112      2.00000
     42      -4.3015      2.00000
     43      -4.2867      2.00000
     44      -4.2791      2.00000
     45      -4.2507      2.00000
     46      -4.2268      2.00000
     47      -4.2161      2.00000
     48      -4.2161      2.00000
     49      -4.2113      2.00000
     50      -4.1243      2.00000
     51      -4.0962      2.00000
     52      -4.0926      2.00000
     53      -4.0232      2.00000
     54      -4.0180      2.00000
     55      -4.0016      2.00000
     56      -3.9844      2.00000
     57      -3.9660      2.00000
     58      -3.9643      2.00000
     59      -3.9536      2.00000
     60      -3.9074      2.00000
     61      -3.6726      2.00000
     62      -3.6719      2.00000
     63      -3.6677      2.00000
     64      -3.6593      2.00000
     65      -3.6307      2.00000
     66      -3.6142      2.00000
     67      -3.5680      2.00000
     68      -3.5669      2.00000
     69      -3.5438      2.00000
     70      -3.5418      2.00000
     71      -3.5364      2.00000
     72      -3.5303      2.00000
     73      -3.5144      2.00000
     74      -3.5114      2.00000
     75      -3.5080      2.00000
     76      -3.5042      2.00000
     77      -3.5009      2.00000
     78      -3.4325      2.00000
     79      -3.4274      2.00000
     80      -3.4273      2.00000
     81      -3.3786      2.00000
     82      -3.3781      2.00000
     83      -3.3285      2.00000
     84      -3.3251      2.00000
     85      -3.3152      2.00000
     86      -3.3141      2.00000
     87      -3.3070      2.00000
     88      -3.2982      2.00000
     89      -3.2736      2.00000
     90      -3.2530      2.00000
     91      -3.2510      2.00000
     92      -3.2499      2.00000
     93      -3.2244      2.00000
     94      -3.2230      2.00000
     95      -3.2161      2.00000
     96      -3.1883      2.00000
     97      -3.1877      2.00000
     98      -3.1710      2.00000
     99      -3.1507      2.00000
    100      -3.1502      2.00000
    101      -3.1333      2.00000
    102      -3.1265      2.00000
    103      -3.1207      2.00000
    104      -3.1093      2.00000
    105      -3.0940      2.00000
    106      -3.0766      2.00000
    107      -3.0733      2.00000
    108      -3.0602      2.00000
    109      -3.0313      2.00000
    110      -2.9980      2.00000
    111      -2.9801      2.00000
    112      -2.9422      2.00000
    113      -2.9321      2.00000
    114      -2.8343      2.00000
    115      -2.8329      2.00000
    116      -2.8227      2.00000
    117      -2.8190      2.00000
    118      -2.8173      2.00000
    119      -2.8121      2.00000
    120      -2.8104      2.00000
    121      -2.8016      2.00000
    122      -2.7901      2.00000
    123      -2.7773      2.00000
    124      -2.7700      2.00000
    125      -2.7553      2.00000
    126      -2.7355      2.00000
    127      -2.7037      2.00000
    128      -2.6342      2.00000
    129      -2.6317      2.00000
    130      -2.6094      2.00000
    131      -2.6061      2.00000
    132      -2.5970      2.00000
    133      -2.5875      2.00000
    134      -2.5812      2.00000
    135      -2.5658      2.00000
    136      -2.5607      2.00000
    137      -2.5220      2.00000
    138      -2.5118      2.00000
    139      -2.5110      2.00000
    140      -2.5023      2.00000
    141      -2.5006      2.00000
    142      -2.5003      2.00000
    143      -2.4775      2.00000
    144      -2.4671      2.00000
    145      -2.4567      2.00000
    146      -2.4229      2.00000
    147      -2.3941      2.00000
    148      -2.3752      2.00000
    149      -2.3704      2.00000
    150      -2.3668      2.00000
    151      -2.3581      2.00000
    152      -2.3562      2.00000
    153      -2.3498      2.00000
    154      -2.3394      2.00000
    155      -2.3384      2.00000
    156      -2.3369      2.00000
    157      -2.3101      2.00000
    158      -2.3061      2.00000
    159      -2.3043      2.00000
    160      -2.2494      2.00000
    161      -2.2424      2.00000
    162      -2.2333      2.00000
    163      -2.2318      2.00000
    164      -2.2236      2.00000
    165      -2.2206      2.00000
    166      -2.2148      2.00000
    167      -2.2136      2.00000
    168      -2.2054      2.00000
    169      -2.2014      2.00000
    170      -2.1811      2.00000
    171      -2.1762      2.00000
    172      -2.1740      2.00000
    173      -2.1711      2.00000
    174      -2.1625      2.00000
    175      -2.1593      2.00000
    176      -2.1577      2.00000
    177      -2.1531      2.00000
    178      -2.1481      2.00000
    179      -2.1455      2.00000
    180      -2.1440      2.00000
    181      -2.1431      2.00000
    182      -2.1378      2.00000
    183      -2.1365      2.00000
    184      -2.1349      2.00000
    185      -2.1291      2.00000
    186      -2.1282      2.00000
    187      -2.1217      2.00000
    188      -2.1016      2.00000
    189      -2.0690      2.00000
    190      -2.0506      2.00000
    191      -2.0365      2.00000
    192      -2.0348      2.00000
    193      -2.0269      2.00000
    194      -2.0143      2.00000
    195      -2.0135      2.00000
    196      -2.0113      2.00000
    197      -1.7747      2.00000
    198      -1.4308      2.00000
    199      -1.2001      2.00000
    200      -0.8932      2.00000
    201      -0.8161      2.00000
    202      -0.7992      2.00000
    203      -0.7475      2.00000
    204      -0.7393      2.00000
    205      -0.6621      2.67021
    206      -0.4471      0.00000
    207      -0.4220      0.00000
    208      -0.3976      0.00000
    209       0.4634      0.00000
    210       1.1131      0.00000
    211       1.4468      0.00000
    212       1.5148      0.00000
    213       1.5632      0.00000
    214       1.6222      0.00000
    215       1.7621      0.00000
    216       2.8260      0.00000
    217       2.9078      0.00000
    218       2.9776      0.00000
    219       3.1233      0.00000
    220       3.1768      0.00000
    221       3.1832      0.00000
    222       3.2705      0.00000
    223       3.3494      0.00000
    224       3.9264      0.00000
    225       3.9907      0.00000
    226       4.0094      0.00000
    227       4.0374      0.00000
    228       4.0827      0.00000
    229       4.1455      0.00000
    230       4.1664      0.00000
    231       4.3296      0.00000
    232       4.3401      0.00000
    233       4.3785      0.00000
    234       4.6564      0.00000
    235       4.8216      0.00000
    236       4.9160      0.00000
    237       5.0428      0.00000
    238       5.1485      0.00000
    239       5.5010      0.00000
    240       5.8195      0.00000
    241       5.8290      0.00000
    242       6.0228      0.00000
    243       6.1587      0.00000
    244       6.3759      0.00000
    245       6.3804      0.00000
    246       6.4583      0.00000
    247       6.4724      0.00000
    248       6.6109      0.00000
    249       6.6485      0.00000
    250       6.9770      0.00000
    251       6.9967      0.00000
    252       7.0372      0.00000

 k-point     2 :       0.1250   -0.0000    0.0000
  band No.  band energies     occupation 
      1     -23.3531      2.00000
      2     -16.4126      2.00000
      3      -9.2520      2.00000
      4      -8.1683      2.00000
      5      -7.5701      2.00000
      6      -6.9216      2.00000
      7      -6.7668      2.00000
      8      -6.5717      2.00000
      9      -6.4974      2.00000
     10      -6.4260      2.00000
     11      -6.1482      2.00000
     12      -5.9966      2.00000
     13      -5.9716      2.00000
     14      -5.8351      2.00000
     15      -5.7938      2.00000
     16      -5.6282      2.00000
     17      -5.5791      2.00000
     18      -5.4432      2.00000
     19      -5.3558      2.00000
     20      -5.3077      2.00000
     21      -5.2574      2.00000
     22      -4.8792      2.00000
     23      -4.8370      2.00000
     24      -4.8042      2.00000
     25      -4.7988      2.00000
     26      -4.7833      2.00000
     27      -4.6970      2.00000
     28      -4.5981      2.00000
     29      -4.5530      2.00000
     30      -4.5477      2.00000
     31      -4.5050      2.00000
     32      -4.4899      2.00000
     33      -4.4797      2.00000
     34      -4.4726      2.00000
     35      -4.4711      2.00000
     36      -4.4375      2.00000
     37      -4.4309      2.00000
     38      -4.3857      2.00000
     39      -4.3454      2.00000
     40      -4.3280      2.00000
     41      -4.3187      2.00000
     42      -4.2955      2.00000
     43      -4.2595      2.00000
     44      -4.2344      2.00000
     45      -4.2227      2.00000
     46      -4.2161      2.00000
     47      -4.2073      2.00000
     48      -4.1648      2.00000
     49      -4.1497      2.00000
     50      -4.1300      2.00000
     51      -4.1063      2.00000
     52      -4.0994      2.00000
     53      -4.0758      2.00000
     54      -4.0286      2.00000
     55      -3.9825      2.00000
     56      -3.9536      2.00000
     57      -3.9428      2.00000
     58      -3.9378      2.00000
     59      -3.9191      2.00000
     60      -3.8835      2.00000
[...]
  0.000   0.000   0.000   0.000   0.000   0.000   0.000   0.000   0.000   0.000   0.000   0.000   0.000   0.000   0.000   0.000
  0.000   0.000   0.000   0.000   0.000   0.000   0.000   0.000   0.000   0.000   0.000   0.000   0.000   0.000   0.000   0.000
  0.000   0.000   0.000   0.000   0.000   0.000   0.000   0.000   0.000   0.000   1.000   0.000   0.000   0.000   0.000   0.000
  0.000   0.000   0.000   0.000   0.000   0.000   0.000   0.000   0.000   0.000   0.000   0.000   0.000   0.000   0.000   0.000
  0.000   0.000   0.000   0.000   0.000   0.000   0.000   0.000   0.000   0.000   0.000   0.000   0.000   0.000   0.000   0.000
  0.000   0.000   0.000   0.000   0.000   0.000   0.000   0.000   0.000   0.000   0.000   0.000   0.000   0.000   0.000   0.000
  0.000   0.000   0.000   0.000   0.000   0.000   0.000   0.000   0.000   0.000   0.000   0.000   0.000   0.000   0.000   0.000
  0.000   0.000   0.000   0.000   0.000   0.000   0.000   0.000   0.000   0.000   0.000   0.000   0.000   0.000   0.000   0.000
  0.000   0.000   0.000   0.000   0.000   0.000   0.000   0.000   0.000   0.000   0.000   0.000   0.000   0.000   0.000   0.000
  0.000   0.000   0.000   0.000   0.000   0.000   0.000   0.000   0.000   0.000   0.000   0.000   0.000   0.000   0.000   0.000


------------------------ aborting loop because EDIFF is reached ----------------------------------------





 total charge

# of ion       s       p       d       tot
------------------------------------------
    1        0.450   0.283   9.189   9.921
    2        0.448   0.285   9.187   9.921
    3        0.448   0.285   9.187   9.921
    4        0.449   0.285   9.186   9.919
    5        0.449   0.286   9.183   9.918
    6        0.449   0.285   9.186   9.919
    7        0.449   0.285   9.186   9.921
    8        0.449   0.285   9.186   9.921
    9        0.447   0.284   9.188   9.919
   10        0.443   0.370   9.177   9.990
   11        0.442   0.367   9.183   9.992
   12        0.443   0.370   9.177   9.990
   13        0.442   0.367   9.183   9.993
   14        0.442   0.367   9.183   9.993
   15        0.439   0.369   9.180   9.987
   16        0.442   0.372   9.177   9.991
   17        0.438   0.370   9.179   9.987
   18        0.438   0.370   9.179   9.987
   19        0.439   0.367   9.184   9.989
   20        0.461   0.393   9.167  10.021
   21        0.461   0.393   9.167  10.021
   22        0.434   0.374   9.180   9.988
   23        0.459   0.401   9.158  10.018
   24        0.434   0.374   9.180   9.988
   25        0.439   0.368   9.182   9.989
   26        0.439   0.368   9.182   9.989
   27        0.435   0.371   9.184   9.989
   28        0.452   0.281   9.191   9.923
   29        0.446   0.290   9.190   9.926
   30        0.446   0.290   9.190   9.926
   31        0.441   0.297   9.190   9.929
   32        0.441   0.297   9.190   9.929
   33        0.444   0.290   9.190   9.925
   34        0.444   0.290   9.190   9.925
   35        0.446   0.284   9.189   9.919
   36        0.357   0.420   5.171   5.948
   37        1.610   3.234   0.000   4.843
   38        1.610   3.234   0.000   4.843
--------------------------------------------------
tot         19.142  18.504 326.571 364.217
 
    CHARGE:  cpu time    0.5294: real time    0.5296
    FORLOC:  cpu time    0.0087: real time    0.0087
    FORNL :  cpu time    2.7848: real time    2.7849
    STRESS:  cpu time    8.4297: real time    8.4298
    FORCOR:  cpu time    0.0326: real time    0.0326
    FORHAR:  cpu time    0.0135: real time    0.0135
    OFIELD:  cpu time    0.0002: real time    0.0002

  FORCE on cell =-STRESS in cart. coord.  units (eV):
  Direction    XX          YY          ZZ          XY          YZ          ZX
  --------------------------------------------------------------------------------------
  Alpha Z   811.68304   811.68304   811.68304
  Ewald  225596.52876225218.34798************     0.00042     1.10395     0.00020
  Hartree238393.70388238203.23178************     0.00006     1.36604     0.00007
  E(xc)   -2338.15710 -2338.95352 -2343.00622    -0.00030    -0.02975    -0.00004
  Local  ************************476827.20629     0.02028    -2.61421    -0.00079
  n-local  -821.51869  -829.36883  -839.40336     1.85988     0.00577     0.05933
  augment  3346.60384  3351.33999  3365.10455    -0.01834     0.13617     0.00027
  Kinetic  3435.73463  3481.88979  3482.92758     0.70842     0.17657    -0.19668
  Fock        0.00000     0.00000     0.00000     0.00000     0.00000     0.00000
  -------------------------------------------------------------------------------------
  Total      -4.01274    -5.43791    -0.27137     0.00000     0.14453    -0.00000
  in kB      -5.26759    -7.13843    -0.35623     0.00000     0.18973    -0.00000
  external pressure =       -4.25 kB  Pullay stress =        0.00 kB


 VOLUME and BASIS-vectors are now :
 -----------------------------------------------------------------------------
  energy-cutoff  :      500.00
  volume of cell :     1220.51
      direct lattice vectors                 reciprocal lattice vectors
     7.696786404  0.000000000  0.000000000     0.129924354 -0.075011849  0.000000000
     3.848392758  6.665612809  0.000000000     0.000000000  0.150023716  0.000000000
     0.000000000  0.000000000 23.789778673     0.000000000  0.000000000  0.042034859

  length of vectors
     7.696786404  7.696786404 23.789778673     0.150023716  0.150023716  0.042034859


 FORCES acting on ions
    electron-ion (+dipol)            ewald-force                    non-local-force                 convergence-correction
 -----------------------------------------------------------------------------------------------
   -.413E-04 -.710E-01 0.377E+04   0.579E-04 -.432E-01 -.376E+04   -.234E-08 0.351E-01 -.271E+01   -.251E-03 0.715E-01 -.218E+00
   0.805E-01 0.158E+00 0.377E+04   -.441E-01 -.194E+00 -.376E+04   0.930E-02 0.801E-01 -.187E+01   -.393E-01 -.273E-01 -.212E+00
   -.805E-01 0.158E+00 0.377E+04   0.440E-01 -.194E+00 -.376E+04   -.930E-02 0.801E-01 -.187E+01   0.400E-01 -.248E-01 -.211E+00
   -.402E-02 -.128E+00 0.377E+04   -.153E+00 0.411E-01 -.376E+04   0.147E+00 -.121E-01 -.190E+01   0.161E-01 0.895E-01 -.193E+00
   -.638E-04 -.633E-01 0.377E+04   0.116E-03 0.432E-02 -.376E+04   -.933E-09 0.140E-01 -.172E+01   0.120E-01 0.508E-01 -.142E+00
   0.406E-02 -.128E+00 0.377E+04   0.153E+00 0.410E-01 -.376E+04   -.147E+00 -.121E-01 -.190E+01   -.175E-01 0.907E-01 -.192E+00
   0.342E+00 0.209E-01 0.377E+04   -.108E+00 0.153E+00 -.376E+04   -.341E-01 -.972E-01 -.187E+01   -.169E+00 -.827E-01 -.207E+00
   -.342E+00 0.208E-01 0.377E+04   0.108E+00 0.153E+00 -.376E+04   0.341E-01 -.972E-01 -.187E+01   0.173E+00 -.840E-01 -.207E+00
   -.144E-03 0.282E-01 0.377E+04   0.263E-03 0.390E-01 -.376E+04   -.494E-09 0.741E-02 -.229E+01   -.131E-01 -.770E-01 -.175E+00
   0.170E+01 0.113E+01 0.132E+04   -.117E+01 -.100E+01 -.132E+04   -.500E+00 -.181E+00 -.941E+00   -.300E-01 0.626E-01 0.105E+00
   -.825E-04 0.193E+01 0.132E+04   0.189E-03 -.218E+01 -.132E+04   -.154E-07 0.231E+00 -.355E+00   0.113E-01 -.347E-01 0.462E-01
   -.170E+01 0.113E+01 0.132E+04   0.117E+01 -.100E+01 -.132E+04   0.500E+00 -.181E+00 -.941E+00   0.290E-01 0.631E-01 0.103E+00
   0.141E+01 -.109E+01 0.132E+04   -.159E+01 0.117E+01 -.132E+04   0.248E+00 -.125E+00 -.396E+00   -.951E-01 0.544E-01 0.229E-01
   -.141E+01 -.109E+01 0.132E+04   0.159E+01 0.117E+01 -.132E+04   -.248E+00 -.125E+00 -.396E+00   0.118E+00 0.531E-01 0.196E-01
   -.141E-03 -.542E+00 0.132E+04   0.299E-03 0.390E+00 -.132E+04   -.330E-08 0.495E-01 -.975E+00   -.272E-02 0.876E-01 0.463E-01
   -.891E-04 -.201E+01 0.132E+04   0.185E-03 0.142E+01 -.132E+04   -.397E-07 0.597E+00 -.115E+01   -.103E-02 -.128E-04 0.433E-01
   -.292E+00 0.263E+00 0.132E+04   0.137E+00 0.146E-01 -.132E+04   0.668E-01 -.139E+00 -.787E+00   0.839E-01 -.130E+00 0.918E-01
   0.292E+00 0.263E+00 0.132E+04   -.137E+00 0.146E-01 -.132E+04   -.668E-01 -.139E+00 -.787E+00   -.827E-01 -.128E+00 0.931E-01
   -.606E-04 0.104E+01 -.115E+04   0.671E-04 -.124E+01 0.115E+04   -.939E-08 0.141E+00 0.113E+01   0.128E-01 0.485E-01 0.253E+00
   -.675E+01 -.212E+01 -.114E+04   0.822E+01 0.282E+01 0.114E+04   -.119E+01 -.647E+00 -.103E+01   -.341E+00 -.990E-01 0.392E-01
   0.675E+01 -.212E+01 -.114E+04   -.822E+01 0.282E+01 0.114E+04   0.119E+01 -.647E+00 -.103E+01   0.318E+00 -.101E+00 0.381E-01
   -.243E+01 -.782E+00 -.115E+04   0.234E+01 0.943E+00 0.115E+04   0.270E+00 -.273E+00 0.795E+00   -.103E+00 0.667E-01 0.186E+00
   -.635E-04 0.478E+01 -.114E+04   0.143E-03 -.655E+01 0.115E+04   -.102E-06 0.153E+01 -.924E+00   -.143E-01 0.244E+00 0.162E+00
   0.243E+01 -.782E+00 -.115E+04   -.234E+01 0.943E+00 0.115E+04   -.270E+00 -.273E+00 0.795E+00   0.126E+00 0.687E-01 0.187E+00
   0.110E+00 0.115E+01 -.115E+04   0.763E-01 -.105E+01 0.115E+04   -.122E+00 -.659E-01 0.103E+01   -.591E-01 -.196E-01 0.328E+00
   -.110E+00 0.115E+01 -.115E+04   -.765E-01 -.105E+01 0.115E+04   0.122E+00 -.659E-01 0.103E+01   0.807E-01 -.169E-01 0.328E+00
   -.123E-03 -.275E+01 -.115E+04   0.242E-03 0.229E+01 0.115E+04   -.470E-07 0.706E+00 0.993E+00   0.925E-02 -.156E+00 0.166E+00
   -.304E-04 0.910E+01 -.361E+04   0.295E-04 -.920E+01 0.361E+04   -.724E-08 0.109E+00 0.210E+01   -.134E-02 -.288E-01 0.368E+00
   0.193E+02 0.551E+02 -.357E+04   -.192E+02 -.563E+02 0.357E+04   -.609E-01 0.110E+01 0.345E+01   -.188E+00 -.224E+00 0.544E+00
   -.193E+02 0.551E+02 -.357E+04   0.192E+02 -.563E+02 0.357E+04   0.609E-01 0.110E+01 0.345E+01   0.210E+00 -.223E+00 0.544E+00
   0.704E+02 -.633E+00 -.355E+04   -.723E+02 0.833E+00 0.354E+04   0.135E+01 -.233E+00 0.419E+01   0.549E-01 0.314E-01 0.490E+00
   -.704E+02 -.633E+00 -.355E+04   0.723E+02 0.833E+00 0.354E+04   -.135E+01 -.233E+00 0.419E+01   -.332E-01 0.326E-01 0.493E+00
   0.179E+02 -.533E+02 -.358E+04   -.182E+02 0.545E+02 0.357E+04   0.250E+00 -.975E+00 0.346E+01   -.120E+00 0.113E+00 0.464E+00
   -.179E+02 -.533E+02 -.358E+04   0.182E+02 0.545E+02 0.357E+04   -.250E+00 -.975E+00 0.346E+01   0.145E+00 0.113E+00 0.466E+00
   -.139E-03 -.857E+01 -.362E+04   0.260E-03 0.846E+01 0.362E+04   -.564E-08 0.846E-01 0.234E+01   -.142E-01 0.401E-01 0.431E+00
   -.538E-04 -.223E+01 -.198E+04   0.913E-04 0.200E+01 0.198E+04   -.141E-07 0.212E+00 0.252E+01   0.121E-02 0.958E-01 0.496E+00
   0.187E+03 -.392E+00 -.239E+04   -.218E+03 0.346E+00 0.241E+04   0.308E+02 0.368E-01 -.185E+02   -.120E+00 0.638E-03 0.519E+00
   -.187E+03 -.392E+00 -.239E+04   0.218E+03 0.346E+00 0.241E+04   -.308E+02 0.368E-01 -.185E+02   0.123E+00 0.715E-03 0.519E+00
 -----------------------------------------------------------------------------------------------
   0.821E-04 -.681E+00 0.238E+02   -.568E-13 0.844E-14 0.318E-11   -.434E-07 0.651E+00 -.297E+02   0.120E+00 0.219E-01 0.584E+01
 
 
 POSITION                                       TOTAL-FORCE (eV/Angst)
 -----------------------------------------------------------------------------------
      0.00000      0.00000      5.37156         0.000000     -0.007341     -0.009709
      2.56560      0.00000      5.37156         0.006060      0.018596      0.074634
      5.13119      0.00000      5.37156        -0.006060      0.018596      0.074634
      1.28280      2.22187      5.37156         0.006145     -0.008609      0.066712
      3.84839      2.22187      5.37156        -0.000000      0.006054      0.039413
      6.41399      2.22187      5.37156        -0.006145     -0.008609      0.066712
      2.56560      4.44374      5.37156         0.029125     -0.006598      0.062269
      5.13119      4.44374      5.37156        -0.029125     -0.006598      0.062269
      7.69679      4.44374      5.37156         0.000000     -0.002180      0.017799
      1.28280      0.74062      7.46636        -0.001553      0.006082     -0.069728
      3.84839      0.74062      7.46636         0.000000     -0.056140     -0.101836
      6.41399      0.74062      7.46636         0.001553      0.006082     -0.069728
      2.56560      2.96249      7.46636        -0.034698      0.016582     -0.078633
      5.13119      2.96249      7.46636         0.034698      0.016582     -0.078633
      7.69679      2.96249      7.46636         0.000000     -0.014538     -0.023344
      3.84839      5.18437      7.46636        -0.000000      0.005577     -0.050441
      6.41399      5.18437      7.46636        -0.004373      0.009709     -0.013673
      8.97958      5.18437      7.46636         0.004373      0.009709     -0.013673
      7.69679      1.48275      9.55327         0.000000     -0.017991      0.081091
      2.56715      1.48214      9.54261        -0.048244     -0.044043     -0.139769
      5.12964      1.48214      9.54261         0.048244     -0.044043     -0.139769
      8.97640      3.70496      9.55687         0.070275     -0.044298      0.041986
      3.84839      3.70133      9.54261        -0.000000      0.007429     -0.032835
      6.41717      3.70496      9.55687        -0.070275     -0.044298      0.041986
     10.26108      5.92424      9.55327        -0.005825      0.010640      0.065638
      5.13249      5.92424      9.55327         0.005825      0.010640      0.065638
      7.69679      5.92131      9.55687        -0.000000      0.089871      0.040613
      0.00000      0.00000     11.63217         0.000000     -0.026340     -0.024236
      2.57513      0.01976     11.64308        -0.173847     -0.314586     -0.193292
      5.12165      0.01976     11.64308         0.173847     -0.314586     -0.193292
      1.30468      2.22025     11.64308        -0.535543     -0.000675     -0.311719
      6.39211      2.22025     11.64308         0.535543     -0.000675     -0.311719
      2.57794      4.42560     11.64308        -0.156289      0.327753     -0.181926
      5.11885      4.42560     11.64308         0.156289      0.327753     -0.181926
      7.69679      4.44374     11.63403        -0.000000      0.014848      0.013431
      3.84839      2.22187     11.52902        -0.000000      0.075970      1.455001
      3.11999      2.21025     13.25039         0.101803     -0.008163     -0.024974
      4.57680      2.21025     13.25039        -0.101803     -0.008163     -0.024974
 -----------------------------------------------------------------------------------
    total drift:                                0.119816     -0.008245     -0.048493


--------------------------------------------------------------------------------------------------------



  FREE ENERGIE OF THE ION-ELECTRON SYSTEM (eV)
  ---------------------------------------------------
  free  energy   TOTEN  =      -140.90191586 eV

  energy  without entropy=     -140.90191586  energy(sigma->0) =     -140.90191586
 


--------------------------------------------------------------------------------------------------------


    POTLOK:  cpu time    0.0319: real time    0.0319


--------------------------------------------------------------------------------------------------------


 stress matrix after NEB project (eV)
     -4.01274      0.00000     -0.00000
      0.00000     -5.43791      0.14453
     -0.00000      0.14453     -0.27137
  FORCES: max atom, RMS     0.105139    0.024120
  FORCE total and by dimension    0.148688    0.101803
  Stress total and by dimension    6.766714    5.437913
     LOOP+:  cpu time  148.8942: real time  148.9050
 -----------------------------------------------------------------------------
|                                                                             |
|           W    W    AA    RRRRR   N    N  II  N    N   GGGG   !!!           |
|           W    W   A  A   R    R  NN   N  II  NN   N  G    G  !!!           |
|           W    W  A    A  R    R  N N  N  II  N N  N  G       !!!           |
|           W WW W  AAAAAA  RRRRR   N  N N  II  N  N N  G  GGG   !            |
|           WW  WW  A    A  R   R   N   NN  II  N   NN  G    G                |
|           W    W  A    A  R    R  N    N  II  N    N   GGGG   !!!           |
|                                                                             |
|     Tetrahedron method does not include variations of the Fermi             |
|     occupations, so forces and stress will be inaccurate. We suggest        |
|     using a different smearing scheme ISMEAR = 1 or 2 for metals in         |
|     relaxations.                                                            |
|                                                                             |
 -----------------------------------------------------------------------------

    4ORBIT:  cpu time    0.0000: real time    0.0000



 total charge

# of ion       s       p       d       tot
------------------------------------------
    1        0.450   0.283   9.189   9.921
    2        0.448   0.285   9.187   9.921
    3        0.448   0.285   9.187   9.921
    4        0.449   0.285   9.186   9.919
    5        0.449   0.286   9.183   9.918
    6        0.449   0.285   9.186   9.919
    7        0.449   0.285   9.186   9.921
    8        0.449   0.285   9.186   9.921
    9        0.447   0.284   9.188   9.919
   10        0.443   0.370   9.177   9.990
   11        0.442   0.367   9.183   9.992
   12        0.443   0.370   9.177   9.990
   13        0.442   0.367   9.183   9.993
   14        0.442   0.367   9.183   9.993
   15        0.439   0.369   9.180   9.987
   16        0.442   0.372   9.177   9.991
   17        0.438   0.370   9.179   9.987
   18        0.438   0.370   9.179   9.987
   19        0.439   0.367   9.184   9.989
   20        0.461   0.393   9.167  10.021
   21        0.461   0.393   9.167  10.021
   22        0.434   0.374   9.180   9.988
   23        0.459   0.401   9.158  10.018
   24        0.434   0.374   9.180   9.988
   25        0.439   0.368   9.182   9.989
   26        0.439   0.368   9.182   9.989
   27        0.435   0.371   9.184   9.989
   28        0.452   0.281   9.191   9.923
   29        0.446   0.290   9.190   9.926
   30        0.446   0.290   9.190   9.926
   31        0.441   0.297   9.190   9.929
   32        0.441   0.297   9.190   9.929
   33        0.444   0.290   9.190   9.925
   34        0.444   0.290   9.190   9.925
   35        0.446   0.284   9.189   9.919
   36        0.357   0.420   5.171   5.948
   37        1.610   3.234   0.000   4.843
   38        1.610   3.234   0.000   4.843
--------------------------------------------------
tot         19.142  18.504 326.571 364.217
 
 BZINTS: Fermi energy:   -0.484934;  404.000000 electrons
         Band energy:-0.141304E+04;  BLOECHL correction:   -0.030574

 total amount of memory used by VASP MPI-rank0   162844. kBytes
=======================================================================

   base      :      30000. kBytes
   nonlr-proj:      18481. kBytes
   fftplans  :       3394. kBytes
   grid      :      14446. kBytes
   one-center:        590. kBytes
   wavefun   :      95933. kBytes
 
  
  
 General timing and accounting informations for this job:
 ========================================================
  
                  Total CPU time used (sec):      160.953
                            User time (sec):      155.311
                          System time (sec):        5.642
                         Elapsed time (sec):      161.317
  
                   Maximum memory used (kb):      420648.
                   Average memory used (kb):          N/A
  
                          Minor page faults:        95236
                          Major page faults:            0
                 Voluntary context switches:         5279
