 vasp.6.2.0 18Jan21 (build Jun 12 2021 23:27:24) complex                        
  
 executed on             LinuxIFC date 2022.05.27  05:06:26
 running on   28 total cores
 distrk:  each k-point on   28 cores,    1 groups
 distr:  one band on NCORE=   1 cores,   28 groups


--------------------------------------------------------------------------------------------------------


 INCAR:
   ISMEAR = -5
   SIGMA = 0.1
   ISPIN = 1
   EDIFF = 1.d-5
   EDIFFG = -0.01
   NSW = 0
   NELM = 150
   ENCUT = 500
   ISIF = 2
   IBRION = 2
   LREAL = Auto
   ALGO = Fast
   ICHARG = 11
   LORBIT = 10
   LCHARG = .F.
   LWAVE = .F.

 POTCAR:    PAW_PBE Au 04Oct2007                  
 POTCAR:    PAW_PBE Ni 02Aug2007                  
 POTCAR:    PAW_PBE H 15Jun2001                   
 -----------------------------------------------------------------------------
|                                                                             |
|           W    W    AA    RRRRR   N    N  II  N    N   GGGG   !!!           |
|           W    W   A  A   R    R  NN   N  II  NN   N  G    G  !!!           |
|           W    W  A    A  R    R  N N  N  II  N N  N  G       !!!           |
|           W WW W  AAAAAA  RRRRR   N  N N  II  N  N N  G  GGG   !            |
|           WW  WW  A    A  R   R   N   NN  II  N   NN  G    G                |
|           W    W  A    A  R    R  N    N  II  N    N   GGGG   !!!           |
|                                                                             |
|     For optimal performance we recommend to set                             |
|       NCORE = 2 up to number-of-cores-per-socket                            |
|     NCORE specifies how many cores store one orbital (NPAR=cpu/NCORE).      |
|     This setting can greatly improve the performance of VASP for DFT.       |
|     The default, NCORE=1 might be grossly inefficient on modern             |
|     multi-core architectures or massively parallel machines. Do your        |
|     own testing! More info at https://www.vasp.at/wiki/index.php/NCORE      |
|     Unfortunately you need to use the default for GW and RPA                |
|     calculations (for HF NCORE is supported but not extensively tested      |
|     yet).                                                                   |
|                                                                             |
 -----------------------------------------------------------------------------

 POTCAR:    PAW_PBE Au 04Oct2007                  
   VRHFIN =Au: s1d10                                                                                
   LEXCH  = PE                                                                                      
   EATOM  =   926.0867 eV,   68.0654 Ry                                                             
                                                                                                    
   TITEL  = PAW_PBE Au 04Oct2007                                                                    
   LULTRA =        F    use ultrasoft PP ?                                                          
   IUNSCR =        1    unscreen: 0-lin 1-nonlin 2-no                                               
   RPACOR =    2.330    partial core radius                                                         
   POMASS =  196.966; ZVAL   =   11.000    mass and valenz                                          
   RCORE  =    2.500    outmost cutoff radius                                                       
   RWIGS  =    2.840; RWIGS  =    1.503    wigner-seitz radius (au A)                               
   ENMAX  =  229.943; ENMIN  =  172.457 eV                                                          
   ICORE  =        3    local potential                                                             
   LCOR   =        T    correct aug charges                                                         
   LPAW   =        T    paw PP                                                                      
   EAUG   =  356.670                                                                                
   DEXC   =    0.000                                                                                
   RMAX   =    2.562    core radius for proj-oper                                                   
   RAUG   =    1.300    factor for augmentation sphere                                              
   RDEP   =    2.598    radius for radial grids                                                     
   RDEPT  =    2.193    core radius for aug-charge                                                  
                                                                                                    
   Atomic configuration                                                                             
   16 entries                                                                                       
     n  l   j            E        occ.                                                              
     1  0  0.50    -80748.5001   2.0000                                                             
     2  0  0.50    -14244.7466   2.0000                                                             
     2  1  1.50    -12310.9591   6.0000                                                             
     3  0  0.50     -3362.1768   2.0000                                                             
     3  1  1.50     -2801.5463   6.0000                                                             
     3  2  2.50     -2203.8206  10.0000                                                             
     4  0  0.50      -729.8168   2.0000                                                             
     4  1  1.50      -546.0527   6.0000                                                             
     4  2  2.50      -325.7302  10.0000                                                             
     4  3  3.50       -81.1472  14.0000                                                             
     5  0  0.50      -108.3201   2.0000                                                             
     5  1  1.50       -59.7479   6.0000                                                             
     5  2  2.50        -6.8783  10.0000                                                             
     6  0  0.50        -5.7602   1.0000                                                             
     6  1  1.50        -6.8029   0.0000                                                             
     5  3  2.50        -1.3606   0.0000                                                             
   Description                                                                                      
     l       E           TYP  RCUT    TYP  RCUT                                                     
     2     -6.8782861     23  2.500                                                                 
     2     -8.2388687     23  2.500                                                                 
     0     -5.7601759     23  2.500                                                                 
     0     -0.8493231     23  2.500                                                                 
     1     -2.7211652     23  2.500                                                                 
     1     27.2116520     23  2.500                                                                 
     3     -1.3605826     23  2.500                                                                 
  local pseudopotential read in
  partial core-charges read in
  partial kinetic energy density read in
  atomic valenz-charges read in
  non local Contribution for L=           2  read in
    real space projection operators read in
  non local Contribution for L=           2  read in
    real space projection operators read in
  non local Contribution for L=           0  read in
    real space projection operators read in
  non local Contribution for L=           0  read in
    real space projection operators read in
  non local Contribution for L=           1  read in
    real space projection operators read in
  non local Contribution for L=           1  read in
    real space projection operators read in
    PAW grid and wavefunctions read in
 
   number of l-projection  operators is LMAX  =           6
   number of lm-projection operators is LMMAX =          18
 
 POTCAR:    PAW_PBE Ni 02Aug2007                  
   VRHFIN =Ni:                                                                                      
   LEXCH  = PE                                                                                      
   EATOM  =  1077.6739 eV,   79.2068 Ry                                                             
                                                                                                    
   TITEL  = PAW_PBE Ni 02Aug2007                                                                    
   LULTRA =        F    use ultrasoft PP ?                                                          
   IUNSCR =        1    unscreen: 0-lin 1-nonlin 2-no                                               
   RPACOR =    2.000    partial core radius                                                         
   POMASS =   58.690; ZVAL   =   10.000    mass and valenz                                          
   RCORE  =    2.300    outmost cutoff radius                                                       
   RWIGS  =    2.430; RWIGS  =    1.286    wigner-seitz radius (au A)                               
   ENMAX  =  269.532; ENMIN  =  202.149 eV                                                          
   RCLOC  =    1.201    cutoff for local pot                                                        
   LCOR   =        T    correct aug charges                                                         
   LPAW   =        T    paw PP                                                                      
   EAUG   =  544.565                                                                                
   DEXC   =    0.000                                                                                
   RMAX   =    2.357    core radius for proj-oper                                                   
   RAUG   =    1.300    factor for augmentation sphere                                              
   RDEP   =    2.390    radius for radial grids                                                     
   RDEPT  =    1.838    core radius for aug-charge                                                  
                                                                                                    
   Atomic configuration                                                                             
    9 entries                                                                                       
     n  l   j            E        occ.                                                              
     1  0  0.50     -8206.4253   2.0000                                                             
     2  0  0.50      -976.1748   2.0000                                                             
     2  1  1.50      -839.0571   6.0000                                                             
     3  0  0.50      -105.9991   2.0000                                                             
     3  1  1.50       -66.4603   6.0000                                                             
     3  2  2.50        -4.6458   9.0000                                                             
     4  0  0.50        -4.4926   1.0000                                                             
     4  1  1.50        -4.0817   0.0000                                                             
     4  3  2.50        -1.3606   0.0000                                                             
   Description                                                                                      
     l       E           TYP  RCUT    TYP  RCUT                                                     
     2     -4.6457903     23  2.300                                                                 
     2     -6.0063729     23  2.300                                                                 
     0     -4.4925590     23  2.300                                                                 
     0      5.0102601     23  2.300                                                                 
     1     -2.7211652     23  2.300                                                                 
     1     16.5183231     23  2.300                                                                 
  local pseudopotential read in
  partial core-charges read in
  partial kinetic energy density read in
  atomic valenz-charges read in
  non local Contribution for L=           2  read in
    real space projection operators read in
  non local Contribution for L=           2  read in
    real space projection operators read in
  non local Contribution for L=           0  read in
    real space projection operators read in
  non local Contribution for L=           0  read in
    real space projection operators read in
  non local Contribution for L=           1  read in
    real space projection operators read in
  non local Contribution for L=           1  read in
    real space projection operators read in
    PAW grid and wavefunctions read in
 
   number of l-projection  operators is LMAX  =           6
   number of lm-projection operators is LMMAX =          18
 
 POTCAR:    PAW_PBE H 15Jun2001                   
   VRHFIN =H: ultrasoft test                                                                        
   LEXCH  = PE                                                                                      
   EATOM  =    12.4884 eV,    0.9179 Ry                                                             
                                                                                                    
   TITEL  = PAW_PBE H 15Jun2001                                                                     
   LULTRA =        F    use ultrasoft PP ?                                                          
   IUNSCR =        0    unscreen: 0-lin 1-nonlin 2-no                                               
   RPACOR =    0.000    partial core radius                                                         
   POMASS =    1.000; ZVAL   =    1.000    mass and valenz                                          
   RCORE  =    1.100    outmost cutoff radius                                                       
   RWIGS  =    0.700; RWIGS  =    0.370    wigner-seitz radius (au A)                               
   ENMAX  =  250.000; ENMIN  =  200.000 eV                                                          
   RCLOC  =    0.701    cutoff for local pot                                                        
   LCOR   =        T    correct aug charges                                                         
   LPAW   =        T    paw PP                                                                      
   EAUG   =  400.000                                                                                
   RMAX   =    1.123    core radius for proj-oper                                                   
   RAUG   =    1.200    factor for augmentation sphere                                              
   RDEP   =    1.112    radius for radial grids                                                     
   RDEPT  =    0.926    core radius for aug-charge                                                  
                                                                                                    
   Atomic configuration                                                                             
    2 entries                                                                                       
     n  l   j            E        occ.                                                              
     1  0  0.50        -6.4927   1.0000                                                             
     2  1  0.50        -3.4015   0.0000                                                             
   Description                                                                                      
     l       E           TYP  RCUT    TYP  RCUT                                                     
     0     -6.4927494     23  1.100                                                                 
     0      6.8029130     23  1.100                                                                 
     1     -4.0817478     23  1.100                                                                 
  local pseudopotential read in
  atomic valenz-charges read in
  non local Contribution for L=           0  read in
    real space projection operators read in
  non local Contribution for L=           0  read in
    real space projection operators read in
  non local Contribution for L=           1  read in
    real space projection operators read in
    PAW grid and wavefunctions read in
 
   number of l-projection  operators is LMAX  =           3
   number of lm-projection operators is LMMAX =           5
 
 Optimization of the real space projectors (new method)

 maximal supplied QI-value         = 15.12
 optimisation between [QCUT,QGAM] = [ 11.34, 22.83] = [ 36.00,145.93] Ry 
 Optimized for a Real-space Cutoff    1.39 Angstroem

   l    n(q)    QCUT    max X(q) W(low)/X(q) W(high)/X(q)  e(spline) 
   2      9    11.338    60.898    0.39E-03    0.42E-03    0.21E-06
   2      9    11.338    58.894    0.40E-03    0.42E-03    0.22E-06
   0      9    11.338   109.617    0.13E-03    0.20E-04    0.13E-06
   0      9    11.338    75.026    0.13E-03    0.20E-04    0.13E-06
   1      9    11.338    16.344    0.33E-04    0.24E-03    0.18E-06
   1      9    11.338    10.160    0.26E-04    0.19E-03    0.15E-06
 Optimization of the real space projectors (new method)

 maximal supplied QI-value         = 16.25
 optimisation between [QCUT,QGAM] = [ 11.38, 22.75] = [ 36.24,144.96] Ry 
 Optimized for a Real-space Cutoff    1.39 Angstroem

   l    n(q)    QCUT    max X(q) W(low)/X(q) W(high)/X(q)  e(spline) 
   2      8    11.376    60.317    0.19E-03    0.33E-04    0.13E-06
   2      8    11.376    55.921    0.20E-03    0.34E-04    0.14E-06
   0      9    11.376    51.690    0.82E-04    0.12E-03    0.20E-06
   0      9    11.376    30.015    0.74E-04    0.11E-03    0.18E-06
   1      9    11.376    18.849    0.39E-03    0.12E-03    0.13E-06
   1      9    11.376    14.624    0.33E-03    0.10E-03    0.11E-06
 Optimization of the real space projectors (new method)

 maximal supplied QI-value         = 34.20
 optimisation between [QCUT,QGAM] = [ 11.29, 22.57] = [ 35.68,142.71] Ry 
 Optimized for a Real-space Cutoff    1.16 Angstroem

   l    n(q)    QCUT    max X(q) W(low)/X(q) W(high)/X(q)  e(spline) 
   0      8    11.287    19.460    0.40E-03    0.73E-03    0.16E-06
   0      8    11.287    12.209    0.38E-03    0.70E-03    0.15E-06
   1      7    11.287     4.655    0.22E-03    0.25E-04    0.22E-06
  PAW_PBE Au 04Oct2007                  :
 energy of atom  1       EATOM= -926.0867
 kinetic energy error for atom=    0.0042 (will be added to EATOM!!)
  PAW_PBE Ni 02Aug2007                  :
 energy of atom  2       EATOM=-1077.6739
 kinetic energy error for atom=    0.0030 (will be added to EATOM!!)
  PAW_PBE H 15Jun2001                   :
 energy of atom  3       EATOM=  -12.4884
 kinetic energy error for atom=    0.0020 (will be added to EATOM!!)
 
 
 POSCAR: Au-Ni-H2
  positions in direct lattice
  velocities in cartesian coordinates
 exchange correlation table for  LEXCH =        8
   RHO(1)=    0.500       N(1)  =     2000
   RHO(2)=  100.500       N(2)  =     4000

 VTST: version 3.2, (02/03/18)

 CHAIN: initializing optimizer
 
 OPT: Using VASP Conjugate-Gradient optimizer
 CHAIN: Read ICHAIN            0
 
 POSCAR: Au-Ni-H2
  positions in direct lattice
  velocities in cartesian coordinates
 


--------------------------------------------------------------------------------------------------------


 ion  position               nearest neighbor table
   1  0.000  0.000  0.238-  16 2.94  12 2.94   6 2.94   8 2.94   7 2.94   3 2.94  10 2.94   4 2.94
                             2 2.94
   2  0.333  0.000  0.238-   9 2.94  11 2.94  17 2.94  10 2.94   8 2.94   4 2.94   5 2.94   1 2.94
                             3 2.94
   3  0.667  0.000  0.238-   7 2.94  18 2.94  12 2.94   1 2.94  11 2.94   5 2.94   6 2.94   9 2.94
                             2 2.94
   4  0.000  0.333  0.238-  10 2.94   6 2.94   5 2.94  13 2.94   2 2.94  15 2.94   9 2.94   1 2.94
                             7 2.94
   5  0.333  0.333  0.238-  13 2.94   7 2.94  11 2.94   4 2.94   2 2.94  14 2.94   3 2.94   8 2.94
                             6 2.94
   6  0.667  0.333  0.238-  15 2.94  14 2.94   1 2.94  12 2.94   4 2.94   9 2.94   8 2.94   3 2.94
                             5 2.94
   7  0.000  0.667  0.238-  18 2.94   3 2.94  16 2.94   5 2.94   1 2.94  13 2.94   8 2.94   4 2.94
                             9 2.94
   8  0.333  0.667  0.238-   9 2.94  17 2.94   1 2.94   2 2.94  14 2.94  16 2.94   6 2.94   7 2.94
                             5 2.94
   9  0.667  0.667  0.238-   2 2.94   8 2.94  17 2.94   6 2.94  15 2.94   4 2.94   3 2.94  18 2.94
                             7 2.94
  10  0.111  0.111  0.346-  20 2.93  26 2.93  19 2.93  11 2.94  17 2.94   2 2.94   4 2.94   1 2.94
                            12 2.94  16 2.94  13 2.94  15 2.94
  11  0.444  0.111  0.346-  20 2.92  21 2.92  27 2.93  13 2.94   2 2.94  10 2.94  17 2.94   5 2.94
                             3 2.94  18 2.94  14 2.94  12 2.94
  12  0.778  0.111  0.346-  21 2.93  25 2.93  19 2.93  16 2.94  18 2.94   1 2.94  14 2.94  15 2.94
                             3 2.94   6 2.94  10 2.94  11 2.94
  13  0.111  0.444  0.346-  23 2.92  20 2.92  22 2.93   5 2.94  18 2.94  11 2.94   7 2.94   4 2.94
                            16 2.94  10 2.94  14 2.94  15 2.94
  14  0.444  0.444  0.346-  21 2.92  23 2.92  24 2.93  15 2.94   6 2.94  12 2.94   8 2.94  17 2.94
                             5 2.94  16 2.94  13 2.94  11 2.94
  15  0.778  0.444  0.346-  24 2.92  22 2.92  19 2.93  14 2.94   6 2.94  17 2.94  12 2.94   9 2.94
                             4 2.94  10 2.94  13 2.94  18 2.94
  16  0.111  0.778  0.346-  23 2.93  25 2.93  26 2.93  18 2.94  12 2.94   7 2.94   1 2.94   8 2.94
                            13 2.94  10 2.94  14 2.94  17 2.94
  17  0.444  0.778  0.346-  27 2.92  24 2.92  26 2.93   9 2.94  15 2.94   2 2.94  10 2.94  11 2.94
                             8 2.94  14 2.94  16 2.94  18 2.94
  18  0.778  0.778  0.346-  22 2.92  27 2.92  25 2.93  16 2.94   7 2.94  13 2.94  12 2.94   3 2.94
                            11 2.94   9 2.94  15 2.94  17 2.94
  19  0.889  0.222  0.454-  10 2.93  12 2.93  15 2.93  26 2.93  25 2.93  24 2.94  22 2.94  21 2.95
                            20 2.95  28 2.95  32 2.96  31 2.96
  20  0.223  0.223  0.453-  36 2.70  29 2.91  31 2.91  11 2.92  13 2.92  23 2.92  21 2.92  10 2.93
                            27 2.95  22 2.95  26 2.95  19 2.95
  21  0.554  0.223  0.453-  36 2.70  30 2.91  32 2.91  14 2.92  11 2.92  20 2.92  23 2.92  12 2.93
                            27 2.95  24 2.95  25 2.95  19 2.95
  22  0.888  0.556  0.453-  18 2.92  15 2.92  24 2.92  27 2.92  13 2.93  25 2.94  19 2.94  33 2.94
                            31 2.94  23 2.95  20 2.95  35 2.96
  23  0.223  0.554  0.453-  36 2.70  33 2.91  34 2.91  13 2.92  14 2.92  20 2.92  21 2.92  16 2.93
                            22 2.95  24 2.95  25 2.95  26 2.95
  24  0.556  0.556  0.453-  15 2.92  17 2.92  27 2.92  22 2.92  14 2.93  26 2.94  19 2.94  32 2.94
                            34 2.94  21 2.95  23 2.95  35 2.96
  25  0.889  0.889  0.454-  16 2.93  12 2.93  18 2.93  19 2.93  26 2.93  22 2.94  27 2.94  23 2.95
                            21 2.95  28 2.95  33 2.96  30 2.96
  26  0.222  0.889  0.454-  10 2.93  16 2.93  17 2.93  19 2.93  25 2.93  27 2.94  24 2.94  20 2.95
                            23 2.95  28 2.95  29 2.96  34 2.96
  27  0.556  0.888  0.453-  17 2.92  18 2.92  24 2.92  22 2.92  11 2.93  26 2.94  25 2.94  29 2.94
                            30 2.94  20 2.95  21 2.95  35 2.96
  28  0.000  0.000  0.563-  25 2.95  19 2.95  26 2.95  34 2.97  32 2.97  33 2.97  30 2.97  31 2.97
                            29 2.97
  29  0.334  0.007  0.561-  30 2.87  31 2.88  36 2.89  20 2.91  27 2.94  26 2.96  35 2.97  28 2.97
                            34 3.06
  30  0.660  0.007  0.561-  29 2.87  32 2.88  36 2.89  21 2.91  27 2.94  25 2.96  35 2.97  28 2.97
                            33 3.06
  31  0.007  0.334  0.561-  33 2.87  29 2.88  36 2.89  20 2.91  22 2.94  19 2.96  35 2.97  28 2.97
                            32 3.06
  32  0.660  0.334  0.561-  34 2.87  30 2.88  36 2.89  21 2.91  24 2.94  19 2.96  35 2.97  28 2.97
                            31 3.06
  33  0.007  0.660  0.561-  31 2.87  34 2.88  36 2.89  23 2.91  22 2.94  25 2.96  35 2.97  28 2.97
                            30 3.06
  34  0.334  0.660  0.561-  32 2.87  33 2.88  36 2.89  23 2.91  24 2.94  26 2.96  35 2.97  28 2.97
                            29 3.06
  35  0.667  0.667  0.563-  24 2.96  27 2.96  22 2.96  29 2.97  34 2.97  32 2.97  31 2.97  30 2.97
                            33 2.97
  36  0.333  0.333  0.548-  38 1.63  37 1.63  20 2.70  23 2.70  21 2.70  33 2.89  31 2.89  29 2.89
                            30 2.89  34 2.89  32 2.89
  37  0.285  0.333  0.619-  38 0.85  36 1.63
  38  0.382  0.333  0.619-  37 0.85  36 1.63
 
  LATTYP: Found a hexagonal cell.
 ALAT       =     8.8135128021
 C/A-ratio  =     2.5184286595
  
  Lattice vectors:
  
 A1 = (  -4.4067569092,  -7.6327256898,   0.0000000000)
 A2 = (   8.8135128021,   0.0000000000,   0.0000000000)
 A3 = (   0.0000000000,   0.0000000000,  22.1962032318)


Analysis of symmetry for initial positions (statically):
=====================================================================
 Subroutine PRICEL returns:
 Original cell was already a primitive cell.
 

 Routine SETGRP: Setting up the symmetry group for a 
 hexagonal supercell.


 Subroutine GETGRP returns: Found  2 space group operations
 (whereof  2 operations were pure point group operations)
 out of a pool of 24 trial point group operations.


The static configuration has the point symmetry C_1h.


Analysis of symmetry for dynamics (positions and initial velocities):
=====================================================================
 Subroutine PRICEL returns:
 Original cell was already a primitive cell.
 

 Routine SETGRP: Setting up the symmetry group for a 
 hexagonal supercell.


 Subroutine GETGRP returns: Found  2 space group operations
 (whereof  2 operations were pure point group operations)
 out of a pool of 24 trial point group operations.


The dynamic configuration has the point symmetry C_1h.


Analysis of constrained symmetry for selective dynamics:
=====================================================================
 Subroutine PRICEL returns:
 Original cell was already a primitive cell.
 

 Routine SETGRP: Setting up the symmetry group for a 
 hexagonal supercell.


 Subroutine GETGRP returns: Found  2 space group operations
 (whereof  2 operations were pure point group operations)
 out of a pool of 24 trial point group operations.


The constrained configuration has the point symmetry C_1h.


 Subroutine INISYM returns: Found  2 space group operations
 (whereof  2 operations are pure point group operations),
 and found     1 'primitive' translations


----------------------------------------------------------------------------------------

                                     Primitive cell                                     

  volume of cell :    1493.1636

  direct lattice vectors                    reciprocal lattice vectors
     8.813512802  0.000000000  0.000000000     0.113462137 -0.065507406  0.000000000
     4.406756909  7.632725690  0.000000000     0.000000000  0.131014796  0.000000000
     0.000000000  0.000000000 22.196203232     0.000000000  0.000000000  0.045052750

  length of vectors
     8.813512802  8.813512802 22.196203232     0.131014796  0.131014796  0.045052750

  position of ions in fractional coordinates (direct lattice)
     0.000000000  0.000000000  0.237895638
     0.333333343  0.000000000  0.237895638
     0.666666687  0.000000000  0.237895638
     1.000000000  0.333333343  0.237895638
     0.333333313  0.333333343  0.237895638
     0.666666687  0.333333343  0.237895638
     1.000000000  0.666666687  0.237895638
     0.333333343  0.666666687  0.237895638
     0.666666627  0.666666687  0.237895638
     0.111111119  0.111111112  0.345965207
     0.444444418  0.111111112  0.345965207
     0.777777791  0.111111112  0.345965207
     0.111111127  0.444444448  0.345965207
     0.444444478  0.444444448  0.345965207
     0.777777731  0.444444448  0.345965207
     0.111111090  0.777777791  0.345965207
     0.444444448  0.777777791  0.345965207
     0.777777851  0.777777791  0.345965207
     0.889034572  0.221930873  0.453705800
     0.222892879  0.222892864  0.453161960
     0.554214302  0.222892864  0.453161960
     0.887576566  0.556211747  0.453206016
     0.222892834  0.554214302  0.453161960
     0.556211747  0.556211747  0.453206016
     0.889034572  0.889034572  0.453705800
     0.221930903  0.889034572  0.453705800
     0.556211687  0.887576566  0.453206016
     0.000000000  0.000000000  0.562643426
     0.333602496  0.006773743  0.561295001
     0.659623791  0.006773743  0.561295001
     0.006773743  0.333602496  0.561295001
     0.659623791  0.333602496  0.561295001
     0.006773743  0.659623791  0.561295001
     0.333602496  0.659623791  0.561295001
     0.666666627  0.666666687  0.562800356
     0.333333313  0.333333343  0.547908350
     0.284911585  0.333277087  0.618678537
     0.381811297  0.333277087  0.618678537

  ion indices of the primitive-cell ions
   primitive index   ion index
                 1           1
                 2           2
                 3           3
                 4           4
                 5           5
                 6           6
                 7           7
                 8           8
                 9           9
                10          10
                11          11
                12          12
                13          13
                14          14
                15          15
                16          16
                17          17
                18          18
                19          19
                20          20
                21          21
                22          22
                23          23
                24          24
                25          25
                26          26
                27          27
                28          28
                29          29
                30          30
                31          31
                32          32
                33          33
                34          34
                35          35
                36          36
                37          37
                38          38

----------------------------------------------------------------------------------------

 
 
 KPOINTS: Automatic mesh                          

Automatic generation of k-mesh.
 Grid dimensions read from file:
 generate k-points for:    8    8    1

 Generating k-lattice:

  Cartesian coordinates                     Fractional coordinates (reciprocal lattice)
     0.014182767 -0.008188426  0.000000000     0.125000000 -0.000000000  0.000000000
     0.000000000  0.016376850  0.000000000     0.000000000  0.125000000  0.000000000
     0.000000000  0.000000000  0.045052750     0.000000000  0.000000000  1.000000000

  Length of vectors
     0.016376850  0.016376850  0.045052750

  Shift w.r.t. Gamma in fractional coordinates (k-lattice)
     0.000000000  0.000000000  0.000000000

 TETIRR: Found    100 inequivalent tetrahedra from      384
 
 Subroutine IBZKPT returns following result:
 ===========================================
 
 Found     21 irreducible k-points:
 
 Following reciprocal coordinates:
            Coordinates               Weight
  0.000000  0.000000  0.000000      1.000000
  0.125000 -0.000000  0.000000      4.000000
  0.000000  0.125000  0.000000      2.000000
  0.250000 -0.000000  0.000000      4.000000
  0.000000  0.250000  0.000000      2.000000
  0.375000  0.000000  0.000000      4.000000
  0.000000  0.375000  0.000000      2.000000
  0.500000 -0.000000  0.000000      2.000000
  0.000000  0.500000  0.000000      1.000000
  0.250000  0.125000  0.000000      2.000000
  0.125000  0.250000  0.000000      4.000000
  0.375000  0.125000  0.000000      4.000000
  0.250000  0.375000  0.000000      4.000000
 -0.125000  0.250000  0.000000      4.000000
  0.500000  0.125000  0.000000      4.000000
  0.375000  0.500000  0.000000      4.000000
 -0.125000  0.375000  0.000000      4.000000
  0.500000  0.250000  0.000000      2.000000
  0.250000  0.500000  0.000000      4.000000
 -0.375000  0.250000  0.000000      4.000000
 -0.250000  0.375000  0.000000      2.000000
 
 Following cartesian coordinates:
            Coordinates               Weight
  0.000000  0.000000  0.000000      1.000000
  0.014183 -0.008188  0.000000      4.000000
  0.000000  0.016377  0.000000      2.000000
  0.028366 -0.016377  0.000000      4.000000
  0.000000  0.032754  0.000000      2.000000
  0.042548 -0.024565  0.000000      4.000000
  0.000000  0.049131  0.000000      2.000000
  0.056731 -0.032754  0.000000      2.000000
  0.000000  0.065507  0.000000      1.000000
  0.028366 -0.000000  0.000000      2.000000
  0.014183  0.024565  0.000000      4.000000
  0.042548 -0.008188  0.000000      4.000000
  0.028366  0.032754  0.000000      4.000000
 -0.014183  0.040942  0.000000      4.000000
  0.056731 -0.016377  0.000000      4.000000
  0.042548  0.040942  0.000000      4.000000
 -0.014183  0.057319  0.000000      4.000000
  0.056731 -0.000000  0.000000      2.000000
  0.028366  0.049131  0.000000      4.000000
 -0.042548  0.057319  0.000000      4.000000
 -0.028366  0.065507  0.000000      2.000000
 


--------------------------------------------------------------------------------------------------------




 Dimension of arrays:
   k-points           NKPTS =     21   k-points in BZ     NKDIM =     21   number of bands    NBANDS=    252
   number of dos      NEDOS =    301   number of ions     NIONS =     38
   non local maximal  LDIM  =      6   non local SUM 2l+1 LMDIM =     18
   total plane-waves  NPLWV = 290304
   max r-space proj   IRMAX =   2236   max aug-charges    IRDMAX=  12088
   dimension x,y,z NGX =    48 NGY =   48 NGZ =  126
   dimension x,y,z NGXF=    96 NGYF=   96 NGZF=  252
   support grid    NGXF=    96 NGYF=   96 NGZF=  252
   ions per type =              35   1   2
   NGX,Y,Z   is equivalent  to a cutoff of   9.05,  9.05,  9.44 a.u.
   NGXF,Y,Z  is equivalent  to a cutoff of  18.11, 18.11, 18.87 a.u.

 SYSTEM =  unknown system                          
 POSCAR =  Au-Ni-H2                                

 Startparameter for this run:
   NWRITE =      2    write-flag & timer
   PREC   = normal    normal or accurate (medium, high low for compatibility)
   ISTART =      0    job   : 0-new  1-cont  2-samecut
   ICHARG =     11    charge: 1-file 2-atom 10-const
   ISPIN  =      1    spin polarized calculation?
   LNONCOLLINEAR =      F non collinear calculations
   LSORBIT =      F    spin-orbit coupling
   INIWAV =      1    electr: 0-lowe 1-rand  2-diag
   LASPH  =      F    aspherical Exc in radial PAW
   METAGGA=      F    non-selfconsistent MetaGGA calc.

 Electronic Relaxation 1
   ENCUT  =  500.0 eV  36.75 Ry    6.06 a.u.  16.07 16.07 40.47*2*pi/ulx,y,z
   ENINI  =  500.0     initial cutoff
   ENAUG  =  544.6 eV  augmentation charge cutoff
   NELM   =    150;   NELMIN=  2; NELMDL= -5     # of ELM steps 
   EDIFF  = 0.1E-04   stopping-criterion for ELM
   LREAL  =      T    real-space projection
   NLSPLINE    = F    spline interpolate recip. space projectors
   LCOMPAT=      F    compatible to vasp.4.4
   GGA_COMPAT  = T    GGA compatible to vasp.4.4-vasp.4.6
   LMAXPAW     = -100 max onsite density
   LMAXMIX     =    2 max onsite mixed and CHGCAR
   VOSKOWN=      0    Vosko Wilk Nusair interpolation
   ROPT   =   -0.00050  -0.00050  -0.00050
 Ionic relaxation
   EDIFFG = -.1E-01   stopping-criterion for IOM
   NSW    =      0    number of steps for IOM
   NBLOCK =      1;   KBLOCK =      1    inner block; outer block 
   IBRION =     -1    ionic relax: 0-MD 1-quasi-New 2-CG
   NFREE  =      1    steps in history (QN), initial steepest desc. (CG)
   ISIF   =      2    stress and relaxation
   IWAVPR =     10    prediction:  0-non 1-charg 2-wave 3-comb
   ISYM   =      2    0-nonsym 1-usesym 2-fastsym
   LCORR  =      T    Harris-Foulkes like correction to forces

   POTIM  = 0.5000    time-step for ionic-motion
   TEIN   =    0.0    initial temperature
   TEBEG  =    0.0;   TEEND  =   0.0 temperature during run
   SMASS  =  -3.00    Nose mass-parameter (am)
   estimated Nose-frequenzy (Omega)   =  0.10E-29 period in steps = 0.13E+47 mass=  -0.178E-26a.u.
   SCALEE = 1.0000    scale energy and forces
   NPACO  =    256;   APACO  = 16.0  distance and # of slots for P.C.
   PSTRESS=    0.0 pullay stress

  Mass of Ions in am
   POMASS = 196.97 58.69  1.00
  Ionic Valenz
   ZVAL   =  11.00 10.00  1.00
  Atomic Wigner-Seitz radii
   RWIGS  =  -1.00 -1.00 -1.00
  virtual crystal weights 
   VCA    =   1.00  1.00  1.00
   NELECT =     397.0000    total number of electrons
   NUPDOWN=      -1.0000    fix difference up-down

 DOS related values:
   EMIN   =  10.00;   EMAX   =-10.00  energy-range for DOS
   EFERMI =   0.00
   ISMEAR =    -5;   SIGMA  =   0.10  broadening in eV -4-tet -1-fermi 0-gaus

 Electronic relaxation 2 (details)
   IALGO  =     68    algorithm
   LDIAG  =      T    sub-space diagonalisation (order eigenvalues)
   LSUBROT=      F    optimize rotation matrix (better conditioning)
   TURBO    =      0    0=normal 1=particle mesh
   IRESTART =      0    0=no restart 2=restart with 2 vectors
   NREBOOT  =      0    no. of reboots
   NMIN     =      0    reboot dimension
   EREF     =   0.00    reference energy to select bands
   IMIX   =      4    mixing-type and parameters
     AMIX     =   0.40;   BMIX     =  1.00
     AMIX_MAG =   1.60;   BMIX_MAG =  1.00
     AMIN     =   0.10
     WC   =   100.;   INIMIX=   1;  MIXPRE=   1;  MAXMIX= -45

 Intra band minimization:
   WEIMIN = 0.0000     energy-eigenvalue tresh-hold
   EBREAK =  0.99E-08  absolut break condition
   DEPER  =   0.30     relativ break condition  

   TIME   =   0.40     timestep for ELM

  volume/ion in A,a.u.               =      39.29       265.17
  Fermi-wavevector in a.u.,A,eV,Ry     =   1.052695  1.989305 15.077523  1.108167
  Thomas-Fermi vector in A             =   2.187788
 
 Write flags
   LWAVE        =      F    write WAVECAR
   LDOWNSAMPLE  =      F    k-point downsampling of WAVECAR
   LCHARG       =      F    write CHGCAR
   LVTOT        =      F    write LOCPOT, total local potential
   LVHAR        =      F    write LOCPOT, Hartree potential only
   LELF         =      F    write electronic localiz. function (ELF)
   LORBIT       =     10    0 simple, 1 ext, 2 COOP (PROOUT), +10 PAW based schemes


 Dipole corrections
   LMONO  =      F    monopole corrections only (constant potential shift)
   LDIPOL =      F    correct potential (dipole corrections)
   IDIPOL =      0    1-x, 2-y, 3-z, 4-all directions 
   EPSILON=  1.0000000 bulk dielectric constant

 Exchange correlation treatment:
   GGA     =    --    GGA type
   LEXCH   =     8    internal setting for exchange type
   VOSKOWN=      0    Vosko Wilk Nusair interpolation
   LHFCALC =     F    Hartree Fock is set to
   LHFONE  =     F    Hartree Fock one center treatment
   AEXX    =    0.0000 exact exchange contribution

 Linear response parameters
   LEPSILON=     F    determine dielectric tensor
   LRPA    =     F    only Hartree local field effects (RPA)
   LNABLA  =     F    use nabla operator in PAW spheres
   LVEL    =     F    velocity operator in full k-point grid
   LINTERFAST=   F  fast interpolation
   KINTER  =     0    interpolate to denser k-point grid
   CSHIFT  =0.1000    complex shift for real part using Kramers Kronig
   OMEGAMAX=  -1.0    maximum frequency
   DEG_THRESHOLD= 0.2000000E-02 threshold for treating states as degnerate
   RTIME   =   -0.100 relaxation time in fs
  (WPLASMAI=    0.000 imaginary part of plasma frequency in eV, 0.658/RTIME)
   DFIELD  = 0.0000000 0.0000000 0.0000000 field for delta impulse in time
 
 Orbital magnetization related:
   ORBITALMAG=     F  switch on orbital magnetization
   LCHIMAG   =     F  perturbation theory with respect to B field
   DQ        =  0.001000  dq finite difference perturbation B field
   LLRAUG    =     F  two centre corrections for induced B field



--------------------------------------------------------------------------------------------------------


 Static calculation
 charge density and potential remain constant during run
 non-spin polarized calculation
 RMM-DIIS sequential band-by-band and
  variant of blocked Davidson during initial phase
 perform sub-space diagonalisation
    before iterative eigenvector-optimisation
 no mixing
 using additional bands           53
 real space projection scheme for non local part
 use partial core corrections
 calculate Harris-corrections to forces 
   (improved forces if not selfconsistent)
 use gradient corrections 
 WARNING: stress and forces are not correct
  (second derivative of E(xc) not defined)
 use of overlap-Matrix (Vanderbilt PP)
 Fermi weights with tetrahedron method with Bloechl corrections


--------------------------------------------------------------------------------------------------------


  energy-cutoff  :      500.00
  volume of cell :     1493.16
      direct lattice vectors                 reciprocal lattice vectors
     8.813512802  0.000000000  0.000000000     0.113462137 -0.065507406  0.000000000
     4.406756909  7.632725690  0.000000000     0.000000000  0.131014796  0.000000000
     0.000000000  0.000000000 22.196203232     0.000000000  0.000000000  0.045052750

  length of vectors
     8.813512802  8.813512802 22.196203232     0.131014796  0.131014796  0.045052750


 
 k-points in units of 2pi/SCALE and weight: Automatic mesh                          
   0.00000000  0.00000000  0.00000000       0.016
   0.01418277 -0.00818843  0.00000000       0.062
   0.00000000  0.01637685  0.00000000       0.031
   0.02836553 -0.01637685  0.00000000       0.062
   0.00000000  0.03275370  0.00000000       0.031
   0.04254830 -0.02456528  0.00000000       0.062
   0.00000000  0.04913055  0.00000000       0.031
   0.05673107 -0.03275370  0.00000000       0.031
   0.00000000  0.06550740  0.00000000       0.016
   0.02836553 -0.00000000  0.00000000       0.031
   0.01418277  0.02456527  0.00000000       0.062
   0.04254830 -0.00818843  0.00000000       0.062
   0.02836553  0.03275370  0.00000000       0.062
  -0.01418277  0.04094212  0.00000000       0.062
   0.05673107 -0.01637685  0.00000000       0.062
   0.04254830  0.04094212  0.00000000       0.062
  -0.01418277  0.05731897  0.00000000       0.062
   0.05673107 -0.00000000  0.00000000       0.031
   0.02836553  0.04913055  0.00000000       0.062
  -0.04254830  0.05731898  0.00000000       0.062
  -0.02836553  0.06550740  0.00000000       0.031
 
 k-points in reciprocal lattice and weights: Automatic mesh                          
   0.00000000  0.00000000  0.00000000       0.016
   0.12500000 -0.00000000  0.00000000       0.062
   0.00000000  0.12500000  0.00000000       0.031
   0.25000000 -0.00000000  0.00000000       0.062
   0.00000000  0.25000000  0.00000000       0.031
   0.37500000  0.00000000  0.00000000       0.062
   0.00000000  0.37500000  0.00000000       0.031
   0.50000000 -0.00000000  0.00000000       0.031
   0.00000000  0.50000000  0.00000000       0.016
   0.25000000  0.12500000  0.00000000       0.031
   0.12500000  0.25000000  0.00000000       0.062
   0.37500000  0.12500000  0.00000000       0.062
   0.25000000  0.37500000  0.00000000       0.062
  -0.12500000  0.25000000  0.00000000       0.062
   0.50000000  0.12500000  0.00000000       0.062
   0.37500000  0.50000000  0.00000000       0.062
  -0.12500000  0.37500000  0.00000000       0.062
   0.50000000  0.25000000  0.00000000       0.031
   0.25000000  0.50000000  0.00000000       0.062
  -0.37500000  0.25000000  0.00000000       0.062
  -0.25000000  0.37500000  0.00000000       0.031
 
 position of ions in fractional coordinates (direct lattice) 
   0.00000000  0.00000000  0.23789564
   0.33333334  0.00000000  0.23789564
   0.66666669  0.00000000  0.23789564
   0.00000000  0.33333334  0.23789564
   0.33333331  0.33333334  0.23789564
   0.66666669  0.33333334  0.23789564
   0.00000000  0.66666669  0.23789564
   0.33333334  0.66666669  0.23789564
   0.66666663  0.66666669  0.23789564
   0.11111112  0.11111111  0.34596521
   0.44444442  0.11111111  0.34596521
   0.77777779  0.11111111  0.34596521
   0.11111113  0.44444445  0.34596521
   0.44444448  0.44444445  0.34596521
   0.77777773  0.44444445  0.34596521
   0.11111109  0.77777779  0.34596521
   0.44444445  0.77777779  0.34596521
   0.77777785  0.77777779  0.34596521
   0.88903457  0.22193087  0.45370580
   0.22289288  0.22289286  0.45316196
   0.55421430  0.22289286  0.45316196
   0.88757657  0.55621175  0.45320602
   0.22289283  0.55421430  0.45316196
   0.55621175  0.55621175  0.45320602
   0.88903457  0.88903457  0.45370580
   0.22193090  0.88903457  0.45370580
   0.55621169  0.88757657  0.45320602
   0.00000000  0.00000000  0.56264343
   0.33360250  0.00677374  0.56129500
   0.65962379  0.00677374  0.56129500
   0.00677374  0.33360250  0.56129500
   0.65962379  0.33360250  0.56129500
   0.00677374  0.65962379  0.56129500
   0.33360250  0.65962379  0.56129500
   0.66666663  0.66666669  0.56280036
   0.33333331  0.33333334  0.54790835
   0.28491159  0.33327709  0.61867854
   0.38181130  0.33327709  0.61867854
 
 position of ions in cartesian coordinates  (Angst):
   0.00000000  0.00000000  5.28037993
   2.93783769  0.00000000  5.28037993
   5.87567538  0.00000000  5.28037993
   1.46891901  2.54424197  5.28037993
   4.40675643  2.54424197  5.28037993
   7.34459439  2.54424197  5.28037993
   2.93783803  5.08848395  5.28037993
   5.87567571  5.08848395  5.28037993
   8.81351288  5.08848395  5.28037993
   1.46891893  0.84808064  7.67911405
   4.40675623  0.84808064  7.67911405
   7.34459418  0.84808064  7.67911405
   2.93783798  3.39232256  7.67911405
   5.87567574  3.39232256  7.67911405
   8.81351263  3.39232256  7.67911405
   4.40675667  5.93656453  7.67911405
   7.34459449  5.93656453  7.67911405
  10.28243270  5.93656453  7.67911405
   8.81351299  1.69393747 10.07054615
   2.94670391  1.70128009 10.05847497
   5.86680951  1.70128009 10.05847497
  10.27375739  4.24541169 10.05945283
   4.40675655  4.23016574 10.05847497
   7.35326931  4.24541169 10.05945283
  11.75327682  6.78575701 10.07054615
   5.87375009  6.78575701 10.07054615
   8.81351299  6.77462846 10.05945283
   0.00000000  0.00000000 12.48854784
   2.97006011  0.05170212 12.45861791
   5.84345296  0.05170212 12.45861791
   1.52980557  2.54629634 12.45861791
   7.28370783  2.54629634 12.45861791
   2.96650217  5.03472745 12.45861791
   5.84701157  5.03472745 12.45861791
   8.81351288  5.08848395 12.49203108
   4.40675643  2.54424197 12.16148509
   3.97974301  2.54381258 13.73231454
   4.83376986  2.54381258 13.73231454
 


--------------------------------------------------------------------------------------------------------


 k-point   1 :   0.0000 0.0000 0.0000  plane waves:   37827
 k-point   2 :   0.1250-0.0000 0.0000  plane waves:   37876
 k-point   3 :   0.0000 0.1250 0.0000  plane waves:   37876
 k-point   4 :   0.2500-0.0000 0.0000  plane waves:   37924
 k-point   5 :   0.0000 0.2500 0.0000  plane waves:   37924
 k-point   6 :   0.3750 0.0000 0.0000  plane waves:   37904
 k-point   7 :   0.0000 0.3750 0.0000  plane waves:   37904
 k-point   8 :   0.5000-0.0000 0.0000  plane waves:   37912
 k-point   9 :   0.0000 0.5000 0.0000  plane waves:   37912
 k-point  10 :   0.2500 0.1250 0.0000  plane waves:   37858
 k-point  11 :   0.1250 0.2500 0.0000  plane waves:   37858
 k-point  12 :   0.3750 0.1250 0.0000  plane waves:   37928
 k-point  13 :   0.2500 0.3750 0.0000  plane waves:   37928
 k-point  14 :  -0.1250 0.2500 0.0000  plane waves:   37928
 k-point  15 :   0.5000 0.1250 0.0000  plane waves:   37924
 k-point  16 :   0.3750 0.5000 0.0000  plane waves:   37924
 k-point  17 :  -0.1250 0.3750 0.0000  plane waves:   37924
 k-point  18 :   0.5000 0.2500 0.0000  plane waves:   37926
 k-point  19 :   0.2500 0.5000 0.0000  plane waves:   37926
 k-point  20 :  -0.3750 0.2500 0.0000  plane waves:   37916
 k-point  21 :  -0.2500 0.3750 0.0000  plane waves:   37916

 maximum and minimum number of plane-waves per node :     37928    37827

 maximum number of plane-waves:     37928
 maximum index in each direction: 
   IXMAX=   16   IYMAX=   16   IZMAX=   40
   IXMIN=  -16   IYMIN=  -16   IZMIN=  -40


 serial   3D FFT for wavefunctions
 parallel 3D FFT for charge:
    minimum data exchange during FFTs selected (reduces bandwidth)


 total amount of memory used by VASP MPI-rank0   183131. kBytes
=======================================================================

   base      :      30000. kBytes
   nonlr-proj:      13570. kBytes
   fftplans  :       4330. kBytes
   grid      :      17879. kBytes
   one-center:        590. kBytes
   wavefun   :     116762. kBytes
 
     INWAV:  cpu time    0.0000: real time    0.0000
 initial charge density was supplied:
 number of electron     397.0000043 magnetization 
 keeping initial charge density in first step


--------------------------------------------------------------------------------------------------------


 Maximum index for non-local projection operator         2122
 Maximum index for augmentation-charges          854 (set IRDMAX)


--------------------------------------------------------------------------------------------------------


 First call to EWALD:  gamma=   0.155
 Maximum number of real-space cells 4x 4x 2
 Maximum number of reciprocal cells 2x 2x 5

    FEWALD:  cpu time    0.0013: real time    0.0013


--------------------------------------- Iteration      1(   1)  ---------------------------------------


    POTLOK:  cpu time    0.0456: real time    0.0459
    SETDIJ:  cpu time    0.0049: real time    0.0050
     EDDAV:  cpu time   14.9947: real time   14.9960
 BZINTS: Fermi energy:   11.315407;  397.000000 electrons
         Band energy: 0.159215E+04;  BLOECHL correction:   -0.022368
       DOS:  cpu time    0.0302: real time    0.0302
    --------------------------------------------
      LOOP:  cpu time   15.0755: real time   15.0772

 eigenvalue-minimisations  : 10584
 total energy-change (2. order) : 0.2627947E+04  (-0.1791873E+05)
 number of electron     397.0000043 magnetization 
 augmentation part      397.0000043 magnetization 

 Free energy of the ion-electron system (eV)
  ---------------------------------------------------
  alpha Z        PSCENC =      1000.24558354
  Ewald energy   TEWEN  =     98087.11624380
  -Hartree energ DENC   =   -132783.13875815
  -exchange      EXHF   =         0.00000000
  -V(xc)+E(xc)   XCENC  =       553.69569746
  PAW double counting   =     36295.09108742   -35632.74693874
  entropy T*S    EENTRO =         0.00000000
  eigenvalues    EBANDS =      1592.15419191
  atomic energy  EATOM  =     33515.52997406
  Solvation  Ediel_sol  =         0.00000000
  ---------------------------------------------------
  free energy    TOTEN  =      2627.94708131 eV

  energy without entropy =     2627.94708131  energy(sigma->0) =     2627.94708131


--------------------------------------------------------------------------------------------------------




--------------------------------------- Iteration      1(   2)  ---------------------------------------


     EDDAV:  cpu time   16.2852: real time   16.2854
 BZINTS: Fermi energy:    1.440980;  397.000000 electrons
         Band energy:-0.102151E+04;  BLOECHL correction:   -0.063332
       DOS:  cpu time    0.0285: real time    0.0285
    --------------------------------------------
      LOOP:  cpu time   16.3137: real time   16.3139

 eigenvalue-minimisations  : 11760
 total energy-change (2. order) :-0.2613663E+04  (-0.2403559E+04)
 number of electron     397.0000043 magnetization 
 augmentation part      397.0000043 magnetization 

 Free energy of the ion-electron system (eV)
  ---------------------------------------------------
  alpha Z        PSCENC =      1000.24558354
  Ewald energy   TEWEN  =     98087.11624380
  -Hartree energ DENC   =   -132783.13875815
  -exchange      EXHF   =         0.00000000
  -V(xc)+E(xc)   XCENC  =       553.69569746
  PAW double counting   =     36295.09108742   -35632.74693874
  entropy T*S    EENTRO =         0.00000000
  eigenvalues    EBANDS =     -1021.50924743
  atomic energy  EATOM  =     33515.52997406
  Solvation  Ediel_sol  =         0.00000000
  ---------------------------------------------------
  free energy    TOTEN  =        14.28364197 eV

  energy without entropy =       14.28364197  energy(sigma->0) =       14.28364197


--------------------------------------------------------------------------------------------------------




--------------------------------------- Iteration      1(   3)  ---------------------------------------


     EDDAV:  cpu time   16.8250: real time   16.8251
 BZINTS: Fermi energy:    0.766497;  397.000000 electrons
         Band energy:-0.115170E+04;  BLOECHL correction:   -0.077192
       DOS:  cpu time    0.0307: real time    0.0306
    --------------------------------------------
      LOOP:  cpu time   16.8557: real time   16.8558

 eigenvalue-minimisations  : 12208
 total energy-change (2. order) :-0.1301882E+03  (-0.1260567E+03)
 number of electron     397.0000043 magnetization 
 augmentation part      397.0000043 magnetization 

 Free energy of the ion-electron system (eV)
  ---------------------------------------------------
  alpha Z        PSCENC =      1000.24558354
  Ewald energy   TEWEN  =     98087.11624380
  -Hartree energ DENC   =   -132783.13875815
  -exchange      EXHF   =         0.00000000
  -V(xc)+E(xc)   XCENC  =       553.69569746
  PAW double counting   =     36295.09108742   -35632.74693874
  entropy T*S    EENTRO =         0.00000000
  eigenvalues    EBANDS =     -1151.69740343
  atomic energy  EATOM  =     33515.52997406
  Solvation  Ediel_sol  =         0.00000000
  ---------------------------------------------------
  free energy    TOTEN  =      -115.90451403 eV

  energy without entropy =     -115.90451403  energy(sigma->0) =     -115.90451403


--------------------------------------------------------------------------------------------------------




--------------------------------------- Iteration      1(   4)  ---------------------------------------


     EDDAV:  cpu time   16.7441: real time   16.7442
 BZINTS: Fermi energy:    0.752019;  397.000000 electrons
         Band energy:-0.115426E+04;  BLOECHL correction:   -0.074992
       DOS:  cpu time    0.0299: real time    0.0299
    --------------------------------------------
      LOOP:  cpu time   16.7741: real time   16.7742

 eigenvalue-minimisations  : 12152
 total energy-change (2. order) :-0.2566788E+01  (-0.2564999E+01)
 number of electron     397.0000043 magnetization 
 augmentation part      397.0000043 magnetization 

 Free energy of the ion-electron system (eV)
  ---------------------------------------------------
  alpha Z        PSCENC =      1000.24558354
  Ewald energy   TEWEN  =     98087.11624380
  -Hartree energ DENC   =   -132783.13875815
  -exchange      EXHF   =         0.00000000
  -V(xc)+E(xc)   XCENC  =       553.69569746
  PAW double counting   =     36295.09108742   -35632.74693874
  entropy T*S    EENTRO =         0.00000000
  eigenvalues    EBANDS =     -1154.26419170
  atomic energy  EATOM  =     33515.52997406
  Solvation  Ediel_sol  =         0.00000000
  ---------------------------------------------------
  free energy    TOTEN  =      -118.47130230 eV

  energy without entropy =     -118.47130230  energy(sigma->0) =     -118.47130230


--------------------------------------------------------------------------------------------------------




--------------------------------------- Iteration      1(   5)  ---------------------------------------


     EDDAV:  cpu time   17.7361: real time   17.7362
 BZINTS: Fermi energy:    0.751737;  397.000000 electrons
         Band energy:-0.115433E+04;  BLOECHL correction:   -0.075002
       DOS:  cpu time    0.0300: real time    0.0300
    --------------------------------------------
      LOOP:  cpu time   17.7661: real time   17.7662

 eigenvalue-minimisations  : 13020
 total energy-change (2. order) :-0.6206763E-01  (-0.6204910E-01)
 number of electron     397.0000043 magnetization 
 augmentation part      397.0000043 magnetization 

 Free energy of the ion-electron system (eV)
  ---------------------------------------------------
  alpha Z        PSCENC =      1000.24558354
  Ewald energy   TEWEN  =     98087.11624380
  -Hartree energ DENC   =   -132783.13875815
  -exchange      EXHF   =         0.00000000
  -V(xc)+E(xc)   XCENC  =       553.69569746
  PAW double counting   =     36295.09108742   -35632.74693874
  entropy T*S    EENTRO =         0.00000000
  eigenvalues    EBANDS =     -1154.32625933
  atomic energy  EATOM  =     33515.52997406
  Solvation  Ediel_sol  =         0.00000000
  ---------------------------------------------------
  free energy    TOTEN  =      -118.53336993 eV

  energy without entropy =     -118.53336993  energy(sigma->0) =     -118.53336993


--------------------------------------------------------------------------------------------------------




--------------------------------------- Iteration      1(   6)  ---------------------------------------


    EDDIAG:  cpu time    2.9415: real time    2.9418
  RMM-DIIS:  cpu time    8.1730: real time    8.1731
    ORTHCH:  cpu time    0.5467: real time    0.5467
 BZINTS: Fermi energy:    0.751735;  397.000000 electrons
         Band energy:-0.115433E+04;  BLOECHL correction:   -0.075002
       DOS:  cpu time    0.0287: real time    0.0287
    --------------------------------------------
      LOOP:  cpu time   11.6899: real time   11.6902

 eigenvalue-minimisations  : 10622
 total energy-change (2. order) :-0.1917507E-02  (-0.1917051E-02)
 number of electron     397.0000043 magnetization 
 augmentation part      397.0000043 magnetization 

 Free energy of the ion-electron system (eV)
  ---------------------------------------------------
  alpha Z        PSCENC =      1000.24558354
  Ewald energy   TEWEN  =     98087.11624380
  -Hartree energ DENC   =   -132783.13875815
  -exchange      EXHF   =         0.00000000
  -V(xc)+E(xc)   XCENC  =       553.69569746
  PAW double counting   =     36295.09108742   -35632.74693874
  entropy T*S    EENTRO =         0.00000000
  eigenvalues    EBANDS =     -1154.32817684
  atomic energy  EATOM  =     33515.52997406
  Solvation  Ediel_sol  =         0.00000000
  ---------------------------------------------------
  free energy    TOTEN  =      -118.53528744 eV

  energy without entropy =     -118.53528744  energy(sigma->0) =     -118.53528744


--------------------------------------------------------------------------------------------------------




--------------------------------------- Iteration      1(   7)  ---------------------------------------


    EDDIAG:  cpu time    2.9427: real time    2.9428
  RMM-DIIS:  cpu time   11.4269: real time   11.4269
    ORTHCH:  cpu time    0.5469: real time    0.5469
 BZINTS: Fermi energy:    0.751735;  397.000000 electrons
         Band energy:-0.115433E+04;  BLOECHL correction:   -0.075002
       DOS:  cpu time    0.0293: real time    0.0293
    --------------------------------------------
      LOOP:  cpu time   14.9457: real time   14.9458

 eigenvalue-minimisations  : 15109
 total energy-change (2. order) :-0.6347601E-03  (-0.6268859E-03)
 number of electron     397.0000043 magnetization 
 augmentation part      397.0000043 magnetization 

 Free energy of the ion-electron system (eV)
  ---------------------------------------------------
  alpha Z        PSCENC =      1000.24558354
  Ewald energy   TEWEN  =     98087.11624380
  -Hartree energ DENC   =   -132783.13875815
  -exchange      EXHF   =         0.00000000
  -V(xc)+E(xc)   XCENC  =       553.69569746
  PAW double counting   =     36295.09108742   -35632.74693874
  entropy T*S    EENTRO =         0.00000000
  eigenvalues    EBANDS =     -1154.32881160
  atomic energy  EATOM  =     33515.52997406
  Solvation  Ediel_sol  =         0.00000000
  ---------------------------------------------------
  free energy    TOTEN  =      -118.53592220 eV

  energy without entropy =     -118.53592220  energy(sigma->0) =     -118.53592220


--------------------------------------------------------------------------------------------------------




--------------------------------------- Iteration      1(   8)  ---------------------------------------


    EDDIAG:  cpu time    2.9452: real time    2.9452
  RMM-DIIS:  cpu time    8.9284: real time    8.9284
    ORTHCH:  cpu time    0.5467: real time    0.5467
 BZINTS: Fermi energy:    0.751735;  397.000000 electrons
         Band energy:-0.115433E+04;  BLOECHL correction:   -0.075002
       DOS:  cpu time    0.0299: real time    0.0299
    --------------------------------------------
      LOOP:  cpu time   12.4501: real time   12.4502

 eigenvalue-minimisations  : 11373
 total energy-change (2. order) :-0.2816122E-04  (-0.2757235E-04)
 number of electron     397.0000043 magnetization 
 augmentation part      397.0000043 magnetization 

 Free energy of the ion-electron system (eV)
  ---------------------------------------------------
  alpha Z        PSCENC =      1000.24558354
  Ewald energy   TEWEN  =     98087.11624380
  -Hartree energ DENC   =   -132783.13875815
  -exchange      EXHF   =         0.00000000
  -V(xc)+E(xc)   XCENC  =       553.69569746
  PAW double counting   =     36295.09108742   -35632.74693874
  entropy T*S    EENTRO =         0.00000000
  eigenvalues    EBANDS =     -1154.32883976
  atomic energy  EATOM  =     33515.52997406
  Solvation  Ediel_sol  =         0.00000000
  ---------------------------------------------------
  free energy    TOTEN  =      -118.53595036 eV

  energy without entropy =     -118.53595036  energy(sigma->0) =     -118.53595036


--------------------------------------------------------------------------------------------------------




--------------------------------------- Iteration      1(   9)  ---------------------------------------


    EDDIAG:  cpu time    2.9448: real time    2.9449
  RMM-DIIS:  cpu time    7.6881: real time    7.6881
    ORTHCH:  cpu time    0.5466: real time    0.5466
 BZINTS: Fermi energy:    0.751735;  397.000000 electrons
         Band energy:-0.115433E+04;  BLOECHL correction:   -0.075002
       DOS:  cpu time    0.0299: real time    0.0299
    --------------------------------------------
      LOOP:  cpu time   11.2094: real time   11.2095

 eigenvalue-minimisations  :  8785
 total energy-change (2. order) :-0.8139119E-05  (-0.8018352E-05)
 number of electron     397.0000043 magnetization 
 augmentation part      397.0000043 magnetization 

 Free energy of the ion-electron system (eV)
  ---------------------------------------------------
  alpha Z        PSCENC =      1000.24558354
  Ewald energy   TEWEN  =     98087.11624380
  -Hartree energ DENC   =   -132783.13875815
  -exchange      EXHF   =         0.00000000
  -V(xc)+E(xc)   XCENC  =       553.69569746
  PAW double counting   =     36295.09108742   -35632.74693874
  entropy T*S    EENTRO =         0.00000000
  eigenvalues    EBANDS =     -1154.32884790
  atomic energy  EATOM  =     33515.52997406
  Solvation  Ediel_sol  =         0.00000000
  ---------------------------------------------------
  free energy    TOTEN  =      -118.53595850 eV

  energy without entropy =     -118.53595850  energy(sigma->0) =     -118.53595850


--------------------------------------------------------------------------------------------------------




 average (electrostatic) potential at core
  the test charge radii are     1.2098  0.9791  0.5201
  (the norm of the test charge is              1.0000)
       1 -72.2950       2 -72.2388       3 -72.2388       4 -72.2384       5 -72.2404
       6 -72.2381       7 -72.2372       8 -72.2370       9 -72.2475      10 -72.6071
      11 -72.5697      12 -72.6068      13 -72.5686      14 -72.5682      15 -72.5990
      16 -72.6041      17 -72.5999      18 -72.6000      19 -72.5434      20 -72.6374
      21 -72.6370      22 -72.5866      23 -72.6331      24 -72.5862      25 -72.5407
      26 -72.5407      27 -72.5867      28 -72.1914      29 -72.1771      30 -72.1770
      31 -72.2040      32 -72.2038      33 -72.1760      34 -72.1758      35 -72.1558
      36 -90.1449      37 -37.5094      38 -37.5093
 
 
 
 E-fermi :   0.7517     XC(G=0):  -6.1121     alpha+bet : -5.7228

 Fermi energy:         0.7517350036

 k-point     1 :       0.0000    0.0000    0.0000
  band No.  band energies     occupation 
      1      -8.0974      2.00000
      2      -7.5598      2.00000
      3      -6.7549      2.00000
      4      -5.9085      2.00000
      5      -5.8850      2.00000
      6      -5.8844      2.00000
      7      -5.8833      2.00000
      8      -5.8747      2.00000
      9      -5.8615      2.00000
     10      -5.8614      2.00000
     11      -5.6608      2.00000
     12      -5.4037      2.00000
     13      -5.3962      2.00000
     14      -5.3950      2.00000
     15      -5.3720      2.00000
     16      -5.3716      2.00000
     17      -5.3568      2.00000
     18      -5.0172      2.00000
     19      -5.0152      2.00000
     20      -5.0036      2.00000
     21      -4.9825      2.00000
     22      -4.9713      2.00000
     23      -4.9712      2.00000
     24      -4.8441      2.00000
     25      -4.8404      2.00000
     26      -4.8330      2.00000
     27      -4.8090      2.00000
     28      -4.8078      2.00000
     29      -4.7770      2.00000
     30      -4.6786      2.00000
     31      -4.6783      2.00000
     32      -4.6568      2.00000
     33      -4.6561      2.00000
     34      -4.6495      2.00000
     35      -4.6396      2.00000
     36      -4.6369      2.00000
     37      -4.6320      2.00000
     38      -4.6290      2.00000
     39      -4.4560      2.00000
     40      -4.4556      2.00000
     41      -4.4177      2.00000
     42      -4.1639      2.00000
     43      -4.1638      2.00000
     44      -4.1228      2.00000
     45      -4.1152      2.00000
     46      -4.1142      2.00000
     47      -4.0876      2.00000
     48      -4.0872      2.00000
     49      -4.0584      2.00000
     50      -4.0291      2.00000
     51      -4.0277      2.00000
     52      -4.0080      2.00000
     53      -3.9978      2.00000
     54      -3.9710      2.00000
     55      -3.9431      2.00000
     56      -3.5768      2.00000
     57      -3.5683      2.00000
     58      -3.5556      2.00000
     59      -3.5531      2.00000
     60      -3.5293      2.00000
     61      -3.5281      2.00000
     62      -3.5086      2.00000
     63      -3.5014      2.00000
     64      -3.5012      2.00000
     65      -3.4484      2.00000
     66      -3.4481      2.00000
     67      -3.3987      2.00000
     68      -3.3970      2.00000
     69      -3.3905      2.00000
     70      -3.3399      2.00000
     71      -3.3387      2.00000
     72      -3.3350      2.00000
     73      -3.3095      2.00000
     74      -3.3095      2.00000
     75      -3.3087      2.00000
     76      -3.2993      2.00000
     77      -3.2989      2.00000
     78      -3.2920      2.00000
     79      -3.2807      2.00000
     80      -3.2803      2.00000
     81      -3.2436      2.00000
     82      -3.2410      2.00000
     83      -3.2169      2.00000
     84      -3.1842      2.00000
     85      -3.1833      2.00000
     86      -3.1796      2.00000
     87      -3.1590      2.00000
     88      -3.1561      2.00000
     89      -3.0904      2.00000
     90      -3.0731      2.00000
     91      -3.0729      2.00000
     92      -2.9104      2.00000
     93      -2.9097      2.00000
     94      -2.8881      2.00000
     95      -2.8880      2.00000
     96      -2.8827      2.00000
     97      -2.8791      2.00000
     98      -2.8222      2.00000
     99      -2.7675      2.00000
    100      -2.7181      2.00000
    101      -2.7137      2.00000
    102      -2.7028      2.00000
    103      -2.6711      2.00000
    104      -2.6599      2.00000
    105      -2.6547      2.00000
    106      -2.5121      2.00000
    107      -2.4946      2.00000
    108      -2.4942      2.00000
    109      -2.4898      2.00000
    110      -2.4890      2.00000
    111      -2.4760      2.00000
    112      -2.4576      2.00000
    113      -2.3906      2.00000
    114      -2.3815      2.00000
    115      -2.3806      2.00000
    116      -2.3731      2.00000
    117      -2.2581      2.00000
    118      -2.2403      2.00000
    119      -2.2181      2.00000
    120      -2.1906      2.00000
    121      -2.1893      2.00000
    122      -2.1673      2.00000
    123      -2.1321      2.00000
    124      -2.1311      2.00000
    125      -2.1022      2.00000
    126      -2.1005      2.00000
    127      -2.0464      2.00000
    128      -2.0447      2.00000
    129      -1.9713      2.00000
    130      -1.9474      2.00000
    131      -1.9469      2.00000
    132      -1.9391      2.00000
    133      -1.9353      2.00000
    134      -1.9308      2.00000
    135      -1.9258      2.00000
    136      -1.9246      2.00000
    137      -1.9129      2.00000
    138      -1.8715      2.00000
    139      -1.8664      2.00000
    140      -1.7834      2.00000
    141      -1.7756      2.00000
    142      -1.7652      2.00000
    143      -1.6761      2.00000
    144      -1.6736      2.00000
    145      -1.6699      2.00000
    146      -1.6621      2.00000
    147      -1.6572      2.00000
    148      -1.6495      2.00000
    149      -1.6473      2.00000
    150      -1.6289      2.00000
    151      -1.6164      2.00000
    152      -1.6150      2.00000
    153      -1.6131      2.00000
    154      -1.6071      2.00000
    155      -1.4943      2.00000
    156      -1.4739      2.00000
    157      -1.4726      2.00000
    158      -1.4720      2.00000
    159      -1.4674      2.00000
    160      -1.4611      2.00000
    161      -1.4548      2.00000
    162      -1.4538      2.00000
    163      -1.4357      2.00000
    164      -1.4161      2.00000
    165      -1.4135      2.00000
    166      -1.4129      2.00000
    167      -1.4040      2.00000
    168      -1.4017      2.00000
    169      -1.3763      2.00000
    170      -1.3736      2.00000
    171      -1.3560      2.00000
    172      -1.3480      2.00000
    173      -1.3458      2.00000
    174      -1.3454      2.00000
    175      -1.3413      2.00000
    176      -1.2899      2.00000
    177      -1.2883      2.00000
    178      -1.2851      2.00000
    179      -1.2751      2.00000
    180      -1.2508      2.00000
    181      -1.2507      2.00000
    182      -1.2458      2.00000
    183      -1.2321      2.00000
    184      -1.1878      2.00000
    185      -1.1801      2.00000
    186      -1.0941      2.00000
    187      -1.0935      2.00000
    188      -1.0462      2.00000
    189      -1.0459      2.00000
    190      -1.0201      2.00000
    191      -1.0095      2.00000
    192      -0.5565      2.00000
    193      -0.4022      2.00000
    194      -0.3536      2.00000
    195      -0.1280      2.00000
    196       0.0168      2.00000
    197       0.0198      2.00000
    198       0.2180      2.00000
    199       0.2240      2.00000
    200       0.2356      2.00000
    201       0.2781      2.00000
    202       0.2878      2.00000
    203       0.9052      0.00000
    204       1.4893      0.00000
    205       2.3395      0.00000
    206       2.3589      0.00000
    207       2.3766      0.00000
    208       2.3909      0.00000
    209       2.3927      0.00000
    210       2.9651      0.00000
    211       3.5214      0.00000
    212       3.5422      0.00000
    213       3.5487      0.00000
    214       3.5537      0.00000
    215       3.6371      0.00000
    216       3.7808      0.00000
    217       4.2286      0.00000
    218       4.6648      0.00000
    219       5.0603      0.00000
    220       5.1798      0.00000
    221       5.3087      0.00000
    222       5.3569      0.00000
    223       5.3948      0.00000
    224       5.4284      0.00000
    225       5.4443      0.00000
    226       5.4672      0.00000
    227       5.4880      0.00000
    228       5.5005      0.00000
    229       5.5380      0.00000
    230       5.8596      0.00000
    231       6.2402      0.00000
    232       6.4901      0.00000
    233       6.4993      0.00000
    234       6.8349      0.00000
    235       6.9197      0.00000
    236       6.9887      0.00000
    237       6.9972      0.00000
    238       7.0467      0.00000
    239       7.0645      0.00000
    240       7.0727      0.00000
    241       7.1038      0.00000
    242       7.1619      0.00000
    243       7.1697      0.00000
    244       7.3406      0.00000
    245       7.3638      0.00000
    246       7.4134      0.00000
    247       7.4359      0.00000
    248       7.4373      0.00000
    249       7.4393      0.00000
    250       7.5412      0.00000
    251       7.8892      0.00000
    252       7.9641      0.00000

 k-point     2 :       0.1250   -0.0000    0.0000
  band No.  band energies     occupation 
      1      -8.0505      2.00000
      2      -7.5481      2.00000
      3      -6.7132      2.00000
      4      -6.1287      2.00000
      5      -5.9533      2.00000
      6      -5.9496      2.00000
      7      -5.8560      2.00000
      8      -5.7695      2.00000
      9      -5.7576      2.00000
     10      -5.7433      2.00000
     11      -5.6259      2.00000
     12      -5.4302      2.00000
     13      -5.4011      2.00000
     14      -5.3750      2.00000
     15      -5.3711      2.00000
     16      -5.3486      2.00000
     17      -5.3318      2.00000
     18      -5.0640      2.00000
     19      -5.0090      2.00000
     20      -5.0081      2.00000
     21      -4.9681      2.00000
     22      -4.9500      2.00000
     23      -4.9466      2.00000
     24      -4.8921      2.00000
     25      -4.8459      2.00000
     26      -4.8383      2.00000
     27      -4.7925      2.00000
     28      -4.7784      2.00000
     29      -4.7432      2.00000
     30      -4.7289      2.00000
     31      -4.7222      2.00000
     32      -4.7121      2.00000
     33      -4.7083      2.00000
     34      -4.6258      2.00000
     35      -4.6063      2.00000
     36      -4.6010      2.00000
     37      -4.5365      2.00000
     38      -4.5224      2.00000
     39      -4.4422      2.00000
     40      -4.4321      2.00000
     41      -4.3941      2.00000
     42      -4.2319      2.00000
     43      -4.2253      2.00000
     44      -4.1811      2.00000
     45      -4.1535      2.00000
     46      -4.1472      2.00000
     47      -4.1243      2.00000
     48      -4.1142      2.00000
     49      -4.0325      2.00000
     50      -4.0080      2.00000
     51      -3.9736      2.00000
     52      -3.9678      2.00000
     53      -3.9533      2.00000
     54      -3.9460      2.00000
     55      -3.9316      2.00000
     56      -3.6290      2.00000
     57      -3.6001      2.00000
     58      -3.5849      2.00000
     59      -3.5837      2.00000
     60      -3.5702      2.00000
     61      -3.5568      2.00000
     62      -3.5375      2.00000
     63      -3.5313      2.00000
     64      -3.5215      2.00000
     65      -3.4850      2.00000
     66      -3.4809      2.00000
     67      -3.4706      2.00000
     68      -3.4506      2.00000
     69      -3.4264      2.00000
     70      -3.4237      2.00000
     71      -3.4159      2.00000
     72      -3.3798      2.00000
     73      -3.3486      2.00000
     74      -3.3439      2.00000
     75      -3.3398      2.00000
     76      -3.3260      2.00000
     77      -3.2979      2.00000
     78      -3.2633      2.00000
     79      -3.2594      2.00000
     80      -3.2461      2.00000
     81      -3.2221      2.00000
     82      -3.2112      2.00000
     83      -3.1775      2.00000
     84      -3.1642      2.00000
     85      -3.1570      2.00000
     86      -3.1405      2.00000
     87      -3.1107      2.00000
     88      -3.0988      2.00000
     89      -3.0845      2.00000
     90      -3.0449      2.00000
     91      -3.0114      2.00000
     92      -2.9987      2.00000
     93      -2.9948      2.00000
     94      -2.9156      2.00000
     95      -2.9046      2.00000
     96      -2.8266      2.00000
     97      -2.8129      2.00000
     98      -2.8037      2.00000
     99      -2.7643      2.00000
    100      -2.7474      2.00000
    101      -2.7389      2.00000
    102      -2.7215      2.00000
    103      -2.7023      2.00000
    104      -2.6740      2.00000
    105      -2.6048      2.00000
    106      -2.5910      2.00000
    107      -2.5784      2.00000
    108      -2.5302      2.00000
    109      -2.5114      2.00000
[...]
  0.000   0.000   0.000   0.000   0.000   0.000   0.000   0.000   0.000   0.000   0.000   0.000   0.000   0.000   0.000   0.000
  0.000   0.000   0.000   0.000   0.000   0.000   0.000   0.000   0.000   0.000   0.000   0.000   0.000   0.000   0.000   0.000
  0.000   0.000   0.000   0.000   0.000   0.000   0.000   0.000   0.000   0.000   1.000   0.000   0.000   0.000   0.000   0.000
  0.000   0.000   0.000   0.000   0.000   0.000   0.000   0.000   0.000   0.000   0.000   0.000   0.000   0.000   0.000   0.000
  0.000   0.000   0.000   0.000   0.000   0.000   0.000   0.000   0.000   0.000   0.000   0.000   0.000   0.000   0.000   0.000
  0.000   0.000   0.000   0.000   0.000   0.000   0.000   0.000   0.000   0.000   0.000   0.000   0.000   0.000   0.000   0.000
  0.000   0.000   0.000   0.000   0.000   0.000   0.000   0.000   0.000   0.000   0.000   0.000   0.000   0.000   0.000   0.000
  0.000   0.000   0.000   0.000   0.000   0.000   0.000   0.000   0.000   0.000   0.000   0.000   0.000   0.000   0.000   0.000
  0.000   0.000   0.000   0.000   0.000   0.000   0.000   0.000   0.000   0.000   0.000   0.000   0.000   0.000   0.000   0.000
  0.000   0.000   0.000   0.000   0.000   0.000   0.000   0.000   0.000   0.000   0.000   0.000   0.000   0.000   0.000   0.000


------------------------ aborting loop because EDIFF is reached ----------------------------------------





 total charge

# of ion       s       p       d       tot
------------------------------------------
    1        0.541   0.240   8.766   9.547
    2        0.545   0.240   8.765   9.550
    3        0.545   0.240   8.765   9.550
    4        0.545   0.240   8.766   9.551
    5        0.542   0.241   8.766   9.549
    6        0.545   0.240   8.766   9.551
    7        0.545   0.240   8.766   9.550
    8        0.545   0.240   8.766   9.550
    9        0.541   0.240   8.768   9.549
   10        0.520   0.307   8.773   9.601
   11        0.523   0.306   8.779   9.609
   12        0.520   0.307   8.773   9.601
   13        0.523   0.307   8.779   9.609
   14        0.523   0.307   8.779   9.609
   15        0.515   0.310   8.776   9.601
   16        0.520   0.308   8.773   9.601
   17        0.515   0.310   8.776   9.601
   18        0.515   0.310   8.776   9.601
   19        0.518   0.301   8.778   9.598
   20        0.536   0.325   8.759   9.620
   21        0.536   0.325   8.759   9.620
   22        0.514   0.310   8.774   9.598
   23        0.535   0.326   8.760   9.620
   24        0.514   0.310   8.774   9.598
   25        0.518   0.301   8.778   9.598
   26        0.518   0.301   8.778   9.598
   27        0.514   0.310   8.774   9.598
   28        0.539   0.226   8.766   9.532
   29        0.547   0.233   8.771   9.551
   30        0.547   0.233   8.771   9.551
   31        0.546   0.236   8.768   9.550
   32        0.546   0.236   8.768   9.550
   33        0.547   0.233   8.771   9.551
   34        0.547   0.233   8.771   9.551
   35        0.540   0.225   8.769   9.535
   36        0.364   0.390   8.399   9.152
   37        0.551   0.032   0.000   0.583
   38        0.551   0.032   0.000   0.583
--------------------------------------------------
tot         20.097  10.050 315.368 345.514
 
    CHARGE:  cpu time    0.6638: real time    0.6638
    FORLOC:  cpu time    0.0102: real time    0.0102
    FORNL :  cpu time    2.9790: real time    2.9791
    STRESS:  cpu time    8.9420: real time    8.9422
    FORCOR:  cpu time    0.0426: real time    0.0427
    FORHAR:  cpu time    0.0168: real time    0.0169
    OFIELD:  cpu time    0.0003: real time    0.0002

  FORCE on cell =-STRESS in cart. coord.  units (eV):
  Direction    XX          YY          ZZ          XY          YZ          ZX
  --------------------------------------------------------------------------------------
  Alpha Z  1000.24558  1000.24558  1000.24558
  Ewald  120904.47769120879.00889************    -0.00032     0.03815    -0.00014
  Hartree129734.69797129728.84535************     0.00001     0.00472    -0.00004
  E(xc)   -1788.92399 -1789.19413 -1795.55429    -0.00000     0.00024    -0.00000
  Local  ************************263147.22320     0.00207    -0.03526     0.00009
  n-local   -72.99632   -72.03645   -53.97105     3.94132    -0.01516     0.17760
  augment  2546.56940  2547.60068  2552.45942    -0.00154     0.01341     0.00003
  Kinetic  5444.66307  5450.73654  5487.69978     0.79747     0.00092     0.12984
  Fock        0.00000     0.00000     0.00000     0.00000     0.00000     0.00000
  -------------------------------------------------------------------------------------
  Total     -19.82112   -19.59147     2.37408    -0.00000     0.00702     0.00000
  in kB     -21.26823   -21.02181     2.54741    -0.00000     0.00753     0.00000
  external pressure =      -13.25 kB  Pullay stress =        0.00 kB


 VOLUME and BASIS-vectors are now :
 -----------------------------------------------------------------------------
  energy-cutoff  :      500.00
  volume of cell :     1493.16
      direct lattice vectors                 reciprocal lattice vectors
     8.813512802  0.000000000  0.000000000     0.113462137 -0.065507406  0.000000000
     4.406756909  7.632725690  0.000000000     0.000000000  0.131014796  0.000000000
     0.000000000  0.000000000 22.196203232     0.000000000  0.000000000  0.045052750

  length of vectors
     8.813512802  8.813512802 22.196203232     0.131014796  0.131014796  0.045052750


 FORCES acting on ions
    electron-ion (+dipol)            ewald-force                    non-local-force                 convergence-correction
 -----------------------------------------------------------------------------------------------
   -.199E-04 0.101E-01 0.249E+04   0.519E-04 -.223E-02 -.249E+04   -.824E-10 -.124E-02 -.955E+00   -.260E-03 -.557E-02 -.796E+00
   0.488E+00 0.480E+00 0.249E+04   -.521E+00 -.466E+00 -.249E+04   0.279E-01 0.221E-01 -.353E+00   0.344E-02 -.261E-01 -.826E+00
   -.488E+00 0.480E+00 0.249E+04   0.521E+00 -.466E+00 -.249E+04   -.279E-01 0.221E-01 -.353E+00   -.310E-02 -.241E-01 -.825E+00
   0.655E+00 0.186E+00 0.249E+04   -.663E+00 -.219E+00 -.249E+04   0.340E-01 0.107E-01 -.354E+00   -.189E-01 0.144E-01 -.837E+00
   0.751E-05 0.425E-02 0.249E+04   0.951E-04 0.319E-04 -.249E+04   -.254E-09 -.381E-02 -.339E+00   0.434E-02 0.703E-03 -.786E+00
   -.655E+00 0.186E+00 0.249E+04   0.663E+00 -.219E+00 -.249E+04   -.340E-01 0.107E-01 -.354E+00   0.173E-01 0.153E-01 -.836E+00
   0.167E+00 -.668E+00 0.249E+04   -.141E+00 0.686E+00 -.249E+04   0.550E-02 -.360E-01 -.356E+00   -.201E-01 0.147E-01 -.837E+00
   -.168E+00 -.668E+00 0.249E+04   0.141E+00 0.686E+00 -.249E+04   -.550E-02 -.360E-01 -.356E+00   0.220E-01 0.136E-01 -.837E+00
   0.196E-04 0.446E-02 0.249E+04   0.166E-03 0.223E-02 -.249E+04   -.399E-09 -.599E-02 -.580E+00   -.462E-02 -.105E-02 -.854E+00
   0.432E+01 0.251E+01 0.841E+03   -.395E+01 -.230E+01 -.840E+03   -.238E+00 -.135E+00 -.607E+00   -.800E-01 -.526E-01 -.319E+00
   0.152E-04 0.569E+01 0.850E+03   0.147E-03 -.568E+01 -.849E+03   0.937E-09 0.141E-01 -.419E+00   0.416E-02 -.534E-01 -.271E+00
   -.432E+01 0.251E+01 0.841E+03   0.395E+01 -.230E+01 -.840E+03   0.238E+00 -.135E+00 -.607E+00   0.784E-01 -.510E-01 -.319E+00
   0.489E+01 -.283E+01 0.850E+03   -.491E+01 0.285E+01 -.849E+03   0.244E-01 -.201E-01 -.417E+00   -.329E-01 0.234E-01 -.271E+00
   -.489E+01 -.283E+01 0.850E+03   0.490E+01 0.285E+01 -.849E+03   -.244E-01 -.201E-01 -.417E+00   0.409E-01 0.226E-01 -.271E+00
   0.308E-04 0.188E+01 0.842E+03   0.237E-03 -.190E+01 -.841E+03   -.133E-08 -.200E-01 -.448E+00   -.261E-02 0.198E-01 -.329E+00
   -.218E-04 -.500E+01 0.841E+03   0.163E-03 0.457E+01 -.840E+03   0.185E-07 0.279E+00 -.598E+00   0.188E-03 0.100E+00 -.317E+00
   0.164E+01 -.969E+00 0.842E+03   -.166E+01 0.963E+00 -.841E+03   -.174E-01 0.142E-01 -.446E+00   0.205E-01 -.104E-02 -.326E+00
   -.164E+01 -.969E+00 0.842E+03   0.166E+01 0.963E+00 -.841E+03   0.174E-01 0.142E-01 -.446E+00   -.202E-01 0.129E-02 -.325E+00
   -.387E-04 0.235E+01 -.846E+03   0.532E-04 -.243E+01 0.845E+03   0.557E-08 0.837E-01 0.669E+00   -.457E-02 -.409E-02 0.551E+00
   0.365E+02 0.212E+02 -.796E+03   -.358E+02 -.208E+02 0.796E+03   -.742E+00 -.443E+00 -.830E+00   0.146E+00 0.703E-01 0.822E+00
   -.365E+02 0.212E+02 -.796E+03   0.358E+02 -.208E+02 0.796E+03   0.742E+00 -.443E+00 -.830E+00   -.144E+00 0.716E-01 0.822E+00
   0.114E+02 -.674E+01 -.833E+03   -.117E+02 0.686E+01 0.832E+03   0.258E+00 -.140E+00 0.582E+00   0.119E-01 0.261E-03 0.596E+00
   -.132E-04 -.422E+02 -.796E+03   0.145E-03 0.416E+02 0.796E+03   0.558E-07 0.839E+00 -.805E+00   0.190E-02 -.165E+00 0.845E+00
   -.114E+02 -.674E+01 -.833E+03   0.117E+02 0.686E+01 0.832E+03   -.258E+00 -.140E+00 0.582E+00   -.187E-01 -.809E-03 0.596E+00
   -.197E+01 -.108E+01 -.846E+03   0.205E+01 0.113E+01 0.845E+03   -.690E-01 -.442E-01 0.694E+00   -.925E-02 -.503E-02 0.564E+00
   0.197E+01 -.108E+01 -.846E+03   -.205E+01 0.113E+01 0.845E+03   0.690E-01 -.442E-01 0.694E+00   0.438E-02 -.722E-02 0.564E+00
   0.101E-04 0.132E+02 -.833E+03   0.198E-03 -.135E+02 0.832E+03   0.202E-07 0.303E+00 0.584E+00   -.298E-02 0.143E-01 0.598E+00
   -.104E-04 0.413E+00 -.250E+04   0.285E-04 -.378E+00 0.250E+04   -.124E-08 -.187E-01 0.465E+00   -.161E-03 -.221E-01 0.804E+00
   0.242E+02 0.404E+02 -.249E+04   -.241E+02 -.403E+02 0.249E+04   -.355E+00 -.520E+00 0.636E+00   0.146E+00 0.198E+00 0.787E+00
   -.242E+02 0.404E+02 -.249E+04   0.241E+02 -.403E+02 0.249E+04   0.355E+00 -.520E+00 0.636E+00   -.145E+00 0.199E+00 0.787E+00
   0.483E+02 0.137E+01 -.249E+04   -.481E+02 -.135E+01 0.249E+04   -.618E+00 -.109E-01 0.592E+00   0.261E+00 0.136E-01 0.793E+00
   -.483E+02 0.137E+01 -.249E+04   0.481E+02 -.135E+01 0.249E+04   0.618E+00 -.109E-01 0.592E+00   -.262E+00 0.143E-01 0.792E+00
   0.218E+02 -.417E+02 -.249E+04   -.217E+02 0.416E+02 0.249E+04   -.331E+00 0.529E+00 0.644E+00   0.126E+00 -.213E+00 0.794E+00
   -.218E+02 -.417E+02 -.249E+04   0.217E+02 0.416E+02 0.249E+04   0.331E+00 0.529E+00 0.644E+00   -.124E+00 -.214E+00 0.793E+00
   0.330E-04 -.416E+00 -.250E+04   0.144E-03 0.374E+00 0.250E+04   0.176E-08 0.265E-01 0.429E+00   -.457E-02 0.177E-01 0.775E+00
   -.370E-04 -.419E-01 -.208E+04   0.105E-03 0.278E-01 0.208E+04   -.268E-10 -.403E-03 0.253E+01   0.991E-02 0.757E-02 0.784E+00
   0.211E+02 -.170E-03 -.296E+03   -.247E+02 -.838E-03 0.297E+03   0.358E+01 0.401E-03 -.118E+01   0.355E-01 0.347E-03 -.367E-01
   -.211E+02 -.164E-03 -.296E+03   0.247E+02 -.838E-03 0.297E+03   -.358E+01 0.401E-03 -.118E+01   -.353E-01 0.356E-03 -.368E-01
 -----------------------------------------------------------------------------------------------
   -.763E-03 0.625E-01 0.274E-01   0.110E-12 -.920E-13 0.813E-11   -.339E-08 -.510E-01 -.226E+01   -.439E-04 -.125E-01 0.281E+01
 
 
 POSITION                                       TOTAL-FORCE (eV/Angst)
 -----------------------------------------------------------------------------------
      0.00000      0.00000      5.28038         0.000000      0.001106     -0.037271
      2.93784      0.00000      5.28038        -0.001534      0.010811     -0.040961
      5.87568      0.00000      5.28038         0.001534      0.010811     -0.040961
      1.46892      2.54424      5.28038         0.008174     -0.007621     -0.040160
      4.40676      2.54424      5.28038         0.000000      0.001202     -0.063092
      7.34459      2.54424      5.28038        -0.008174     -0.007621     -0.040160
      2.93784      5.08848      5.28038         0.010509     -0.004472     -0.038453
      5.87568      5.08848      5.28038        -0.010509     -0.004472     -0.038453
      8.81351      5.08848      5.28038        -0.000000     -0.000319     -0.042475
      1.46892      0.84808      7.67911         0.050659      0.029180      0.105041
      4.40676      0.84808      7.67911        -0.000000     -0.031007      0.021667
      7.34459      0.84808      7.67911        -0.050659      0.029180      0.105041
      2.93784      3.39232      7.67911        -0.026190      0.016319      0.024053
      5.87568      3.39232      7.67911         0.026190      0.016319      0.024053
      8.81351      3.39232      7.67911        -0.000000     -0.018922      0.091187
      4.40676      5.93656      7.67911        -0.000000     -0.058387      0.104965
      7.34459      5.93656      7.67911        -0.018694      0.008677      0.091599
     10.28243      5.93656      7.67911         0.018694      0.008677      0.091599
      8.81351      1.69394     10.07055        -0.000000     -0.000281     -0.002127
      2.94670      1.70128     10.05847         0.014470      0.009742     -0.072696
      5.86681      1.70128     10.05847        -0.014470      0.009742     -0.072696
     10.27376      4.24541     10.05945         0.039346     -0.023774     -0.005122
      4.40676      4.23017     10.05847        -0.000000     -0.014130     -0.076826
      7.35327      4.24541     10.05945        -0.039346     -0.023774     -0.005122
     11.75328      6.78576     10.07055         0.004029     -0.000849     -0.006685
      5.87375      6.78576     10.07055        -0.004029     -0.000849     -0.006685
      8.81351      6.77463     10.05945         0.000000      0.048710      0.001787
      0.00000      0.00000     12.48855        -0.000000     -0.005224     -0.019320
      2.97006      0.05170     12.45862        -0.087931     -0.196828     -0.092302
      5.84345      0.05170     12.45862         0.087931     -0.196828     -0.092302
      1.52981      2.54630     12.45862        -0.179162      0.021356     -0.058285
      7.28371      2.54630     12.45862         0.179162      0.021356     -0.058285
      2.96650      5.03473     12.45862        -0.125976      0.178722     -0.091300
      5.84701      5.03473     12.45862         0.125977      0.178722     -0.091300
      8.81351      5.08848     12.49203         0.000000      0.002110     -0.005647
      4.40676      2.54424     12.16149        -0.000000     -0.006932      0.494626
      3.97974      2.54381     13.73231        -0.002328     -0.000227     -0.008466
      4.83377      2.54381     13.73231         0.002328     -0.000227     -0.008466
 -----------------------------------------------------------------------------------
    total drift:                               -0.000807     -0.001020      0.577943


--------------------------------------------------------------------------------------------------------



  FREE ENERGIE OF THE ION-ELECTRON SYSTEM (eV)
  ---------------------------------------------------
  free  energy   TOTEN  =      -118.53595850 eV

  energy  without entropy=     -118.53595850  energy(sigma->0) =     -118.53595850
 


--------------------------------------------------------------------------------------------------------


    POTLOK:  cpu time    0.0457: real time    0.0457


--------------------------------------------------------------------------------------------------------


 stress matrix after NEB project (eV)
    -19.82112     -0.00000      0.00000
     -0.00000    -19.59147      0.00702
      0.00000      0.00702      2.37408
  FORCES: max atom, RMS     0.008784    0.002015
  FORCE total and by dimension    0.012422    0.008466
  Stress total and by dimension   27.970317   19.821116
     LOOP+:  cpu time  145.8630: real time  145.8739
 -----------------------------------------------------------------------------
|                                                                             |
|           W    W    AA    RRRRR   N    N  II  N    N   GGGG   !!!           |
|           W    W   A  A   R    R  NN   N  II  NN   N  G    G  !!!           |
|           W    W  A    A  R    R  N N  N  II  N N  N  G       !!!           |
|           W WW W  AAAAAA  RRRRR   N  N N  II  N  N N  G  GGG   !            |
|           WW  WW  A    A  R   R   N   NN  II  N   NN  G    G                |
|           W    W  A    A  R    R  N    N  II  N    N   GGGG   !!!           |
|                                                                             |
|     Tetrahedron method does not include variations of the Fermi             |
|     occupations, so forces and stress will be inaccurate. We suggest        |
|     using a different smearing scheme ISMEAR = 1 or 2 for metals in         |
|     relaxations.                                                            |
|                                                                             |
 -----------------------------------------------------------------------------

    4ORBIT:  cpu time    0.0000: real time    0.0000



 total charge

# of ion       s       p       d       tot
------------------------------------------
    1        0.541   0.240   8.766   9.547
    2        0.545   0.240   8.765   9.550
    3        0.545   0.240   8.765   9.550
    4        0.545   0.240   8.766   9.551
    5        0.542   0.241   8.766   9.549
    6        0.545   0.240   8.766   9.551
    7        0.545   0.240   8.766   9.550
    8        0.545   0.240   8.766   9.550
    9        0.541   0.240   8.768   9.549
   10        0.520   0.307   8.773   9.601
   11        0.523   0.306   8.779   9.609
   12        0.520   0.307   8.773   9.601
   13        0.523   0.307   8.779   9.609
   14        0.523   0.307   8.779   9.609
   15        0.515   0.310   8.776   9.601
   16        0.520   0.308   8.773   9.601
   17        0.515   0.310   8.776   9.601
   18        0.515   0.310   8.776   9.601
   19        0.518   0.301   8.778   9.598
   20        0.536   0.325   8.759   9.620
   21        0.536   0.325   8.759   9.620
   22        0.514   0.310   8.774   9.598
   23        0.535   0.326   8.760   9.620
   24        0.514   0.310   8.774   9.598
   25        0.518   0.301   8.778   9.598
   26        0.518   0.301   8.778   9.598
   27        0.514   0.310   8.774   9.598
   28        0.539   0.226   8.766   9.532
   29        0.547   0.233   8.771   9.551
   30        0.547   0.233   8.771   9.551
   31        0.546   0.236   8.768   9.550
   32        0.546   0.236   8.768   9.550
   33        0.547   0.233   8.771   9.551
   34        0.547   0.233   8.771   9.551
   35        0.540   0.225   8.769   9.535
   36        0.364   0.390   8.399   9.152
   37        0.551   0.032   0.000   0.583
   38        0.551   0.032   0.000   0.583
--------------------------------------------------
tot         20.097  10.050 315.368 345.514
 
 BZINTS: Fermi energy:    0.751735;  397.000000 electrons
         Band energy:-0.115433E+04;  BLOECHL correction:   -0.075002

 total amount of memory used by VASP MPI-rank0   183131. kBytes
=======================================================================

   base      :      30000. kBytes
   nonlr-proj:      13570. kBytes
   fftplans  :       4330. kBytes
   grid      :      17879. kBytes
   one-center:        590. kBytes
   wavefun   :     116762. kBytes
 
  
  
 General timing and accounting informations for this job:
 ========================================================
  
                  Total CPU time used (sec):      159.556
                            User time (sec):      153.932
                          System time (sec):        5.624
                         Elapsed time (sec):      159.915
  
                   Maximum memory used (kb):      458776.
                   Average memory used (kb):          N/A
  
                          Minor page faults:        97477
                          Major page faults:            0
                 Voluntary context switches:         5489
