 vasp.6.2.0 18Jan21 (build Jun 12 2021 23:27:24) complex                        
  
 executed on             LinuxIFC date 2022.05.27  05:19:42
 running on   28 total cores
 distrk:  each k-point on   28 cores,    1 groups
 distr:  one band on NCORE=   1 cores,   28 groups


--------------------------------------------------------------------------------------------------------


 INCAR:
   ISMEAR = -5
   SIGMA = 0.1
   ISPIN = 1
   EDIFF = 1.d-5
   EDIFFG = -0.01
   NSW = 0
   NELM = 150
   ENCUT = 500
   ISIF = 2
   IBRION = 2
   LREAL = Auto
   ALGO = Fast
   ICHARG = 11
   LORBIT = 10
   LCHARG = .F.
   LWAVE = .F.

 POTCAR:    PAW_PBE Au 04Oct2007                  
 POTCAR:    PAW_PBE Re 17Jan2003                  
 POTCAR:    PAW_PBE C 08Apr2002                   
 POTCAR:    PAW_PBE O 08Apr2002                   
 -----------------------------------------------------------------------------
|                                                                             |
|           W    W    AA    RRRRR   N    N  II  N    N   GGGG   !!!           |
|           W    W   A  A   R    R  NN   N  II  NN   N  G    G  !!!           |
|           W    W  A    A  R    R  N N  N  II  N N  N  G       !!!           |
|           W WW W  AAAAAA  RRRRR   N  N N  II  N  N N  G  GGG   !            |
|           WW  WW  A    A  R   R   N   NN  II  N   NN  G    G                |
|           W    W  A    A  R    R  N    N  II  N    N   GGGG   !!!           |
|                                                                             |
|     For optimal performance we recommend to set                             |
|       NCORE = 2 up to number-of-cores-per-socket                            |
|     NCORE specifies how many cores store one orbital (NPAR=cpu/NCORE).      |
|     This setting can greatly improve the performance of VASP for DFT.       |
|     The default, NCORE=1 might be grossly inefficient on modern             |
|     multi-core architectures or massively parallel machines. Do your        |
|     own testing! More info at https://www.vasp.at/wiki/index.php/NCORE      |
|     Unfortunately you need to use the default for GW and RPA                |
|     calculations (for HF NCORE is supported but not extensively tested      |
|     yet).                                                                   |
|                                                                             |
 -----------------------------------------------------------------------------

 POTCAR:    PAW_PBE Au 04Oct2007                  
   VRHFIN =Au: s1d10                                                                                
   LEXCH  = PE                                                                                      
   EATOM  =   926.0867 eV,   68.0654 Ry                                                             
                                                                                                    
   TITEL  = PAW_PBE Au 04Oct2007                                                                    
   LULTRA =        F    use ultrasoft PP ?                                                          
   IUNSCR =        1    unscreen: 0-lin 1-nonlin 2-no                                               
   RPACOR =    2.330    partial core radius                                                         
   POMASS =  196.966; ZVAL   =   11.000    mass and valenz                                          
   RCORE  =    2.500    outmost cutoff radius                                                       
   RWIGS  =    2.840; RWIGS  =    1.503    wigner-seitz radius (au A)                               
   ENMAX  =  229.943; ENMIN  =  172.457 eV                                                          
   ICORE  =        3    local potential                                                             
   LCOR   =        T    correct aug charges                                                         
   LPAW   =        T    paw PP                                                                      
   EAUG   =  356.670                                                                                
   DEXC   =    0.000                                                                                
   RMAX   =    2.562    core radius for proj-oper                                                   
   RAUG   =    1.300    factor for augmentation sphere                                              
   RDEP   =    2.598    radius for radial grids                                                     
   RDEPT  =    2.193    core radius for aug-charge                                                  
                                                                                                    
   Atomic configuration                                                                             
   16 entries                                                                                       
     n  l   j            E        occ.                                                              
     1  0  0.50    -80748.5001   2.0000                                                             
     2  0  0.50    -14244.7466   2.0000                                                             
     2  1  1.50    -12310.9591   6.0000                                                             
     3  0  0.50     -3362.1768   2.0000                                                             
     3  1  1.50     -2801.5463   6.0000                                                             
     3  2  2.50     -2203.8206  10.0000                                                             
     4  0  0.50      -729.8168   2.0000                                                             
     4  1  1.50      -546.0527   6.0000                                                             
     4  2  2.50      -325.7302  10.0000                                                             
     4  3  3.50       -81.1472  14.0000                                                             
     5  0  0.50      -108.3201   2.0000                                                             
     5  1  1.50       -59.7479   6.0000                                                             
     5  2  2.50        -6.8783  10.0000                                                             
     6  0  0.50        -5.7602   1.0000                                                             
     6  1  1.50        -6.8029   0.0000                                                             
     5  3  2.50        -1.3606   0.0000                                                             
   Description                                                                                      
     l       E           TYP  RCUT    TYP  RCUT                                                     
     2     -6.8782861     23  2.500                                                                 
     2     -8.2388687     23  2.500                                                                 
     0     -5.7601759     23  2.500                                                                 
     0     -0.8493231     23  2.500                                                                 
     1     -2.7211652     23  2.500                                                                 
     1     27.2116520     23  2.500                                                                 
     3     -1.3605826     23  2.500                                                                 
  local pseudopotential read in
  partial core-charges read in
  partial kinetic energy density read in
  atomic valenz-charges read in
  non local Contribution for L=           2  read in
    real space projection operators read in
  non local Contribution for L=           2  read in
    real space projection operators read in
  non local Contribution for L=           0  read in
    real space projection operators read in
  non local Contribution for L=           0  read in
    real space projection operators read in
  non local Contribution for L=           1  read in
    real space projection operators read in
  non local Contribution for L=           1  read in
    real space projection operators read in
    PAW grid and wavefunctions read in
 
   number of l-projection  operators is LMAX  =           6
   number of lm-projection operators is LMMAX =          18
 
 POTCAR:    PAW_PBE Re 17Jan2003                  
   VRHFIN =Re: 5p6s5d                                                                               
   LEXCH  = PE                                                                                      
   EATOM  =   299.6589 eV,   22.0243 Ry                                                             
                                                                                                    
   TITEL  = PAW_PBE Re 17Jan2003                                                                    
   LULTRA =        F    use ultrasoft PP ?                                                          
   IUNSCR =        1    unscreen: 0-lin 1-nonlin 2-no                                               
   RPACOR =    2.250    partial core radius                                                         
   POMASS =  186.207; ZVAL   =    7.000    mass and valenz                                          
   RCORE  =    2.700    outmost cutoff radius                                                       
   RWIGS  =    2.710; RWIGS  =    1.434    wigner-seitz radius (au A)                               
   ENMAX  =  226.216; ENMIN  =  169.662 eV                                                          
   RCLOC  =    2.105    cutoff for local pot                                                        
   LCOR   =        T    correct aug charges                                                         
   LPAW   =        T    paw PP                                                                      
   EAUG   =  370.280                                                                                
   DEXC   =    0.000                                                                                
   RMAX   =    2.768    core radius for proj-oper                                                   
   RAUG   =    1.300    factor for augmentation sphere                                              
   RDEP   =    2.719    radius for radial grids                                                     
   RDEPT  =    2.204    core radius for aug-charge                                                  
                                                                                                    
   Atomic configuration                                                                             
   16 entries                                                                                       
     n  l   j            E        occ.                                                              
     1  0  0.50    -71633.0043   2.0000                                                             
     2  0  0.50    -12416.1215   2.0000                                                             
     2  1  1.50    -10832.4223   6.0000                                                             
     3  0  0.50     -2872.9330   2.0000                                                             
     3  1  1.50     -2406.1720   6.0000                                                             
     3  2  2.50     -1877.8916  10.0000                                                             
     4  0  0.50      -597.8463   2.0000                                                             
     4  1  1.50      -444.8000   6.0000                                                             
     4  2  2.50      -252.9938  10.0000                                                             
     4  3  3.50       -40.1243  14.0000                                                             
     5  0  0.50       -83.0609   2.0000                                                             
     5  1  1.50       -44.9781   6.0000                                                             
     5  2  2.50        -4.0055   6.0000                                                             
     6  0  0.50        -5.2962   1.0000                                                             
     6  1  1.50        -2.7212   0.0000                                                             
     5  3  2.50        -1.3606   0.0000                                                             
   Description                                                                                      
     l       E           TYP  RCUT    TYP  RCUT                                                     
     2     -4.0054887     23  2.500                                                                 
     2     -2.6236470     23  2.500                                                                 
     0     -5.2961782     23  2.600                                                                 
     0      4.1641227     23  2.600                                                                 
     1     -2.7211652     23  2.700                                                                 
     1     27.2116520     23  2.700                                                                 
  local pseudopotential read in
  partial core-charges read in
  partial kinetic energy density read in
  kinetic energy density of atom read in
  atomic valenz-charges read in
  non local Contribution for L=           2  read in
    real space projection operators read in
  non local Contribution for L=           2  read in
    real space projection operators read in
  non local Contribution for L=           0  read in
    real space projection operators read in
  non local Contribution for L=           0  read in
    real space projection operators read in
  non local Contribution for L=           1  read in
    real space projection operators read in
  non local Contribution for L=           1  read in
    real space projection operators read in
    PAW grid and wavefunctions read in
 
   number of l-projection  operators is LMAX  =           6
   number of lm-projection operators is LMMAX =          18
 
 POTCAR:    PAW_PBE C 08Apr2002                   
   VRHFIN =C: s2p2                                                                                  
   LEXCH  = PE                                                                                      
   EATOM  =   147.1560 eV,   10.8157 Ry                                                             
                                                                                                    
   TITEL  = PAW_PBE C 08Apr2002                                                                     
   LULTRA =        F    use ultrasoft PP ?                                                          
   IUNSCR =        1    unscreen: 0-lin 1-nonlin 2-no                                               
   RPACOR =    1.200    partial core radius                                                         
   POMASS =   12.011; ZVAL   =    4.000    mass and valenz                                          
   RCORE  =    1.500    outmost cutoff radius                                                       
   RWIGS  =    1.630; RWIGS  =    0.863    wigner-seitz radius (au A)                               
   ENMAX  =  400.000; ENMIN  =  300.000 eV                                                          
   ICORE  =        2    local potential                                                             
   LCOR   =        T    correct aug charges                                                         
   LPAW   =        T    paw PP                                                                      
   EAUG   =  644.873                                                                                
   DEXC   =    0.000                                                                                
   RMAX   =    1.529    core radius for proj-oper                                                   
   RAUG   =    1.300    factor for augmentation sphere                                              
   RDEP   =    1.501    radius for radial grids                                                     
   RDEPT  =    1.300    core radius for aug-charge                                                  
                                                                                                    
   Atomic configuration                                                                             
    4 entries                                                                                       
     n  l   j            E        occ.                                                              
     1  0  0.50      -273.3789   2.0000                                                             
     2  0  0.50       -13.7508   2.0000                                                             
     2  1  0.50        -5.2854   2.0000                                                             
     3  2  1.50        -5.4423   0.0000                                                             
   Description                                                                                      
     l       E           TYP  RCUT    TYP  RCUT                                                     
     0    -13.7508458     23  1.200                                                                 
     0     -8.2022199     23  1.200                                                                 
     1     -5.2854383     23  1.500                                                                 
     1     34.0145650     23  1.500                                                                 
     2     -5.4423304      7  1.500                                                                 
  local pseudopotential read in
  partial core-charges read in
  partial kinetic energy density read in
  atomic valenz-charges read in
  non local Contribution for L=           0  read in
    real space projection operators read in
  non local Contribution for L=           0  read in
    real space projection operators read in
  non local Contribution for L=           1  read in
    real space projection operators read in
  non local Contribution for L=           1  read in
    real space projection operators read in
    PAW grid and wavefunctions read in
 
   number of l-projection  operators is LMAX  =           4
   number of lm-projection operators is LMMAX =           8
 
 POTCAR:    PAW_PBE O 08Apr2002                   
   VRHFIN =O: s2p4                                                                                  
   LEXCH  = PE                                                                                      
   EATOM  =   432.3788 eV,   31.7789 Ry                                                             
                                                                                                    
   TITEL  = PAW_PBE O 08Apr2002                                                                     
   LULTRA =        F    use ultrasoft PP ?                                                          
   IUNSCR =        1    unscreen: 0-lin 1-nonlin 2-no                                               
   RPACOR =    1.200    partial core radius                                                         
   POMASS =   16.000; ZVAL   =    6.000    mass and valenz                                          
   RCORE  =    1.520    outmost cutoff radius                                                       
   RWIGS  =    1.550; RWIGS  =    0.820    wigner-seitz radius (au A)                               
   ENMAX  =  400.000; ENMIN  =  300.000 eV                                                          
   ICORE  =        2    local potential                                                             
   LCOR   =        T    correct aug charges                                                         
   LPAW   =        T    paw PP                                                                      
   EAUG   =  605.392                                                                                
   DEXC   =    0.000                                                                                
   RMAX   =    1.553    core radius for proj-oper                                                   
   RAUG   =    1.300    factor for augmentation sphere                                              
   RDEP   =    1.550    radius for radial grids                                                     
   RDEPT  =    1.329    core radius for aug-charge                                                  
                                                                                                    
   Atomic configuration                                                                             
    4 entries                                                                                       
     n  l   j            E        occ.                                                              
     1  0  0.50      -514.6923   2.0000                                                             
     2  0  0.50       -23.9615   2.0000                                                             
     2  1  0.50        -9.0305   4.0000                                                             
     3  2  1.50        -9.5241   0.0000                                                             
   Description                                                                                      
     l       E           TYP  RCUT    TYP  RCUT                                                     
     0    -23.9615318     23  1.200                                                                 
     0     -9.5240782     23  1.200                                                                 
     1     -9.0304911     23  1.520                                                                 
     1      8.1634956     23  1.520                                                                 
     2     -9.5240782      7  1.500                                                                 
  local pseudopotential read in
  partial core-charges read in
  partial kinetic energy density read in
  kinetic energy density of atom read in
  atomic valenz-charges read in
  non local Contribution for L=           0  read in
    real space projection operators read in
  non local Contribution for L=           0  read in
    real space projection operators read in
  non local Contribution for L=           1  read in
    real space projection operators read in
  non local Contribution for L=           1  read in
    real space projection operators read in
    PAW grid and wavefunctions read in
 
   number of l-projection  operators is LMAX  =           4
   number of lm-projection operators is LMMAX =           8
 
 Optimization of the real space projectors (new method)

 maximal supplied QI-value         = 15.12
 optimisation between [QCUT,QGAM] = [ 11.34, 22.83] = [ 36.00,145.93] Ry 
 Optimized for a Real-space Cutoff    1.39 Angstroem

   l    n(q)    QCUT    max X(q) W(low)/X(q) W(high)/X(q)  e(spline) 
   2      9    11.338    60.898    0.39E-03    0.42E-03    0.21E-06
   2      9    11.338    58.894    0.40E-03    0.42E-03    0.22E-06
   0      9    11.338   109.617    0.13E-03    0.20E-04    0.13E-06
   0      9    11.338    75.026    0.13E-03    0.20E-04    0.13E-06
   1      9    11.338    16.344    0.33E-04    0.24E-03    0.18E-06
   1      9    11.338    10.160    0.26E-04    0.19E-03    0.15E-06
 Optimization of the real space projectors (new method)

 maximal supplied QI-value         = 13.98
 optimisation between [QCUT,QGAM] = [ 11.33, 22.79] = [ 35.93,145.49] Ry 
 Optimized for a Real-space Cutoff    1.56 Angstroem

   l    n(q)    QCUT    max X(q) W(low)/X(q) W(high)/X(q)  e(spline) 
   2     10    11.327   884.633    0.22E-03    0.51E-03    0.88E-06
   2     10    11.327   796.723    0.22E-03    0.51E-03    0.88E-06
   0     11    11.327    65.348    0.44E-04    0.11E-03    0.75E-06
   0     11    11.327    39.642    0.40E-04    0.10E-03    0.69E-06
   1     10    11.327    13.988    0.15E-03    0.10E-03    0.19E-06
   1     10    11.327     8.682    0.11E-03    0.76E-04    0.14E-06
 Optimization of the real space projectors (new method)

 maximal supplied QI-value         = 25.13
 optimisation between [QCUT,QGAM] = [ 11.31, 22.87] = [ 35.82,146.48] Ry 
 Optimized for a Real-space Cutoff    1.00 Angstroem

   l    n(q)    QCUT    max X(q) W(low)/X(q) W(high)/X(q)  e(spline) 
   0      7    11.310   115.676    0.43E-03    0.13E-02    0.19E-06
   0      7    11.310    87.132    0.43E-03    0.13E-02    0.18E-06
   1      6    11.310     4.429    0.42E-03    0.74E-03    0.11E-06
   1      6    11.310     2.733    0.34E-03    0.55E-03    0.92E-07
 Optimization of the real space projectors (new method)

 maximal supplied QI-value         = 24.76
 optimisation between [QCUT,QGAM] = [ 11.39, 22.77] = [ 36.31,145.25] Ry 
 Optimized for a Real-space Cutoff    1.00 Angstroem

   l    n(q)    QCUT    max X(q) W(low)/X(q) W(high)/X(q)  e(spline) 
   0      7    11.387    20.381    0.39E-03    0.13E-02    0.15E-06
   0      7    11.387    15.268    0.42E-03    0.14E-02    0.17E-06
   1      6    11.387     5.964    0.41E-03    0.11E-02    0.17E-06
   1      6    11.387     5.382    0.39E-03    0.87E-03    0.15E-06
  PAW_PBE Au 04Oct2007                  :
 energy of atom  1       EATOM= -926.0867
 kinetic energy error for atom=    0.0042 (will be added to EATOM!!)
  PAW_PBE Re 17Jan2003                  :
 energy of atom  2       EATOM= -299.6589
 kinetic energy error for atom=    0.0023 (will be added to EATOM!!)
  PAW_PBE C 08Apr2002                   :
 energy of atom  3       EATOM= -147.1560
 kinetic energy error for atom=    0.0076 (will be added to EATOM!!)
  PAW_PBE O 08Apr2002                   :
 energy of atom  4       EATOM= -432.3788
 kinetic energy error for atom=    0.0224 (will be added to EATOM!!)
 
 
 POSCAR: Au-Re-CO
  positions in direct lattice
  velocities in cartesian coordinates
 exchange correlation table for  LEXCH =        8
   RHO(1)=    0.500       N(1)  =     2000
   RHO(2)=  100.500       N(2)  =     4000

 VTST: version 3.2, (02/03/18)

 CHAIN: initializing optimizer
 
 OPT: Using VASP Conjugate-Gradient optimizer
 CHAIN: Read ICHAIN            0
 
 POSCAR: Au-Re-CO
  positions in direct lattice
  velocities in cartesian coordinates
 


--------------------------------------------------------------------------------------------------------


 ion  position               nearest neighbor table
   1  0.000  0.000  0.211-  16 2.94  12 2.94   6 2.94   8 2.94   7 2.94   3 2.94  10 2.94   4 2.94
                             2 2.94
   2  0.333  0.000  0.211-   9 2.94  11 2.94  17 2.94  10 2.94   8 2.94   4 2.94   5 2.94   1 2.94
                             3 2.94
   3  0.667  0.000  0.211-   7 2.94  18 2.94  12 2.94   1 2.94  11 2.94   5 2.94   6 2.94   9 2.94
                             2 2.94
   4  0.000  0.333  0.211-  10 2.94   6 2.94   5 2.94  13 2.94   2 2.94  15 2.94   9 2.94   1 2.94
                             7 2.94
   5  0.333  0.333  0.211-  13 2.94   7 2.94  11 2.94   4 2.94   2 2.94  14 2.94   3 2.94   8 2.94
                             6 2.94
   6  0.667  0.333  0.211-  15 2.94  14 2.94   1 2.94  12 2.94   4 2.94   9 2.94   8 2.94   3 2.94
                             5 2.94
   7  0.000  0.667  0.211-  18 2.94   3 2.94  16 2.94   5 2.94   1 2.94  13 2.94   8 2.94   4 2.94
                             9 2.94
   8  0.333  0.667  0.211-   9 2.94  17 2.94   1 2.94   2 2.94  14 2.94  16 2.94   6 2.94   7 2.94
                             5 2.94
   9  0.667  0.667  0.211-   2 2.94   8 2.94  17 2.94   6 2.94  15 2.94   4 2.94   3 2.94  18 2.94
                             7 2.94
  10  0.111  0.111  0.307-  20 2.90  11 2.94  17 2.94   2 2.94   4 2.94   1 2.94  12 2.94  16 2.94
                            13 2.94  15 2.94  26 2.96  19 2.96
  11  0.444  0.111  0.307-  20 2.91  21 2.91  13 2.94   2 2.94  10 2.94  17 2.94   5 2.94   3 2.94
                            18 2.94  14 2.94  12 2.94  27 2.94
  12  0.778  0.111  0.307-  21 2.90  16 2.94  18 2.94   1 2.94  14 2.94  15 2.94   3 2.94   6 2.94
                            10 2.94  11 2.94  25 2.96  19 2.96
  13  0.111  0.444  0.307-  23 2.91  20 2.91   5 2.94  18 2.94  11 2.94   7 2.94   4 2.94  16 2.94
                            10 2.94  14 2.94  15 2.94  22 2.94
  14  0.444  0.444  0.307-  21 2.91  23 2.91  15 2.94   6 2.94  12 2.94   8 2.94  17 2.94   5 2.94
                            16 2.94  13 2.94  11 2.94  24 2.94
  15  0.778  0.444  0.307-  24 2.92  22 2.92  14 2.94   6 2.94  17 2.94  12 2.94   9 2.94   4 2.94
                            10 2.94  13 2.94  18 2.94  19 2.95
  16  0.111  0.778  0.307-  23 2.90  18 2.94  12 2.94   7 2.94   1 2.94   8 2.94  13 2.94  10 2.94
                            14 2.94  17 2.94  25 2.96  26 2.96
  17  0.444  0.778  0.307-  27 2.92  24 2.92   9 2.94  15 2.94   2 2.94  10 2.94  11 2.94   8 2.94
                            14 2.94  16 2.94  18 2.94  26 2.95
  18  0.778  0.778  0.307-  22 2.92  27 2.92  16 2.94   7 2.94  13 2.94  12 2.94   3 2.94  11 2.94
                             9 2.94  15 2.94  17 2.94  25 2.95
  19  0.888  0.224  0.404-  24 2.93  22 2.93  21 2.93  20 2.93  28 2.94  15 2.95  26 2.96  25 2.96
                            10 2.96  12 2.96  32 3.02  31 3.02
  20  0.222  0.222  0.401-  36 2.75  10 2.90  11 2.91  13 2.91  26 2.93  19 2.93  23 2.95  21 2.95
                            27 2.96  22 2.96  29 2.97  31 2.97
  21  0.556  0.222  0.401-  36 2.75  12 2.90  14 2.91  11 2.91  25 2.93  19 2.93  20 2.95  23 2.95
                            27 2.96  24 2.96  30 2.97  32 2.97
  22  0.886  0.557  0.403-  24 2.90  27 2.90  18 2.92  15 2.92  25 2.93  19 2.93  13 2.94  35 2.95
                            23 2.96  20 2.96  33 3.00  31 3.00
  23  0.222  0.556  0.401-  36 2.75  16 2.90  13 2.91  14 2.91  25 2.93  26 2.93  20 2.95  21 2.95
                            22 2.96  24 2.96  33 2.97  34 2.97
  24  0.557  0.557  0.403-  27 2.90  22 2.90  15 2.92  17 2.92  26 2.93  19 2.93  14 2.94  35 2.95
                            21 2.96  23 2.96  32 3.00  34 3.00
  25  0.888  0.888  0.404-  22 2.93  27 2.93  23 2.93  21 2.93  28 2.94  18 2.95  19 2.96  26 2.96
                            16 2.96  12 2.96  33 3.02  30 3.02
  26  0.224  0.888  0.404-  27 2.93  24 2.93  20 2.93  23 2.93  28 2.94  17 2.95  19 2.96  25 2.96
                            10 2.96  16 2.96  29 3.02  34 3.02
  27  0.557  0.886  0.403-  24 2.90  22 2.90  17 2.92  18 2.92  26 2.93  25 2.93  11 2.94  35 2.95
                            20 2.96  21 2.96  29 3.00  30 3.00
  28  0.000  0.000  0.500-  25 2.94  19 2.94  26 2.94  34 2.99  32 2.99  33 2.99  30 2.99  31 2.99
                            29 2.99
  29  0.333  0.011  0.501-  30 2.84  31 2.84  36 2.86  20 2.97  35 2.99  28 2.99  27 3.00  26 3.02
                            34 3.14
  30  0.655  0.011  0.501-  29 2.84  32 2.84  36 2.86  21 2.97  35 2.99  28 2.99  27 3.00  25 3.02
                            33 3.14
  31  0.011  0.333  0.501-  33 2.84  29 2.84  36 2.86  20 2.97  35 2.99  28 2.99  22 3.00  19 3.02
                            32 3.14
  32  0.655  0.333  0.501-  34 2.84  30 2.84  36 2.86  21 2.97  35 2.99  28 2.99  24 3.00  19 3.02
                            31 3.14
  33  0.011  0.655  0.501-  31 2.84  34 2.84  36 2.86  23 2.97  35 2.99  28 2.99  22 3.00  25 3.02
                            30 3.14
  34  0.333  0.655  0.501-  32 2.84  33 2.84  36 2.86  23 2.97  35 2.99  28 2.99  24 3.00  26 3.02
                            29 3.14
  35  0.667  0.667  0.500-  24 2.95  27 2.95  22 2.95  29 2.99  34 2.99  32 2.99  31 2.99  30 2.99
                            33 2.99
  36  0.333  0.333  0.488-  37 1.92  20 2.75  23 2.75  21 2.75  33 2.86  31 2.86  29 2.86  30 2.86
                            34 2.86  32 2.86
  37  0.333  0.333  0.565-  38 1.17  36 1.92
  38  0.333  0.333  0.612-  37 1.17
 
  LATTYP: Found a hexagonal cell.
 ALAT       =     8.8135128021
 C/A-ratio  =     2.8377666113
  
  Lattice vectors:
  
 A1 = (  -4.4067569092,  -7.6327256898,   0.0000000000)
 A2 = (   8.8135128021,   0.0000000000,   0.0000000000)
 A3 = (   0.0000000000,   0.0000000000,  25.0106923578)


Analysis of symmetry for initial positions (statically):
=====================================================================
 Subroutine PRICEL returns:
 Original cell was already a primitive cell.
 

 Routine SETGRP: Setting up the symmetry group for a 
 hexagonal supercell.


 Subroutine GETGRP returns: Found  6 space group operations
 (whereof  6 operations were pure point group operations)
 out of a pool of 24 trial point group operations.


The static configuration has the point symmetry C_3v.


Analysis of symmetry for dynamics (positions and initial velocities):
=====================================================================
 Subroutine PRICEL returns:
 Original cell was already a primitive cell.
 

 Routine SETGRP: Setting up the symmetry group for a 
 hexagonal supercell.


 Subroutine GETGRP returns: Found  6 space group operations
 (whereof  6 operations were pure point group operations)
 out of a pool of 24 trial point group operations.


The dynamic configuration has the point symmetry C_3v.


Analysis of constrained symmetry for selective dynamics:
=====================================================================
 Subroutine PRICEL returns:
 Original cell was already a primitive cell.
 

 Routine SETGRP: Setting up the symmetry group for a 
 hexagonal supercell.


 Subroutine GETGRP returns: Found  6 space group operations
 (whereof  6 operations were pure point group operations)
 out of a pool of 24 trial point group operations.


The constrained configuration has the point symmetry C_3v.


 Subroutine INISYM returns: Found  6 space group operations
 (whereof  6 operations are pure point group operations),
 and found     1 'primitive' translations


----------------------------------------------------------------------------------------

                                     Primitive cell                                     

  volume of cell :    1682.4974

  direct lattice vectors                    reciprocal lattice vectors
     8.813512802  0.000000000  0.000000000     0.113462137 -0.065507406  0.000000000
     4.406756909  7.632725690  0.000000000     0.000000000  0.131014796  0.000000000
     0.000000000  0.000000000 25.010692358     0.000000000  0.000000000  0.039982900

  length of vectors
     8.813512802  8.813512802 25.010692358     0.131014796  0.131014796  0.039982900

  position of ions in fractional coordinates (direct lattice)
     0.000000000  0.000000000  0.211124900
     0.333333343  0.000000000  0.211124900
     0.666666687  0.000000000  0.211124900
     1.000000000  0.333333343  0.211124900
     0.333333313  0.333333343  0.211124900
     0.666666687  0.333333343  0.211124900
     1.000000000  0.666666687  0.211124900
     0.333333343  0.666666687  0.211124900
     0.666666627  0.666666687  0.211124900
     0.111111119  0.111111112  0.307033245
     0.444444418  0.111111112  0.307033245
     0.777777791  0.111111112  0.307033245
     0.111111127  0.444444448  0.307033245
     0.444444478  0.444444448  0.307033245
     0.777777731  0.444444448  0.307033245
     0.111111090  0.777777791  0.307033245
     0.444444448  0.777777791  0.307033245
     0.777777851  0.777777791  0.307033245
     0.888205444  0.223589128  0.403799669
     0.221939694  0.221939679  0.401329510
     0.556120671  0.221939679  0.401329510
     0.886159616  0.556920222  0.402504583
     0.221939649  0.556120671  0.401329510
     0.556920222  0.556920222  0.402504583
     0.888205444  0.888205444  0.403799669
     0.223589158  0.888205444  0.403799669
     0.556920162  0.886159616  0.402504583
     0.000000000  0.000000000  0.499720403
     0.333363825  0.011378594  0.501216454
     0.655257611  0.011378594  0.501216454
     0.011378594  0.333363825  0.501216454
     0.655257611  0.333363825  0.501216454
     0.011378594  0.655257611  0.501216454
     0.333363825  0.655257611  0.501216454
     0.666666627  0.666666687  0.499637399
     0.333333313  0.333333343  0.487980977
     0.333333313  0.333333343  0.564840025
     0.333333313  0.333333343  0.611656788

  ion indices of the primitive-cell ions
   primitive index   ion index
                 1           1
                 2           2
                 3           3
                 4           4
                 5           5
                 6           6
                 7           7
                 8           8
                 9           9
                10          10
                11          11
                12          12
                13          13
                14          14
                15          15
                16          16
                17          17
                18          18
                19          19
                20          20
                21          21
                22          22
                23          23
                24          24
                25          25
                26          26
                27          27
                28          28
                29          29
                30          30
                31          31
                32          32
                33          33
                34          34
                35          35
                36          36
                37          37
                38          38

----------------------------------------------------------------------------------------

 
 
 KPOINTS: Automatic mesh                          

Automatic generation of k-mesh.
 Grid dimensions read from file:
 generate k-points for:    8    8    1

 Generating k-lattice:

  Cartesian coordinates                     Fractional coordinates (reciprocal lattice)
     0.014182767 -0.008188426  0.000000000     0.125000000 -0.000000000  0.000000000
     0.000000000  0.016376850  0.000000000     0.000000000  0.125000000  0.000000000
     0.000000000  0.000000000  0.039982900     0.000000000  0.000000000  1.000000000

  Length of vectors
     0.016376850  0.016376850  0.039982900

  Shift w.r.t. Gamma in fractional coordinates (k-lattice)
     0.000000000  0.000000000  0.000000000

 TETIRR: Found     36 inequivalent tetrahedra from      384
 
 Subroutine IBZKPT returns following result:
 ===========================================
 
 Found     10 irreducible k-points:
 
 Following reciprocal coordinates:
            Coordinates               Weight
  0.000000  0.000000  0.000000      1.000000
  0.125000  0.000000  0.000000      6.000000
  0.250000  0.000000  0.000000      6.000000
  0.375000 -0.000000  0.000000      6.000000
  0.500000  0.000000  0.000000      3.000000
  0.250000  0.125000  0.000000      6.000000
  0.375000  0.125000  0.000000     12.000000
  0.500000  0.125000  0.000000     12.000000
  0.500000  0.250000  0.000000      6.000000
 -0.375000  0.250000  0.000000      6.000000
 
 Following cartesian coordinates:
            Coordinates               Weight
  0.000000  0.000000  0.000000      1.000000
  0.014183 -0.008188  0.000000      6.000000
  0.028366 -0.016377  0.000000      6.000000
  0.042548 -0.024565  0.000000      6.000000
  0.056731 -0.032754  0.000000      3.000000
  0.028366 -0.000000  0.000000      6.000000
  0.042548 -0.008188  0.000000     12.000000
  0.056731 -0.016377  0.000000     12.000000
  0.056731 -0.000000  0.000000      6.000000
 -0.042548  0.057319  0.000000      6.000000
 


--------------------------------------------------------------------------------------------------------




 Dimension of arrays:
   k-points           NKPTS =     10   k-points in BZ     NKDIM =     10   number of bands    NBANDS=    252
   number of dos      NEDOS =    301   number of ions     NIONS =     38
   non local maximal  LDIM  =      6   non local SUM 2l+1 LMDIM =     18
   total plane-waves  NPLWV = 322560
   max r-space proj   IRMAX =   3123   max aug-charges    IRDMAX=  11922
   dimension x,y,z NGX =    48 NGY =   48 NGZ =  140
   dimension x,y,z NGXF=    96 NGYF=   96 NGZF=  280
   support grid    NGXF=    96 NGYF=   96 NGZF=  280
   ions per type =              35   1   1   1
   NGX,Y,Z   is equivalent  to a cutoff of   9.05,  9.05,  9.31 a.u.
   NGXF,Y,Z  is equivalent  to a cutoff of  18.11, 18.11, 18.61 a.u.

 SYSTEM =  unknown system                          
 POSCAR =  Au-Re-CO                                

 Startparameter for this run:
   NWRITE =      2    write-flag & timer
   PREC   = normal    normal or accurate (medium, high low for compatibility)
   ISTART =      0    job   : 0-new  1-cont  2-samecut
   ICHARG =     11    charge: 1-file 2-atom 10-const
   ISPIN  =      1    spin polarized calculation?
   LNONCOLLINEAR =      F non collinear calculations
   LSORBIT =      F    spin-orbit coupling
   INIWAV =      1    electr: 0-lowe 1-rand  2-diag
   LASPH  =      F    aspherical Exc in radial PAW
   METAGGA=      F    non-selfconsistent MetaGGA calc.

 Electronic Relaxation 1
   ENCUT  =  500.0 eV  36.75 Ry    6.06 a.u.  16.07 16.07 45.60*2*pi/ulx,y,z
   ENINI  =  500.0     initial cutoff
   ENAUG  =  644.9 eV  augmentation charge cutoff
   NELM   =    150;   NELMIN=  2; NELMDL= -5     # of ELM steps 
   EDIFF  = 0.1E-04   stopping-criterion for ELM
   LREAL  =      T    real-space projection
   NLSPLINE    = F    spline interpolate recip. space projectors
   LCOMPAT=      F    compatible to vasp.4.4
   GGA_COMPAT  = T    GGA compatible to vasp.4.4-vasp.4.6
   LMAXPAW     = -100 max onsite density
   LMAXMIX     =    2 max onsite mixed and CHGCAR
   VOSKOWN=      0    Vosko Wilk Nusair interpolation
   ROPT   =   -0.00050  -0.00050  -0.00050  -0.00050
 Ionic relaxation
   EDIFFG = -.1E-01   stopping-criterion for IOM
   NSW    =      0    number of steps for IOM
   NBLOCK =      1;   KBLOCK =      1    inner block; outer block 
   IBRION =     -1    ionic relax: 0-MD 1-quasi-New 2-CG
   NFREE  =      1    steps in history (QN), initial steepest desc. (CG)
   ISIF   =      2    stress and relaxation
   IWAVPR =     10    prediction:  0-non 1-charg 2-wave 3-comb
   ISYM   =      2    0-nonsym 1-usesym 2-fastsym
   LCORR  =      T    Harris-Foulkes like correction to forces

   POTIM  = 0.5000    time-step for ionic-motion
   TEIN   =    0.0    initial temperature
   TEBEG  =    0.0;   TEEND  =   0.0 temperature during run
   SMASS  =  -3.00    Nose mass-parameter (am)
   estimated Nose-frequenzy (Omega)   =  0.10E-29 period in steps = 0.13E+47 mass=  -0.178E-26a.u.
   SCALEE = 1.0000    scale energy and forces
   NPACO  =    256;   APACO  = 16.0  distance and # of slots for P.C.
   PSTRESS=    0.0 pullay stress

  Mass of Ions in am
   POMASS = 196.97186.21 12.01 16.00
  Ionic Valenz
   ZVAL   =  11.00  7.00  4.00  6.00
  Atomic Wigner-Seitz radii
   RWIGS  =  -1.00 -1.00 -1.00 -1.00
  virtual crystal weights 
   VCA    =   1.00  1.00  1.00  1.00
   NELECT =     402.0000    total number of electrons
   NUPDOWN=      -1.0000    fix difference up-down

 DOS related values:
   EMIN   =  10.00;   EMAX   =-10.00  energy-range for DOS
   EFERMI =   0.00
   ISMEAR =    -5;   SIGMA  =   0.10  broadening in eV -4-tet -1-fermi 0-gaus

 Electronic relaxation 2 (details)
   IALGO  =     68    algorithm
   LDIAG  =      T    sub-space diagonalisation (order eigenvalues)
   LSUBROT=      F    optimize rotation matrix (better conditioning)
   TURBO    =      0    0=normal 1=particle mesh
   IRESTART =      0    0=no restart 2=restart with 2 vectors
   NREBOOT  =      0    no. of reboots
   NMIN     =      0    reboot dimension
   EREF     =   0.00    reference energy to select bands
   IMIX   =      4    mixing-type and parameters
     AMIX     =   0.40;   BMIX     =  1.00
     AMIX_MAG =   1.60;   BMIX_MAG =  1.00
     AMIN     =   0.10
     WC   =   100.;   INIMIX=   1;  MIXPRE=   1;  MAXMIX= -45

 Intra band minimization:
   WEIMIN = 0.0000     energy-eigenvalue tresh-hold
   EBREAK =  0.99E-08  absolut break condition
   DEPER  =   0.30     relativ break condition  

   TIME   =   0.40     timestep for ELM

  volume/ion in A,a.u.               =      44.28       298.79
  Fermi-wavevector in a.u.,A,eV,Ry     =   1.015856  1.919689 14.040708  1.031963
  Thomas-Fermi vector in A             =   2.149166
 
 Write flags
   LWAVE        =      F    write WAVECAR
   LDOWNSAMPLE  =      F    k-point downsampling of WAVECAR
   LCHARG       =      F    write CHGCAR
   LVTOT        =      F    write LOCPOT, total local potential
   LVHAR        =      F    write LOCPOT, Hartree potential only
   LELF         =      F    write electronic localiz. function (ELF)
   LORBIT       =     10    0 simple, 1 ext, 2 COOP (PROOUT), +10 PAW based schemes


 Dipole corrections
   LMONO  =      F    monopole corrections only (constant potential shift)
   LDIPOL =      F    correct potential (dipole corrections)
   IDIPOL =      0    1-x, 2-y, 3-z, 4-all directions 
   EPSILON=  1.0000000 bulk dielectric constant

 Exchange correlation treatment:
   GGA     =    --    GGA type
   LEXCH   =     8    internal setting for exchange type
   VOSKOWN=      0    Vosko Wilk Nusair interpolation
   LHFCALC =     F    Hartree Fock is set to
   LHFONE  =     F    Hartree Fock one center treatment
   AEXX    =    0.0000 exact exchange contribution

 Linear response parameters
   LEPSILON=     F    determine dielectric tensor
   LRPA    =     F    only Hartree local field effects (RPA)
   LNABLA  =     F    use nabla operator in PAW spheres
   LVEL    =     F    velocity operator in full k-point grid
   LINTERFAST=   F  fast interpolation
   KINTER  =     0    interpolate to denser k-point grid
   CSHIFT  =0.1000    complex shift for real part using Kramers Kronig
   OMEGAMAX=  -1.0    maximum frequency
   DEG_THRESHOLD= 0.2000000E-02 threshold for treating states as degnerate
   RTIME   =   -0.100 relaxation time in fs
  (WPLASMAI=    0.000 imaginary part of plasma frequency in eV, 0.658/RTIME)
   DFIELD  = 0.0000000 0.0000000 0.0000000 field for delta impulse in time
 
 Orbital magnetization related:
   ORBITALMAG=     F  switch on orbital magnetization
   LCHIMAG   =     F  perturbation theory with respect to B field
   DQ        =  0.001000  dq finite difference perturbation B field
   LLRAUG    =     F  two centre corrections for induced B field



--------------------------------------------------------------------------------------------------------


 Static calculation
 charge density and potential remain constant during run
 non-spin polarized calculation
 RMM-DIIS sequential band-by-band and
  variant of blocked Davidson during initial phase
 perform sub-space diagonalisation
    before iterative eigenvector-optimisation
 no mixing
 using additional bands           51
 real space projection scheme for non local part
 use partial core corrections
 calculate Harris-corrections to forces 
   (improved forces if not selfconsistent)
 use gradient corrections 
 WARNING: stress and forces are not correct
  (second derivative of E(xc) not defined)
 use of overlap-Matrix (Vanderbilt PP)
 Fermi weights with tetrahedron method with Bloechl corrections


--------------------------------------------------------------------------------------------------------


  energy-cutoff  :      500.00
  volume of cell :     1682.50
      direct lattice vectors                 reciprocal lattice vectors
     8.813512802  0.000000000  0.000000000     0.113462137 -0.065507406  0.000000000
     4.406756909  7.632725690  0.000000000     0.000000000  0.131014796  0.000000000
     0.000000000  0.000000000 25.010692358     0.000000000  0.000000000  0.039982900

  length of vectors
     8.813512802  8.813512802 25.010692358     0.131014796  0.131014796  0.039982900


 
 k-points in units of 2pi/SCALE and weight: Automatic mesh                          
   0.00000000  0.00000000  0.00000000       0.016
   0.01418277 -0.00818843  0.00000000       0.094
   0.02836553 -0.01637685  0.00000000       0.094
   0.04254830 -0.02456528  0.00000000       0.094
   0.05673107 -0.03275370  0.00000000       0.047
   0.02836553 -0.00000000  0.00000000       0.094
   0.04254830 -0.00818843  0.00000000       0.188
   0.05673107 -0.01637685  0.00000000       0.188
   0.05673107 -0.00000000  0.00000000       0.094
  -0.04254830  0.05731898  0.00000000       0.094
 
 k-points in reciprocal lattice and weights: Automatic mesh                          
   0.00000000  0.00000000  0.00000000       0.016
   0.12500000  0.00000000  0.00000000       0.094
   0.25000000  0.00000000  0.00000000       0.094
   0.37500000 -0.00000000  0.00000000       0.094
   0.50000000  0.00000000  0.00000000       0.047
   0.25000000  0.12500000  0.00000000       0.094
   0.37500000  0.12500000  0.00000000       0.188
   0.50000000  0.12500000  0.00000000       0.188
   0.50000000  0.25000000  0.00000000       0.094
  -0.37500000  0.25000000  0.00000000       0.094
 
 position of ions in fractional coordinates (direct lattice) 
   0.00000000  0.00000000  0.21112490
   0.33333334  0.00000000  0.21112490
   0.66666669  0.00000000  0.21112490
   0.00000000  0.33333334  0.21112490
   0.33333331  0.33333334  0.21112490
   0.66666669  0.33333334  0.21112490
   0.00000000  0.66666669  0.21112490
   0.33333334  0.66666669  0.21112490
   0.66666663  0.66666669  0.21112490
   0.11111112  0.11111111  0.30703325
   0.44444442  0.11111111  0.30703325
   0.77777779  0.11111111  0.30703325
   0.11111113  0.44444445  0.30703325
   0.44444448  0.44444445  0.30703325
   0.77777773  0.44444445  0.30703325
   0.11111109  0.77777779  0.30703325
   0.44444445  0.77777779  0.30703325
   0.77777785  0.77777779  0.30703325
   0.88820544  0.22358913  0.40379967
   0.22193969  0.22193968  0.40132951
   0.55612067  0.22193968  0.40132951
   0.88615962  0.55692022  0.40250458
   0.22193965  0.55612067  0.40132951
   0.55692022  0.55692022  0.40250458
   0.88820544  0.88820544  0.40379967
   0.22358916  0.88820544  0.40379967
   0.55692016  0.88615962  0.40250458
   0.00000000  0.00000000  0.49972040
   0.33336383  0.01137859  0.50121645
   0.65525761  0.01137859  0.50121645
   0.01137859  0.33336383  0.50121645
   0.65525761  0.33336383  0.50121645
   0.01137859  0.65525761  0.50121645
   0.33336383  0.65525761  0.50121645
   0.66666663  0.66666669  0.49963740
   0.33333331  0.33333334  0.48798098
   0.33333331  0.33333334  0.56484003
   0.33333331  0.33333334  0.61165679
 
 position of ions in cartesian coordinates  (Angst):
   0.00000000  0.00000000  5.28037993
   2.93783769  0.00000000  5.28037993
   5.87567538  0.00000000  5.28037993
   1.46891901  2.54424197  5.28037993
   4.40675643  2.54424197  5.28037993
   7.34459439  2.54424197  5.28037993
   2.93783803  5.08848395  5.28037993
   5.87567571  5.08848395  5.28037993
   8.81351288  5.08848395  5.28037993
   1.46891893  0.84808064  7.67911405
   4.40675623  0.84808064  7.67911405
   7.34459418  0.84808064  7.67911405
   2.93783798  3.39232256  7.67911405
   5.87567574  3.39232256  7.67911405
   8.81351263  3.39232256  7.67911405
   4.40675667  5.93656453  7.67911405
   7.34459449  5.93656453  7.67911405
  10.28243270  5.93656453  7.67911405
   8.81351299  1.70659448 10.09930928
   2.93410255  1.69400469 10.03752891
   5.87941087  1.69400469 10.03752891
  10.26439116  4.25081928 10.06691829
   4.40675655  4.24471653 10.03752891
   7.36263554  4.25081928 10.06691829
  11.74231553  6.77942851 10.09930928
   5.88471138  6.77942851 10.09930928
   8.81351299  6.76381327 10.06691829
   0.00000000  0.00000000 12.49835327
   2.98824904  0.08684969 12.53577053
   5.82526404  0.08684969 12.53577053
   1.56933872  2.54447463 12.53577053
   7.24417468  2.54447463 12.53577053
   2.98784639  5.00140160 12.53577053
   5.82566735  5.00140160 12.53577053
   8.81351288  5.08848395 12.49627727
   4.40675643  2.54424197 12.20474210
   4.40675643  2.54424197 14.12704010
   4.40675643  2.54424197 15.29795975
 


--------------------------------------------------------------------------------------------------------


 k-point   1 :   0.0000 0.0000 0.0000  plane waves:   42769
 k-point   2 :   0.1250 0.0000 0.0000  plane waves:   42696
 k-point   3 :   0.2500 0.0000 0.0000  plane waves:   42708
 k-point   4 :   0.3750-0.0000 0.0000  plane waves:   42748
 k-point   5 :   0.5000 0.0000 0.0000  plane waves:   42688
 k-point   6 :   0.2500 0.1250 0.0000  plane waves:   42668
 k-point   7 :   0.3750 0.1250 0.0000  plane waves:   42742
 k-point   8 :   0.5000 0.1250 0.0000  plane waves:   42730
 k-point   9 :   0.5000 0.2500 0.0000  plane waves:   42742
 k-point  10 :  -0.3750 0.2500 0.0000  plane waves:   42730

 maximum and minimum number of plane-waves per node :     42769    42668

 maximum number of plane-waves:     42769
 maximum index in each direction: 
   IXMAX=   16   IYMAX=   16   IZMAX=   45
   IXMIN=  -16   IYMIN=  -16   IZMIN=  -45


 serial   3D FFT for wavefunctions
 parallel 3D FFT for charge:
    minimum data exchange during FFTs selected (reduces bandwidth)


 total amount of memory used by VASP MPI-rank0   132869. kBytes
=======================================================================

   base      :      30000. kBytes
   nonlr-proj:      14172. kBytes
   fftplans  :       4808. kBytes
   grid      :      20723. kBytes
   one-center:        590. kBytes
   wavefun   :      62576. kBytes
 
     INWAV:  cpu time    0.0000: real time    0.0000
 initial charge density was supplied:
 number of electron     402.0000088 magnetization 
 keeping initial charge density in first step


--------------------------------------------------------------------------------------------------------


 Maximum index for non-local projection operator         2993
 Maximum index for augmentation-charges          841 (set IRDMAX)


--------------------------------------------------------------------------------------------------------


 First call to EWALD:  gamma=   0.149
 Maximum number of real-space cells 4x 4x 2
 Maximum number of reciprocal cells 2x 2x 5

    FEWALD:  cpu time    0.0015: real time    0.0016


--------------------------------------- Iteration      1(   1)  ---------------------------------------


    POTLOK:  cpu time    0.0472: real time    0.0477
    SETDIJ:  cpu time    0.0050: real time    0.0051
     EDDAV:  cpu time   10.7747: real time   10.7762
 BZINTS: Fermi energy:    7.455852;  402.000000 electrons
         Band energy: 0.574205E+03;  BLOECHL correction:   -0.028423
       DOS:  cpu time    0.0105: real time    0.0106
    --------------------------------------------
      LOOP:  cpu time   10.8375: real time   10.8396

 eigenvalue-minimisations  :  7560
 total energy-change (2. order) : 0.1991798E+04  (-0.1877147E+05)
 number of electron     402.0000088 magnetization 
 augmentation part      402.0000088 magnetization 

 Free energy of the ion-electron system (eV)
  ---------------------------------------------------
  alpha Z        PSCENC =       928.27671890
  Ewald energy   TEWEN  =    136067.96110302
  -Hartree energ DENC   =   -170168.26342074
  -exchange      EXHF   =         0.00000000
  -V(xc)+E(xc)   XCENC  =       512.37391609
  PAW double counting   =     36805.69285224   -36020.49620719
  entropy T*S    EENTRO =         0.00000000
  eigenvalues    EBANDS =       574.20523120
  atomic energy  EATOM  =     33292.04768768
  Solvation  Ediel_sol  =         0.00000000
  ---------------------------------------------------
  free energy    TOTEN  =      1991.79788120 eV

  energy without entropy =     1991.79788120  energy(sigma->0) =     1991.79788120


--------------------------------------------------------------------------------------------------------




--------------------------------------- Iteration      1(   2)  ---------------------------------------


     EDDAV:  cpu time   10.3758: real time   10.3760
 BZINTS: Fermi energy:    0.386093;  402.000000 electrons
         Band energy:-0.149815E+04;  BLOECHL correction:   -0.113454
       DOS:  cpu time    0.0102: real time    0.0102
    --------------------------------------------
      LOOP:  cpu time   10.3859: real time   10.3861

 eigenvalue-minimisations  :  7224
 total energy-change (2. order) :-0.2072360E+04  (-0.2019772E+04)
 number of electron     402.0000088 magnetization 
 augmentation part      402.0000088 magnetization 

 Free energy of the ion-electron system (eV)
  ---------------------------------------------------
  alpha Z        PSCENC =       928.27671890
  Ewald energy   TEWEN  =    136067.96110302
  -Hartree energ DENC   =   -170168.26342074
  -exchange      EXHF   =         0.00000000
  -V(xc)+E(xc)   XCENC  =       512.37391609
  PAW double counting   =     36805.69285224   -36020.49620719
  entropy T*S    EENTRO =         0.00000000
  eigenvalues    EBANDS =     -1498.15428737
  atomic energy  EATOM  =     33292.04768768
  Solvation  Ediel_sol  =         0.00000000
  ---------------------------------------------------
  free energy    TOTEN  =       -80.56163737 eV

  energy without entropy =      -80.56163737  energy(sigma->0) =      -80.56163737


--------------------------------------------------------------------------------------------------------




--------------------------------------- Iteration      1(   3)  ---------------------------------------


     EDDAV:  cpu time   10.5228: real time   10.5229
 BZINTS: Fermi energy:    0.012421;  402.000000 electrons
         Band energy:-0.154984E+04;  BLOECHL correction:   -0.058832
       DOS:  cpu time    0.0099: real time    0.0099
    --------------------------------------------
      LOOP:  cpu time   10.5327: real time   10.5328

 eigenvalue-minimisations  :  7336
 total energy-change (2. order) :-0.5168542E+02  (-0.5075244E+02)
 number of electron     402.0000088 magnetization 
 augmentation part      402.0000088 magnetization 

 Free energy of the ion-electron system (eV)
  ---------------------------------------------------
  alpha Z        PSCENC =       928.27671890
  Ewald energy   TEWEN  =    136067.96110302
  -Hartree energ DENC   =   -170168.26342074
  -exchange      EXHF   =         0.00000000
  -V(xc)+E(xc)   XCENC  =       512.37391609
  PAW double counting   =     36805.69285224   -36020.49620719
  entropy T*S    EENTRO =         0.00000000
  eigenvalues    EBANDS =     -1549.83971191
  atomic energy  EATOM  =     33292.04768768
  Solvation  Ediel_sol  =         0.00000000
  ---------------------------------------------------
  free energy    TOTEN  =      -132.24706190 eV

  energy without entropy =     -132.24706190  energy(sigma->0) =     -132.24706190


--------------------------------------------------------------------------------------------------------




--------------------------------------- Iteration      1(   4)  ---------------------------------------


     EDDAV:  cpu time    9.1412: real time    9.1414
 BZINTS: Fermi energy:    0.001285;  402.000000 electrons
         Band energy:-0.155084E+04;  BLOECHL correction:   -0.058077
       DOS:  cpu time    0.0101: real time    0.0101
    --------------------------------------------
      LOOP:  cpu time    9.1513: real time    9.1515

 eigenvalue-minimisations  :  6188
 total energy-change (2. order) :-0.1003686E+01  (-0.9964973E+00)
 number of electron     402.0000088 magnetization 
 augmentation part      402.0000088 magnetization 

 Free energy of the ion-electron system (eV)
  ---------------------------------------------------
  alpha Z        PSCENC =       928.27671890
  Ewald energy   TEWEN  =    136067.96110302
  -Hartree energ DENC   =   -170168.26342074
  -exchange      EXHF   =         0.00000000
  -V(xc)+E(xc)   XCENC  =       512.37391609
  PAW double counting   =     36805.69285224   -36020.49620719
  entropy T*S    EENTRO =         0.00000000
  eigenvalues    EBANDS =     -1550.84339793
  atomic energy  EATOM  =     33292.04768768
  Solvation  Ediel_sol  =         0.00000000
  ---------------------------------------------------
  free energy    TOTEN  =      -133.25074793 eV

  energy without entropy =     -133.25074793  energy(sigma->0) =     -133.25074793


--------------------------------------------------------------------------------------------------------




--------------------------------------- Iteration      1(   5)  ---------------------------------------


     EDDAV:  cpu time   10.5075: real time   10.5078
 BZINTS: Fermi energy:    0.000982;  402.000000 electrons
         Band energy:-0.155090E+04;  BLOECHL correction:   -0.058010
       DOS:  cpu time    0.0101: real time    0.0101
    --------------------------------------------
      LOOP:  cpu time   10.5176: real time   10.5179

 eigenvalue-minimisations  :  7308
 total energy-change (2. order) :-0.5610248E-01  (-0.5611532E-01)
 number of electron     402.0000088 magnetization 
 augmentation part      402.0000088 magnetization 

 Free energy of the ion-electron system (eV)
  ---------------------------------------------------
  alpha Z        PSCENC =       928.27671890
  Ewald energy   TEWEN  =    136067.96110302
  -Hartree energ DENC   =   -170168.26342074
  -exchange      EXHF   =         0.00000000
  -V(xc)+E(xc)   XCENC  =       512.37391609
  PAW double counting   =     36805.69285224   -36020.49620719
  entropy T*S    EENTRO =         0.00000000
  eigenvalues    EBANDS =     -1550.89950041
  atomic energy  EATOM  =     33292.04768768
  Solvation  Ediel_sol  =         0.00000000
  ---------------------------------------------------
  free energy    TOTEN  =      -133.30685041 eV

  energy without entropy =     -133.30685041  energy(sigma->0) =     -133.30685041


--------------------------------------------------------------------------------------------------------




--------------------------------------- Iteration      1(   6)  ---------------------------------------


    EDDIAG:  cpu time    1.5517: real time    1.5520
  RMM-DIIS:  cpu time    5.1497: real time    5.1498
    ORTHCH:  cpu time    0.2889: real time    0.2889
 BZINTS: Fermi energy:    0.000974;  402.000000 electrons
         Band energy:-0.155090E+04;  BLOECHL correction:   -0.058010
       DOS:  cpu time    0.0101: real time    0.0101
    --------------------------------------------
      LOOP:  cpu time    7.0004: real time    7.0007

 eigenvalue-minimisations  :  5909
 total energy-change (2. order) :-0.7090647E-03  (-0.7092856E-03)
 number of electron     402.0000088 magnetization 
 augmentation part      402.0000088 magnetization 

 Free energy of the ion-electron system (eV)
  ---------------------------------------------------
  alpha Z        PSCENC =       928.27671890
  Ewald energy   TEWEN  =    136067.96110302
  -Hartree energ DENC   =   -170168.26342074
  -exchange      EXHF   =         0.00000000
  -V(xc)+E(xc)   XCENC  =       512.37391609
  PAW double counting   =     36805.69285224   -36020.49620719
  entropy T*S    EENTRO =         0.00000000
  eigenvalues    EBANDS =     -1550.90020948
  atomic energy  EATOM  =     33292.04768768
  Solvation  Ediel_sol  =         0.00000000
  ---------------------------------------------------
  free energy    TOTEN  =      -133.30755947 eV

  energy without entropy =     -133.30755947  energy(sigma->0) =     -133.30755947


--------------------------------------------------------------------------------------------------------




--------------------------------------- Iteration      1(   7)  ---------------------------------------


    EDDIAG:  cpu time    1.5528: real time    1.5529
  RMM-DIIS:  cpu time    6.5663: real time    6.5663
    ORTHCH:  cpu time    0.2881: real time    0.2881
 BZINTS: Fermi energy:    0.000971;  402.000000 electrons
         Band energy:-0.155090E+04;  BLOECHL correction:   -0.058010
       DOS:  cpu time    0.0096: real time    0.0096
    --------------------------------------------
      LOOP:  cpu time    8.4167: real time    8.4169

 eigenvalue-minimisations  :  7346
 total energy-change (2. order) :-0.2031292E-03  (-0.2009653E-03)
 number of electron     402.0000088 magnetization 
 augmentation part      402.0000088 magnetization 

 Free energy of the ion-electron system (eV)
  ---------------------------------------------------
  alpha Z        PSCENC =       928.27671890
  Ewald energy   TEWEN  =    136067.96110302
  -Hartree energ DENC   =   -170168.26342074
  -exchange      EXHF   =         0.00000000
  -V(xc)+E(xc)   XCENC  =       512.37391609
  PAW double counting   =     36805.69285224   -36020.49620719
  entropy T*S    EENTRO =         0.00000000
  eigenvalues    EBANDS =     -1550.90041261
  atomic energy  EATOM  =     33292.04768768
  Solvation  Ediel_sol  =         0.00000000
  ---------------------------------------------------
  free energy    TOTEN  =      -133.30776260 eV

  energy without entropy =     -133.30776260  energy(sigma->0) =     -133.30776260


--------------------------------------------------------------------------------------------------------




--------------------------------------- Iteration      1(   8)  ---------------------------------------


    EDDIAG:  cpu time    1.5527: real time    1.5555
  RMM-DIIS:  cpu time    7.0821: real time    7.0822
    ORTHCH:  cpu time    0.2879: real time    0.2879
 BZINTS: Fermi energy:    0.000971;  402.000000 electrons
         Band energy:-0.155090E+04;  BLOECHL correction:   -0.058010
       DOS:  cpu time    0.0098: real time    0.0098
    --------------------------------------------
      LOOP:  cpu time    8.9324: real time    8.9354

 eigenvalue-minimisations  :  7903
 total energy-change (2. order) :-0.6619541E-04  (-0.6579539E-04)
 number of electron     402.0000088 magnetization 
 augmentation part      402.0000088 magnetization 

 Free energy of the ion-electron system (eV)
  ---------------------------------------------------
  alpha Z        PSCENC =       928.27671890
  Ewald energy   TEWEN  =    136067.96110302
  -Hartree energ DENC   =   -170168.26342074
  -exchange      EXHF   =         0.00000000
  -V(xc)+E(xc)   XCENC  =       512.37391609
  PAW double counting   =     36805.69285224   -36020.49620719
  entropy T*S    EENTRO =         0.00000000
  eigenvalues    EBANDS =     -1550.90047880
  atomic energy  EATOM  =     33292.04768768
  Solvation  Ediel_sol  =         0.00000000
  ---------------------------------------------------
  free energy    TOTEN  =      -133.30782880 eV

  energy without entropy =     -133.30782880  energy(sigma->0) =     -133.30782880


--------------------------------------------------------------------------------------------------------




--------------------------------------- Iteration      1(   9)  ---------------------------------------


    EDDIAG:  cpu time    1.5526: real time    1.5528
  RMM-DIIS:  cpu time    4.6046: real time    4.6047
    ORTHCH:  cpu time    0.2905: real time    0.2905
 BZINTS: Fermi energy:    0.000971;  402.000000 electrons
         Band energy:-0.155090E+04;  BLOECHL correction:   -0.058010
       DOS:  cpu time    0.0098: real time    0.0098
    --------------------------------------------
      LOOP:  cpu time    6.4576: real time    6.4578

 eigenvalue-minimisations  :  4568
 total energy-change (2. order) :-0.8457631E-05  (-0.8411847E-05)
 number of electron     402.0000088 magnetization 
 augmentation part      402.0000088 magnetization 

 Free energy of the ion-electron system (eV)
  ---------------------------------------------------
  alpha Z        PSCENC =       928.27671890
  Ewald energy   TEWEN  =    136067.96110302
  -Hartree energ DENC   =   -170168.26342074
  -exchange      EXHF   =         0.00000000
  -V(xc)+E(xc)   XCENC  =       512.37391609
  PAW double counting   =     36805.69285224   -36020.49620719
  entropy T*S    EENTRO =         0.00000000
  eigenvalues    EBANDS =     -1550.90048726
  atomic energy  EATOM  =     33292.04768768
  Solvation  Ediel_sol  =         0.00000000
  ---------------------------------------------------
  free energy    TOTEN  =      -133.30783725 eV

  energy without entropy =     -133.30783725  energy(sigma->0) =     -133.30783725


--------------------------------------------------------------------------------------------------------




 average (electrostatic) potential at core
  the test charge radii are     1.2098  1.1873  0.6991  0.7215
  (the norm of the test charge is              1.0000)
       1 -73.0570       2 -73.0195       3 -73.0195       4 -73.0195       5 -73.0283
       6 -73.0192       7 -73.0195       8 -73.0192       9 -73.0311      10 -73.3861
      11 -73.3183      12 -73.3860      13 -73.3183      14 -73.3181      15 -73.3565
      16 -73.3860      17 -73.3565      18 -73.3566      19 -73.3067      20 -73.5422
      21 -73.5424      22 -73.3258      23 -73.5424      24 -73.3258      25 -73.3069
      26 -73.3067      27 -73.3258      28 -72.9778      29 -73.0717      30 -73.0719
      31 -73.0717      32 -73.0717      33 -73.0719      34 -73.0717      35 -72.9688
      36 -47.2700      37 -56.3823      38 -76.8961
 
 
 
 E-fermi :   0.0010     XC(G=0):  -5.5340     alpha+bet : -5.1723

 Fermi energy:         0.0009706141

 k-point     1 :       0.0000    0.0000    0.0000
  band No.  band energies     occupation 
      1     -22.6832      2.00000
      2      -9.1144      2.00000
      3      -8.6905      2.00000
      4      -7.6284      2.00000
      5      -6.7908      2.00000
      6      -6.6943      2.00000
      7      -6.6865      2.00000
      8      -6.6865      2.00000
      9      -6.6445      2.00000
     10      -6.6170      2.00000
     11      -6.6089      2.00000
     12      -6.6089      2.00000
     13      -6.3582      2.00000
     14      -6.1954      2.00000
     15      -6.1954      2.00000
     16      -6.1921      2.00000
     17      -6.1278      2.00000
     18      -6.1278      2.00000
     19      -6.0174      2.00000
     20      -5.8741      2.00000
     21      -5.8740      2.00000
     22      -5.8240      2.00000
     23      -5.8105      2.00000
     24      -5.8105      2.00000
     25      -5.7668      2.00000
     26      -5.7593      2.00000
     27      -5.7593      2.00000
     28      -5.6121      2.00000
     29      -5.6121      2.00000
     30      -5.6069      2.00000
     31      -5.5656      2.00000
     32      -5.5656      2.00000
     33      -5.5040      2.00000
     34      -5.4649      2.00000
     35      -5.4649      2.00000
     36      -5.4555      2.00000
     37      -5.4399      2.00000
     38      -5.4399      2.00000
     39      -5.4114      2.00000
     40      -5.4002      2.00000
     41      -5.4002      2.00000
     42      -5.3962      2.00000
     43      -5.3817      2.00000
     44      -5.3816      2.00000
     45      -5.3766      2.00000
     46      -4.9360      2.00000
     47      -4.9360      2.00000
     48      -4.9199      2.00000
     49      -4.9199      2.00000
     50      -4.8981      2.00000
     51      -4.8722      2.00000
     52      -4.8721      2.00000
     53      -4.8574      2.00000
     54      -4.8390      2.00000
     55      -4.8390      2.00000
     56      -4.7748      2.00000
     57      -4.7677      2.00000
     58      -4.7044      2.00000
     59      -4.6715      2.00000
     60      -4.3782      2.00000
     61      -4.3642      2.00000
     62      -4.3642      2.00000
     63      -4.3632      2.00000
     64      -4.3573      2.00000
     65      -4.3573      2.00000
     66      -4.3524      2.00000
     67      -4.2872      2.00000
     68      -4.2872      2.00000
     69      -4.2329      2.00000
     70      -4.2329      2.00000
     71      -4.2094      2.00000
     72      -4.1876      2.00000
     73      -4.1876      2.00000
     74      -4.1405      2.00000
     75      -4.1405      2.00000
     76      -4.1400      2.00000
     77      -4.0972      2.00000
     78      -4.0861      2.00000
     79      -4.0860      2.00000
     80      -4.0836      2.00000
     81      -4.0836      2.00000
     82      -4.0795      2.00000
     83      -4.0703      2.00000
     84      -4.0703      2.00000
     85      -4.0135      2.00000
     86      -4.0135      2.00000
     87      -3.9965      2.00000
     88      -3.9964      2.00000
     89      -3.9953      2.00000
     90      -3.9477      2.00000
     91      -3.9294      2.00000
     92      -3.9294      2.00000
     93      -3.8972      2.00000
     94      -3.8633      2.00000
     95      -3.8633      2.00000
     96      -3.7974      2.00000
     97      -3.7974      2.00000
     98      -3.7385      2.00000
     99      -3.7385      2.00000
    100      -3.6672      2.00000
    101      -3.6672      2.00000
    102      -3.6595      2.00000
    103      -3.6595      2.00000
    104      -3.5140      2.00000
    105      -3.4893      2.00000
    106      -3.4893      2.00000
    107      -3.4556      2.00000
    108      -3.4525      2.00000
    109      -3.4524      2.00000
    110      -3.3632      2.00000
    111      -3.3631      2.00000
    112      -3.2925      2.00000
    113      -3.2736      2.00000
    114      -3.2736      2.00000
    115      -3.2469      2.00000
    116      -3.2469      2.00000
    117      -3.2171      2.00000
    118      -3.2039      2.00000
    119      -3.1749      2.00000
    120      -3.1481      2.00000
    121      -3.0355      2.00000
    122      -3.0355      2.00000
    123      -3.0204      2.00000
    124      -2.9806      2.00000
    125      -2.9806      2.00000
    126      -2.9610      2.00000
    127      -2.9290      2.00000
    128      -2.9290      2.00000
    129      -2.9053      2.00000
    130      -2.9053      2.00000
    131      -2.8887      2.00000
    132      -2.8887      2.00000
    133      -2.7584      2.00000
    134      -2.7584      2.00000
    135      -2.7486      2.00000
    136      -2.7287      2.00000
    137      -2.7286      2.00000
    138      -2.7156      2.00000
    139      -2.7073      2.00000
    140      -2.7073      2.00000
    141      -2.7041      2.00000
    142      -2.6944      2.00000
    143      -2.6944      2.00000
    144      -2.5866      2.00000
    145      -2.5866      2.00000
    146      -2.5734      2.00000
    147      -2.4998      2.00000
    148      -2.4998      2.00000
    149      -2.4920      2.00000
    150      -2.4743      2.00000
    151      -2.4743      2.00000
    152      -2.4573      2.00000
    153      -2.4461      2.00000
    154      -2.4461      2.00000
    155      -2.4224      2.00000
    156      -2.3942      2.00000
    157      -2.3895      2.00000
    158      -2.3894      2.00000
    159      -2.3434      2.00000
    160      -2.3211      2.00000
    161      -2.3211      2.00000
    162      -2.2962      2.00000
    163      -2.2799      2.00000
    164      -2.2756      2.00000
    165      -2.2756      2.00000
    166      -2.2390      2.00000
    167      -2.2353      2.00000
    168      -2.2353      2.00000
    169      -2.2094      2.00000
    170      -2.2094      2.00000
    171      -2.2041      2.00000
    172      -2.2041      2.00000
    173      -2.1922      2.00000
    174      -2.1668      2.00000
    175      -2.1662      2.00000
    176      -2.1662      2.00000
    177      -2.1473      2.00000
    178      -2.1385      2.00000
    179      -2.1326      2.00000
    180      -2.1326      2.00000
    181      -2.1104      2.00000
    182      -2.0841      2.00000
    183      -2.0841      2.00000
    184      -2.0593      2.00000
    185      -2.0494      2.00000
    186      -2.0494      2.00000
    187      -2.0326      2.00000
    188      -1.9913      2.00000
    189      -1.9913      2.00000
    190      -1.8897      2.00000
    191      -1.8897      2.00000
    192      -1.8671      2.00000
    193      -1.8457      2.00000
    194      -1.8457      2.00000
    195      -1.8282      2.00000
    196      -1.0638      2.00000
    197      -0.9665      2.00000
    198      -0.9665      2.00000
    199      -0.8245      2.00000
    200      -0.6135      2.00000
    201      -0.6135      2.00000
    202      -0.5649      2.00000
    203      -0.2201      2.00000
    204      -0.2201      2.00000
    205       0.0526      0.00000
    206       0.0526      0.00000
    207       0.3609      0.00000
    208       1.1570      0.00000
    209       1.5165      0.00000
    210       1.5765      0.00000
    211       1.5765      0.00000
    212       1.8655      0.00000
    213       1.8655      0.00000
    214       2.6904      0.00000
    215       2.6904      0.00000
    216       2.8222      0.00000
    217       2.8265      0.00000
    218       2.8265      0.00000
    219       2.9556      0.00000
    220       3.3858      0.00000
    221       3.4741      0.00000
    222       3.8915      0.00000
    223       3.8916      0.00000
    224       4.2112      0.00000
    225       4.6281      0.00000
    226       4.6521      0.00000
    227       4.6739      0.00000
    228       4.6739      0.00000
    229       4.7088      0.00000
    230       4.7089      0.00000
    231       4.9377      0.00000
    232       4.9377      0.00000
    233       5.1445      0.00000
    234       5.1683      0.00000
    235       5.1684      0.00000
    236       5.1695      0.00000
    237       5.4321      0.00000
    238       6.0452      0.00000
    239       6.0575      0.00000
    240       6.2939      0.00000
    241       6.3577      0.00000
    242       6.3638      0.00000
    243       6.4099      0.00000
    244       6.4172      0.00000
    245       6.4262      0.00000
    246       6.5074      0.00000
    247       6.5194      0.00000
    248       6.5959      0.00000
    249       6.6066      0.00000
    250       6.7156      0.00000
[...]
  0.000   0.000   0.000   0.000   0.000   0.000   0.000   0.000   0.000   0.000   0.000   0.000   0.000   0.000   0.000   0.000
  0.000   0.000   0.000   0.000   0.000   0.000   0.000   0.000   0.000   0.000   0.000   0.000   0.000   0.000   0.000   0.000
  0.000   0.000   0.000   0.000   0.000   0.000   0.000   0.000   0.000   0.000   1.000   0.000   0.000   0.000   0.000   0.000
  0.000   0.000   0.000   0.000   0.000   0.000   0.000   0.000   0.000   0.000   0.000   0.000   0.000   0.000   0.000   0.000
  0.000   0.000   0.000   0.000   0.000   0.000   0.000   0.000   0.000   0.000   0.000   0.000   0.000   0.000   0.000   0.000
  0.000   0.000   0.000   0.000   0.000   0.000   0.000   0.000   0.000   0.000   0.000   0.000   0.000   0.000   0.000   0.000
  0.000   0.000   0.000   0.000   0.000   0.000   0.000   0.000   0.000   0.000   0.000   0.000   0.000   0.000   0.000   0.000
  0.000   0.000   0.000   0.000   0.000   0.000   0.000   0.000   0.000   0.000   0.000   0.000   0.000   0.000   0.000   0.000
  0.000   0.000   0.000   0.000   0.000   0.000   0.000   0.000   0.000   0.000   0.000   0.000   0.000   0.000   0.000   0.000
  0.000   0.000   0.000   0.000   0.000   0.000   0.000   0.000   0.000   0.000   0.000   0.000   0.000   0.000   0.000   0.000


------------------------ aborting loop because EDIFF is reached ----------------------------------------





 total charge

# of ion       s       p       d       tot
------------------------------------------
    1        0.545   0.237   8.768   9.551
    2        0.545   0.240   8.764   9.549
    3        0.545   0.240   8.764   9.549
    4        0.545   0.240   8.764   9.549
    5        0.544   0.242   8.758   9.544
    6        0.545   0.240   8.764   9.549
    7        0.545   0.240   8.764   9.549
    8        0.545   0.240   8.764   9.549
    9        0.542   0.238   8.770   9.550
   10        0.523   0.307   8.766   9.596
   11        0.525   0.306   8.781   9.612
   12        0.523   0.307   8.766   9.596
   13        0.525   0.306   8.781   9.612
   14        0.525   0.306   8.781   9.612
   15        0.514   0.308   8.775   9.598
   16        0.523   0.307   8.766   9.596
   17        0.514   0.308   8.775   9.598
   18        0.514   0.308   8.775   9.598
   19        0.516   0.295   8.773   9.583
   20        0.560   0.339   8.743   9.642
   21        0.560   0.339   8.743   9.642
   22        0.506   0.307   8.777   9.590
   23        0.560   0.339   8.743   9.642
   24        0.506   0.307   8.777   9.590
   25        0.516   0.295   8.773   9.583
   26        0.516   0.295   8.773   9.583
   27        0.506   0.307   8.777   9.590
   28        0.538   0.225   8.762   9.524
   29        0.562   0.251   8.743   9.556
   30        0.562   0.251   8.743   9.556
   31        0.562   0.251   8.743   9.556
   32        0.562   0.251   8.743   9.556
   33        0.562   0.251   8.743   9.556
   34        0.562   0.251   8.743   9.556
   35        0.534   0.226   8.761   9.520
   36        0.527   0.505   4.785   5.817
   37        0.955   1.570   0.000   2.525
   38        1.611   3.531   0.000   5.142
--------------------------------------------------
tot         21.868  15.308 311.491 348.666
 
    CHARGE:  cpu time    0.3947: real time    0.3947
    FORLOC:  cpu time    0.0122: real time    0.0122
    FORNL :  cpu time    1.5932: real time    1.5934
    STRESS:  cpu time    4.7635: real time    4.7638
    FORCOR:  cpu time    0.0606: real time    0.0607
    FORHAR:  cpu time    0.0194: real time    0.0195
    OFIELD:  cpu time    0.0003: real time    0.0003

  FORCE on cell =-STRESS in cart. coord.  units (eV):
  Direction    XX          YY          ZZ          XY          YZ          ZX
  --------------------------------------------------------------------------------------
  Alpha Z   928.27672   928.27672   928.27672
  Ewald  158513.35157158513.35201************    -0.00031    -0.00008    -0.00013
  Hartree166948.17333166948.17333************     0.00001    -0.00002    -0.00004
  E(xc)   -1803.76938 -1803.76946 -1811.20387     0.00007    -0.00001    -0.00001
  Local  ************************337564.59236     0.00205     0.00001    -0.00000
  n-local  -121.57190   -70.77050   -73.08696    24.88744    -1.57610     1.52457
  augment  2378.96364  2378.96513  2398.66112    -0.00129     0.00003     0.00006
  Kinetic  5630.20971  5644.04741  5667.96833     7.90022    -0.14201     0.63410
  Fock        0.00000     0.00000     0.00000     0.00000     0.00000     0.00000
  -------------------------------------------------------------------------------------
  Total     -22.70022   -22.70022     2.70046    -0.00000     0.00000     0.00000
  in kB     -21.61654   -21.61654     2.57155    -0.00000     0.00000     0.00000
  external pressure =      -13.55 kB  Pullay stress =        0.00 kB


 VOLUME and BASIS-vectors are now :
 -----------------------------------------------------------------------------
  energy-cutoff  :      500.00
  volume of cell :     1682.50
      direct lattice vectors                 reciprocal lattice vectors
     8.813512802  0.000000000  0.000000000     0.113462137 -0.065507406  0.000000000
     4.406756909  7.632725690  0.000000000     0.000000000  0.131014796  0.000000000
     0.000000000  0.000000000 25.010692358     0.000000000  0.000000000  0.039982900

  length of vectors
     8.813512802  8.813512802 25.010692358     0.131014796  0.131014796  0.039982900


 FORCES acting on ions
    electron-ion (+dipol)            ewald-force                    non-local-force                 convergence-correction
 -----------------------------------------------------------------------------------------------
   -.202E-04 -.165E-04 0.270E+04   0.520E-04 0.434E-04 -.270E+04   0.357E-17 0.623E-18 -.943E+00   -.161E-03 -.106E-03 -.769E-01
   0.743E+00 0.252E+00 0.271E+04   -.813E+00 -.349E+00 -.270E+04   0.567E-01 0.797E-01 -.192E+00   0.192E-01 0.324E-01 -.144E+00
   -.743E+00 0.252E+00 0.271E+04   0.813E+00 -.349E+00 -.270E+04   -.567E-01 0.797E-01 -.192E+00   -.190E-01 0.342E-01 -.143E+00
   0.590E+00 0.517E+00 0.271E+04   -.709E+00 -.529E+00 -.270E+04   0.974E-01 0.926E-02 -.192E+00   0.377E-01 0.385E-03 -.144E+00
   0.966E-05 -.228E-04 0.271E+04   0.951E-04 0.175E-05 -.271E+04   -.552E-17 -.744E-18 -.352E-01   0.418E-02 0.255E-02 -.166E+00
   -.590E+00 0.517E+00 0.271E+04   0.709E+00 -.529E+00 -.270E+04   -.974E-01 0.926E-02 -.192E+00   -.391E-01 0.134E-02 -.143E+00
   -.153E+00 -.769E+00 0.271E+04   0.104E+00 0.879E+00 -.270E+04   0.407E-01 -.890E-01 -.192E+00   0.202E-01 -.335E-01 -.143E+00
   0.153E+00 -.769E+00 0.271E+04   -.104E+00 0.879E+00 -.270E+04   -.407E-01 -.890E-01 -.192E+00   -.184E-01 -.345E-01 -.143E+00
   0.200E-04 -.413E-04 0.271E+04   0.166E-03 -.201E-04 -.271E+04   0.305E-19 -.177E-17 -.616E+00   -.457E-02 -.236E-02 -.162E+00
   0.824E+01 0.476E+01 0.924E+03   -.778E+01 -.449E+01 -.923E+03   -.406E+00 -.234E+00 -.747E+00   -.605E-01 -.350E-01 0.190E+00
   0.153E-04 0.460E+01 0.932E+03   0.148E-03 -.472E+01 -.932E+03   0.698E-08 0.105E+00 -.262E+00   0.354E-02 -.575E-01 0.185E+00
   -.824E+01 0.476E+01 0.924E+03   0.778E+01 -.449E+01 -.923E+03   0.406E+00 -.234E+00 -.747E+00   0.596E-01 -.344E-01 0.189E+00
   0.399E+01 -.230E+01 0.932E+03   -.409E+01 0.236E+01 -.932E+03   0.909E-01 -.525E-01 -.262E+00   -.477E-01 0.321E-01 0.185E+00
   -.399E+01 -.230E+01 0.932E+03   0.409E+01 0.236E+01 -.932E+03   -.909E-01 -.525E-01 -.262E+00   0.547E-01 0.315E-01 0.183E+00
   0.310E-04 0.516E+01 0.928E+03   0.236E-03 -.526E+01 -.928E+03   0.267E-08 0.401E-01 -.520E+00   -.170E-02 -.663E-02 0.247E+00
   -.213E-04 -.951E+01 0.924E+03   0.163E-03 0.898E+01 -.923E+03   0.312E-07 0.468E+00 -.747E+00   -.176E-03 0.688E-01 0.189E+00
   0.447E+01 -.258E+01 0.928E+03   -.455E+01 0.263E+01 -.928E+03   0.347E-01 -.200E-01 -.520E+00   -.634E-02 0.227E-02 0.247E+00
   -.447E+01 -.258E+01 0.928E+03   0.455E+01 0.263E+01 -.928E+03   -.347E-01 -.200E-01 -.520E+00   0.655E-02 0.353E-02 0.247E+00
   -.434E-04 0.415E+01 -.890E+03   0.543E-04 -.425E+01 0.889E+03   0.124E-08 0.186E-01 0.608E+00   0.509E-02 0.814E-01 0.517E+00
   0.950E+01 0.549E+01 -.837E+03   -.855E+01 -.494E+01 0.837E+03   -.117E+01 -.678E+00 -.122E+01   0.106E+00 0.613E-01 0.847E+00
   -.950E+01 0.549E+01 -.837E+03   0.855E+01 -.494E+01 0.837E+03   0.117E+01 -.678E+00 -.122E+01   -.114E+00 0.618E-01 0.846E+00
   -.515E+01 0.298E+01 -.867E+03   0.463E+01 -.267E+01 0.866E+03   0.521E+00 -.301E+00 0.677E+00   0.270E-01 -.168E-01 0.581E+00
   -.105E-04 -.110E+02 -.837E+03   0.140E-03 0.987E+01 0.837E+03   0.903E-07 0.136E+01 -.122E+01   -.369E-02 -.130E+00 0.846E+00
   0.515E+01 0.298E+01 -.867E+03   -.463E+01 -.267E+01 0.866E+03   -.521E+00 -.301E+00 0.677E+00   -.259E-01 -.149E-01 0.580E+00
   -.360E+01 -.208E+01 -.890E+03   0.368E+01 0.213E+01 0.889E+03   -.161E-01 -.928E-02 0.608E+00   -.661E-01 -.382E-01 0.516E+00
   0.360E+01 -.208E+01 -.890E+03   -.368E+01 0.213E+01 0.889E+03   0.161E-01 -.928E-02 0.608E+00   0.734E-01 -.363E-01 0.517E+00
   0.100E-04 -.595E+01 -.867E+03   0.197E-03 0.535E+01 0.866E+03   0.400E-07 0.602E+00 0.677E+00   -.154E-02 0.317E-01 0.581E+00
   -.154E-04 -.138E-04 -.261E+04   0.306E-04 0.346E-04 0.261E+04   0.514E-17 0.418E-18 0.652E+00   0.155E-02 0.879E-03 0.505E+00
   0.332E+02 0.568E+02 -.260E+04   -.325E+02 -.558E+02 0.260E+04   -.949E+00 -.141E+01 0.242E+00   0.197E+00 0.271E+00 0.406E+00
   -.332E+02 0.568E+02 -.260E+04   0.325E+02 -.558E+02 0.260E+04   0.949E+00 -.141E+01 0.242E+00   -.204E+00 0.272E+00 0.407E+00
   0.658E+02 0.355E+00 -.260E+04   -.646E+02 -.259E+00 0.260E+04   -.169E+01 -.118E+00 0.242E+00   0.333E+00 0.356E-01 0.406E+00
   -.658E+02 0.355E+00 -.260E+04   0.646E+02 -.259E+00 0.260E+04   0.169E+01 -.118E+00 0.242E+00   -.340E+00 0.368E-01 0.408E+00
   0.326E+02 -.571E+02 -.260E+04   -.321E+02 0.561E+02 0.260E+04   -.745E+00 0.153E+01 0.242E+00   0.134E+00 -.313E+00 0.407E+00
   -.326E+02 -.571E+02 -.260E+04   0.321E+02 0.561E+02 0.260E+04   0.745E+00 0.153E+01 0.242E+00   -.138E+00 -.313E+00 0.408E+00
   0.346E-04 -.276E-04 -.261E+04   0.140E-03 -.503E-04 0.261E+04   -.152E-18 0.644E-17 0.685E+00   -.325E-02 -.158E-02 0.427E+00
   -.466E-05 -.366E-05 -.143E+04   0.737E-04 0.671E-05 0.143E+04   0.132E-17 -.313E-18 -.111E+01   0.138E-02 0.828E-03 0.369E+00
   -.451E-05 -.848E-04 -.934E+03   0.143E-04 0.917E-06 0.919E+03   0.531E-18 -.505E-19 0.147E+02   0.128E-02 0.775E-03 -.225E+00
   0.242E-03 -.916E-04 -.170E+04   0.508E-05 0.512E-06 0.176E+04   0.119E-18 0.974E-19 -.593E+02   0.375E-02 0.229E-02 -.185E+00
 -----------------------------------------------------------------------------------------------
   -.546E-03 -.944E-03 0.411E+02   0.441E-13 0.205E-12 -.273E-11   0.113E-15 0.618E-17 -.500E+02   -.462E-02 -.194E-02 0.976E+01
 
 
 POSITION                                       TOTAL-FORCE (eV/Angst)
 -----------------------------------------------------------------------------------
      0.00000      0.00000      5.28038         0.000000      0.000000     -0.114061
      2.93784      0.00000      5.28038         0.005888      0.016111     -0.046523
      5.87568      0.00000      5.28038        -0.005888      0.016111     -0.046523
      1.46892      2.54424      5.28038         0.016896     -0.002956     -0.046523
      4.40676      2.54424      5.28038         0.000000      0.000000     -0.096527
      7.34459      2.54424      5.28038        -0.016896     -0.002956     -0.046523
      2.93784      5.08848      5.28038         0.011008     -0.013154     -0.046523
      5.87568      5.08848      5.28038        -0.011008     -0.013154     -0.046523
      8.81351      5.08848      5.28038         0.000000      0.000000     -0.059279
      1.46892      0.84808      7.67911        -0.005530     -0.003193      0.135745
      4.40676      0.84808      7.67911        -0.000000     -0.071571      0.018097
      7.34459      0.84808      7.67911         0.005530     -0.003193      0.135745
      2.93784      3.39232      7.67911        -0.061982      0.035785      0.018097
      5.87568      3.39232      7.67911         0.061982      0.035785      0.018097
      8.81351      3.39232      7.67911        -0.000000     -0.064900      0.093649
      4.40676      5.93656      7.67911         0.000000      0.006386      0.135745
      7.34459      5.93656      7.67911        -0.056205      0.032450      0.093649
     10.28243      5.93656      7.67911         0.056205      0.032450      0.093649
      8.81351      1.70659     10.09931         0.000000      0.001142      0.032020
      2.93410      1.69400     10.03753        -0.111563     -0.064411     -0.285921
      5.87941      1.69400     10.03753         0.111563     -0.064411     -0.285921
     10.26439      4.25082     10.06692         0.025202     -0.014550      0.004555
      4.40676      4.24472     10.03753         0.000000      0.128822     -0.285921
      7.36264      4.25082     10.06692        -0.025202     -0.014550      0.004555
     11.74232      6.77943     10.09931        -0.000989     -0.000571      0.032020
      5.88471      6.77943     10.09931         0.000989     -0.000571      0.032020
      8.81351      6.76381     10.06692         0.000000      0.029100      0.004555
      0.00000      0.00000     12.49835         0.000000      0.000000     -0.075021
      2.98825      0.08685     12.53577        -0.083124     -0.174718     -0.123198
      5.82526      0.08685     12.53577         0.083124     -0.174718     -0.123198
      1.56934      2.54447     12.53577        -0.192872      0.015372     -0.123198
      7.24417      2.54447     12.53577         0.192872      0.015372     -0.123198
      2.98785      5.00140     12.53577        -0.109748      0.159346     -0.123198
      5.82567      5.00140     12.53577         0.109748      0.159346     -0.123198
      8.81351      5.08848     12.49628         0.000000      0.000000     -0.008844
      4.40676      2.54424     12.20474         0.000000      0.000000      1.358340
      4.40676      2.54424     14.12704         0.000000      0.000000      0.025746
      4.40676      2.54424     15.29796         0.000000      0.000000     -0.006469
 -----------------------------------------------------------------------------------
    total drift:                               -0.005169     -0.002886      0.823051


--------------------------------------------------------------------------------------------------------



  FREE ENERGIE OF THE ION-ELECTRON SYSTEM (eV)
  ---------------------------------------------------
  free  energy   TOTEN  =      -133.30783725 eV

  energy  without entropy=     -133.30783725  energy(sigma->0) =     -133.30783725
 


--------------------------------------------------------------------------------------------------------


    POTLOK:  cpu time    0.0467: real time    0.0467


--------------------------------------------------------------------------------------------------------


 stress matrix after NEB project (eV)
    -22.70022     -0.00000      0.00000
     -0.00000    -22.70022     -0.00000
     -0.00000      0.00000      2.70046
  FORCES: max atom, RMS     0.025746    0.004306
  FORCE total and by dimension    0.026547    0.025746
  Stress total and by dimension   32.216339   22.700222
     LOOP+:  cpu time   89.1704: real time   89.1818
 -----------------------------------------------------------------------------
|                                                                             |
|           W    W    AA    RRRRR   N    N  II  N    N   GGGG   !!!           |
|           W    W   A  A   R    R  NN   N  II  NN   N  G    G  !!!           |
|           W    W  A    A  R    R  N N  N  II  N N  N  G       !!!           |
|           W WW W  AAAAAA  RRRRR   N  N N  II  N  N N  G  GGG   !            |
|           WW  WW  A    A  R   R   N   NN  II  N   NN  G    G                |
|           W    W  A    A  R    R  N    N  II  N    N   GGGG   !!!           |
|                                                                             |
|     Tetrahedron method does not include variations of the Fermi             |
|     occupations, so forces and stress will be inaccurate. We suggest        |
|     using a different smearing scheme ISMEAR = 1 or 2 for metals in         |
|     relaxations.                                                            |
|                                                                             |
 -----------------------------------------------------------------------------

    4ORBIT:  cpu time    0.0000: real time    0.0000



 total charge

# of ion       s       p       d       tot
------------------------------------------
    1        0.545   0.237   8.768   9.551
    2        0.545   0.240   8.764   9.549
    3        0.545   0.240   8.764   9.549
    4        0.545   0.240   8.764   9.549
    5        0.544   0.242   8.758   9.544
    6        0.545   0.240   8.764   9.549
    7        0.545   0.240   8.764   9.549
    8        0.545   0.240   8.764   9.549
    9        0.542   0.238   8.770   9.550
   10        0.523   0.307   8.766   9.596
   11        0.525   0.306   8.781   9.612
   12        0.523   0.307   8.766   9.596
   13        0.525   0.306   8.781   9.612
   14        0.525   0.306   8.781   9.612
   15        0.514   0.308   8.775   9.598
   16        0.523   0.307   8.766   9.596
   17        0.514   0.308   8.775   9.598
   18        0.514   0.308   8.775   9.598
   19        0.516   0.295   8.773   9.583
   20        0.560   0.339   8.743   9.642
   21        0.560   0.339   8.743   9.642
   22        0.506   0.307   8.777   9.590
   23        0.560   0.339   8.743   9.642
   24        0.506   0.307   8.777   9.590
   25        0.516   0.295   8.773   9.583
   26        0.516   0.295   8.773   9.583
   27        0.506   0.307   8.777   9.590
   28        0.538   0.225   8.762   9.524
   29        0.562   0.251   8.743   9.556
   30        0.562   0.251   8.743   9.556
   31        0.562   0.251   8.743   9.556
   32        0.562   0.251   8.743   9.556
   33        0.562   0.251   8.743   9.556
   34        0.562   0.251   8.743   9.556
   35        0.534   0.226   8.761   9.520
   36        0.527   0.505   4.785   5.817
   37        0.955   1.570   0.000   2.525
   38        1.611   3.531   0.000   5.142
--------------------------------------------------
tot         21.868  15.308 311.491 348.666
 
 BZINTS: Fermi energy:    0.000971;  402.000000 electrons
         Band energy:-0.155090E+04;  BLOECHL correction:   -0.058010

 total amount of memory used by VASP MPI-rank0   132869. kBytes
=======================================================================

   base      :      30000. kBytes
   nonlr-proj:      14172. kBytes
   fftplans  :       4808. kBytes
   grid      :      20723. kBytes
   one-center:        590. kBytes
   wavefun   :      62576. kBytes
 
  
  
 General timing and accounting informations for this job:
 ========================================================
  
                  Total CPU time used (sec):       97.251
                            User time (sec):       93.839
                          System time (sec):        3.413
                         Elapsed time (sec):       97.660
  
                   Maximum memory used (kb):      400520.
                   Average memory used (kb):          N/A
  
                          Minor page faults:        73909
                          Major page faults:            0
                 Voluntary context switches:         9242
