PROCAR new format
# of k-points:   10         # of bands:  252         # of ions:   38

 k-point     1 :    0.00000000 0.00000000 0.00000000     weight = 0.01562500

band     1 # energy  -22.68317007 # occ.  2.00000000
 
ion      s      p      d    tot
    1  0.000  0.000  0.000  0.000
    2  0.000  0.000  0.000  0.000
    3  0.000  0.000  0.000  0.000
    4  0.000  0.000  0.000  0.000
    5  0.000  0.000  0.000  0.000
    6  0.000  0.000  0.000  0.000
    7  0.000  0.000  0.000  0.000
    8  0.000  0.000  0.000  0.000
    9  0.000  0.000  0.000  0.000
   10  0.000  0.000  0.000  0.000
   11  0.000  0.000  0.000  0.000
   12  0.000  0.000  0.000  0.000
   13  0.000  0.000  0.000  0.000
   14  0.000  0.000  0.000  0.000
   15  0.000  0.000  0.000  0.000
   16  0.000  0.000  0.000  0.000
   17  0.000  0.000  0.000  0.000
   18  0.000  0.000  0.000  0.000
   19  0.000  0.000  0.000  0.000
   20  0.000  0.000  0.000  0.000
   21  0.000  0.000  0.000  0.000
   22  0.000  0.000  0.000  0.000
   23  0.000  0.000  0.000  0.000
   24  0.000  0.000  0.000  0.000
   25  0.000  0.000  0.000  0.000
   26  0.000  0.000  0.000  0.000
   27  0.000  0.000  0.000  0.000
   28  0.000  0.000  0.000  0.000
   29  0.000  0.000  0.000  0.000
   30  0.000  0.000  0.000  0.000
   31  0.000  0.000  0.000  0.000
   32  0.000  0.000  0.000  0.000
   33  0.000  0.000  0.000  0.000
   34  0.000  0.000  0.000  0.000
   35  0.000  0.000  0.000  0.000
   36  0.000  0.000  0.000  0.001
   37  0.158  0.113  0.000  0.272
   38  0.635  0.094  0.000  0.729
tot    0.793  0.208  0.000  1.001
 
band     2 # energy   -9.11443589 # occ.  2.00000000
 
ion      s      p      d    tot
    1  0.001  0.000  0.000  0.001
    2  0.001  0.000  0.000  0.001
    3  0.001  0.000  0.000  0.001
    4  0.001  0.000  0.000  0.001
    5  0.001  0.000  0.000  0.001
    6  0.001  0.000  0.000  0.001
    7  0.001  0.000  0.000  0.001
    8  0.001  0.000  0.000  0.001
    9  0.001  0.000  0.000  0.001
   10  0.005  0.000  0.000  0.006
   11  0.006  0.000  0.000  0.006
   12  0.005  0.000  0.000  0.006
   13  0.006  0.000  0.000  0.006
   14  0.006  0.000  0.000  0.006
   15  0.005  0.000  0.000  0.005
   16  0.005  0.000  0.000  0.006
   17  0.005  0.000  0.000  0.005
   18  0.005  0.000  0.000  0.005
   19  0.007  0.000  0.000  0.007
   20  0.017  0.001  0.002  0.020
   21  0.017  0.001  0.002  0.020
   22  0.007  0.000  0.000  0.007
   23  0.017  0.001  0.002  0.020
   24  0.007  0.000  0.000  0.007
   25  0.007  0.000  0.000  0.007
   26  0.007  0.000  0.000  0.007
   27  0.007  0.000  0.000  0.007
   28  0.002  0.000  0.000  0.003
   29  0.006  0.000  0.001  0.007
   30  0.006  0.000  0.001  0.007
   31  0.006  0.000  0.001  0.007
   32  0.006  0.000  0.001  0.007
   33  0.006  0.000  0.001  0.007
   34  0.006  0.000  0.001  0.007
   35  0.002  0.000  0.000  0.003
   36  0.088  0.013  0.057  0.158
   37  0.181  0.022  0.000  0.203
   38  0.069  0.066  0.000  0.134
tot    0.529  0.106  0.070  0.705
 
band     3 # energy   -8.69046635 # occ.  2.00000000
 
ion      s      p      d    tot
    1  0.006  0.000  0.000  0.007
    2  0.006  0.000  0.000  0.007
    3  0.006  0.000  0.000  0.007
    4  0.006  0.000  0.000  0.007
    5  0.006  0.000  0.000  0.007
    6  0.006  0.000  0.000  0.007
    7  0.006  0.000  0.000  0.007
    8  0.006  0.000  0.000  0.007
    9  0.006  0.000  0.000  0.007
   10  0.022  0.000  0.000  0.022
   11  0.023  0.000  0.000  0.023
   12  0.022  0.000  0.000  0.022
   13  0.023  0.000  0.000  0.023
   14  0.023  0.000  0.000  0.023
   15  0.023  0.000  0.000  0.023
   16  0.022  0.000  0.000  0.022
   17  0.023  0.000  0.000  0.023
   18  0.023  0.000  0.000  0.023
   19  0.015  0.000  0.000  0.015
   20  0.012  0.001  0.001  0.013
   21  0.012  0.001  0.001  0.013
   22  0.016  0.000  0.000  0.017
   23  0.012  0.001  0.001  0.013
   24  0.016  0.000  0.000  0.017
   25  0.015  0.000  0.000  0.015
   26  0.015  0.000  0.000  0.015
   27  0.016  0.000  0.000  0.017
   28  0.002  0.000  0.000  0.002
   29  0.001  0.000  0.001  0.002
   30  0.001  0.000  0.001  0.002
   31  0.001  0.000  0.001  0.002
   32  0.001  0.000  0.001  0.002
   33  0.001  0.000  0.001  0.002
   34  0.001  0.000  0.001  0.002
   35  0.002  0.000  0.000  0.002
   36  0.009  0.012  0.024  0.045
   37  0.087  0.005  0.000  0.092
   38  0.038  0.049  0.000  0.087
tot    0.529  0.077  0.033  0.639
 
band     4 # energy   -7.62841932 # occ.  2.00000000
 
ion      s      p      d    tot
    1  0.016  0.000  0.001  0.017
    2  0.015  0.000  0.001  0.017
    3  0.015  0.000  0.001  0.017
    4  0.015  0.000  0.001  0.017
    5  0.015  0.000  0.001  0.017
    6  0.015  0.000  0.001  0.017
    7  0.015  0.000  0.001  0.017
    8  0.015  0.000  0.001  0.017
    9  0.016  0.000  0.001  0.017
   10  0.010  0.001  0.002  0.013
   11  0.009  0.001  0.002  0.012
   12  0.010  0.001  0.002  0.013
   13  0.009  0.001  0.002  0.012
   14  0.009  0.001  0.002  0.012
   15  0.009  0.001  0.002  0.013
   16  0.010  0.001  0.002  0.013
   17  0.009  0.001  0.002  0.013
   18  0.009  0.001  0.002  0.013
   19  0.012  0.001  0.003  0.017
   20  0.015  0.001  0.003  0.019
   21  0.015  0.001  0.003  0.019
   22  0.014  0.001  0.003  0.018
   23  0.015  0.001  0.003  0.019
   24  0.014  0.001  0.003  0.018
   25  0.012  0.001  0.003  0.017
   26  0.012  0.001  0.003  0.017
   27  0.014  0.001  0.003  0.018
   28  0.012  0.000  0.000  0.013
   29  0.013  0.001  0.001  0.014
   30  0.013  0.001  0.001  0.014
   31  0.013  0.001  0.001  0.014
   32  0.013  0.001  0.001  0.014
   33  0.013  0.001  0.001  0.014
   34  0.013  0.001  0.001  0.014
   35  0.013  0.000  0.000  0.013
   36  0.010  0.003  0.004  0.016
   37  0.015  0.001  0.000  0.016
   38  0.012  0.033  0.000  0.045
tot    0.482  0.067  0.068  0.617
 
band     5 # energy   -6.79079942 # occ.  2.00000000
 
ion      s      p      d    tot
    1  0.010  0.001  0.000  0.010
    2  0.001  0.000  0.003  0.005
    3  0.001  0.000  0.003  0.005
    4  0.001  0.000  0.003  0.005
    5  0.003  0.000  0.001  0.004
    6  0.001  0.000  0.003  0.005
    7  0.001  0.000  0.003  0.005
    8  0.001  0.000  0.003  0.005
    9  0.002  0.001  0.003  0.005
   10  0.003  0.000  0.016  0.020
   11  0.002  0.001  0.007  0.010
   12  0.003  0.000  0.016  0.020
   13  0.002  0.001  0.007  0.010
   14  0.002  0.001  0.007  0.010
   15  0.017  0.002  0.003  0.022
   16  0.003  0.000  0.016  0.020
   17  0.017  0.002  0.003  0.022
   18  0.017  0.002  0.003  0.022
   19  0.004  0.000  0.017  0.021
   20  0.012  0.001  0.028  0.041
   21  0.012  0.001  0.028  0.041
   22  0.024  0.002  0.001  0.027
   23  0.012  0.001  0.028  0.041
   24  0.024  0.002  0.001  0.027
   25  0.004  0.000  0.017  0.021
   26  0.004  0.000  0.017  0.021
   27  0.024  0.002  0.001  0.027
   28  0.000  0.000  0.003  0.003
   29  0.001  0.001  0.006  0.007
   30  0.001  0.001  0.006  0.007
   31  0.001  0.001  0.006  0.007
   32  0.001  0.001  0.006  0.007
   33  0.001  0.001  0.006  0.007
   34  0.001  0.001  0.006  0.007
   35  0.003  0.001  0.002  0.006
   36  0.046  0.001  0.007  0.054
   37  0.003  0.036  0.000  0.039
   38  0.022  0.110  0.000  0.131
tot    0.289  0.176  0.283  0.747
 
band     6 # energy   -6.69425748 # occ.  2.00000000
 
ion      s      p      d    tot
    1  0.014  0.000  0.021  0.034
    2  0.019  0.000  0.017  0.036
    3  0.019  0.000  0.017  0.036
    4  0.019  0.000  0.017  0.036
    5  0.015  0.000  0.016  0.031
    6  0.019  0.000  0.017  0.036
    7  0.019  0.000  0.017  0.036
    8  0.019  0.000  0.017  0.036
    9  0.030  0.000  0.014  0.044
   10  0.010  0.001  0.015  0.025
   11  0.011  0.001  0.013  0.026
   12  0.010  0.001  0.015  0.025
   13  0.011  0.001  0.013  0.026
   14  0.011  0.001  0.013  0.026
   15  0.000  0.001  0.018  0.019
   16  0.010  0.001  0.015  0.025
   17  0.000  0.001  0.018  0.019
   18  0.000  0.001  0.018  0.019
   19  0.000  0.001  0.003  0.004
   20  0.005  0.001  0.002  0.009
   21  0.005  0.001  0.002  0.009
   22  0.000  0.001  0.001  0.002
   23  0.005  0.001  0.002  0.009
   24  0.000  0.001  0.001  0.002
   25  0.000  0.001  0.003  0.004
   26  0.000  0.001  0.003  0.004
   27  0.000  0.001  0.001  0.002
   28  0.009  0.000  0.003  0.012
   29  0.008  0.000  0.005  0.013
   30  0.008  0.000  0.005  0.013
   31  0.008  0.000  0.005  0.013
   32  0.008  0.000  0.005  0.013
   33  0.008  0.000  0.005  0.013
   34  0.008  0.000  0.005  0.013
   35  0.011  0.000  0.003  0.015
   36  0.003  0.001  0.004  0.008
   37  0.000  0.001  0.000  0.001
   38  0.001  0.004  0.000  0.004
tot    0.325  0.024  0.345  0.694
 
band     7 # energy   -6.68654514 # occ.  2.00000000
 
ion      s      p      d    tot
    1  0.000  0.001  0.008  0.009
    2  0.003  0.001  0.003  0.007
    3  0.006  0.001  0.003  0.010
    4  0.003  0.001  0.003  0.008
    5  0.000  0.001  0.006  0.007
    6  0.000  0.000  0.003  0.003
    7  0.006  0.001  0.003  0.010
    8  0.000  0.000  0.003  0.003
    9  0.000  0.000  0.001  0.001
   10  0.000  0.000  0.035  0.035
   11  0.036  0.002  0.014  0.052
   12  0.028  0.002  0.012  0.043
   13  0.037  0.001  0.014  0.053
   14  0.000  0.004  0.023  0.027
   15  0.001  0.001  0.010  0.011
   16  0.028  0.002  0.013  0.042
   17  0.001  0.001  0.010  0.011
   18  0.000  0.003  0.005  0.008
   19  0.008  0.001  0.011  0.020
   20  0.000  0.002  0.036  0.038
   21  0.050  0.001  0.017  0.068
   22  0.011  0.001  0.010  0.023
   23  0.049  0.001  0.017  0.068
   24  0.000  0.000  0.026  0.027
   25  0.000  0.004  0.003  0.007
   26  0.008  0.001  0.011  0.020
   27  0.011  0.001  0.010  0.023
   28  0.000  0.000  0.001  0.001
   29  0.000  0.000  0.002  0.002
   30  0.004  0.001  0.004  0.009
   31  0.000  0.000  0.002  0.002
   32  0.005  0.001  0.004  0.010
   33  0.004  0.001  0.004  0.009
   34  0.005  0.001  0.004  0.010
   35  0.000  0.000  0.004  0.004
   36  0.000  0.003  0.009  0.012
   37  0.000  0.000  0.000  0.000
   38  0.000  0.000  0.000  0.000
tot    0.306  0.044  0.345  0.694
 
band     8 # energy   -6.68652190 # occ.  2.00000000
 
ion      s      p      d    tot
    1  0.000  0.001  0.008  0.009
    2  0.003  0.001  0.003  0.006
    3  0.000  0.000  0.003  0.004
    4  0.003  0.001  0.003  0.006
    5  0.000  0.001  0.006  0.007
    6  0.006  0.001  0.003  0.011
    7  0.000  0.000  0.003  0.004
    8  0.006  0.001  0.003  0.011
    9  0.000  0.000  0.001  0.001
   10  0.038  0.002  0.005  0.045
   11  0.012  0.003  0.020  0.036
   12  0.009  0.001  0.027  0.037
   13  0.012  0.003  0.020  0.035
   14  0.049  0.001  0.011  0.061
   15  0.000  0.002  0.007  0.009
   16  0.010  0.001  0.027  0.037
   17  0.000  0.002  0.007  0.009
   18  0.001  0.000  0.011  0.013
   19  0.003  0.003  0.006  0.012
   20  0.066  0.001  0.011  0.078
   21  0.016  0.002  0.030  0.048
   22  0.004  0.001  0.021  0.025
   23  0.017  0.002  0.029  0.048
   24  0.015  0.002  0.005  0.022
   25  0.011  0.000  0.013  0.024
   26  0.003  0.003  0.006  0.011
   27  0.004  0.001  0.021  0.025
   28  0.000  0.000  0.001  0.001
   29  0.006  0.001  0.004  0.012
   30  0.002  0.001  0.003  0.005
   31  0.006  0.001  0.004  0.012
   32  0.001  0.000  0.003  0.004
   33  0.002  0.001  0.003  0.005
   34  0.001  0.000  0.003  0.004
   35  0.000  0.000  0.004  0.004
   36  0.000  0.003  0.009  0.012
   37  0.000  0.000  0.000  0.000
   38  0.000  0.000  0.000  0.000
tot    0.306  0.044  0.345  0.694
 
band     9 # energy   -6.64450660 # occ.  2.00000000
 
ion      s      p      d    tot
    1  0.008  0.000  0.002  0.010
    2  0.002  0.000  0.004  0.005
    3  0.002  0.000  0.004  0.005
    4  0.002  0.000  0.004  0.005
    5  0.000  0.000  0.004  0.005
    6  0.002  0.000  0.004  0.005
    7  0.002  0.000  0.004  0.005
    8  0.002  0.000  0.004  0.005
    9  0.001  0.000  0.002  0.003
   10  0.000  0.000  0.017  0.018
   11  0.007  0.000  0.012  0.018
   12  0.000  0.000  0.017  0.018
   13  0.007  0.000  0.012  0.018
   14  0.007  0.000  0.012  0.019
   15  0.006  0.000  0.011  0.017
   16  0.000  0.000  0.017  0.018
   17  0.006  0.000  0.011  0.017
   18  0.006  0.000  0.011  0.017
   19  0.017  0.001  0.017  0.034
   20  0.007  0.000  0.037  0.044
   21  0.007  0.000  0.037  0.044
   22  0.000  0.000  0.026  0.026
   23  0.007  0.000  0.037  0.044
   24  0.000  0.000  0.026  0.026
   25  0.017  0.001  0.017  0.034
   26  0.017  0.001  0.017  0.034
   27  0.000  0.000  0.026  0.026
   28  0.004  0.000  0.011  0.016
   29  0.013  0.000  0.013  0.025
   30  0.013  0.000  0.013  0.025
   31  0.013  0.000  0.013  0.025
   32  0.013  0.000  0.013  0.025
   33  0.013  0.000  0.013  0.025
   34  0.013  0.000  0.013  0.025
   35  0.020  0.000  0.007  0.027
   36  0.009  0.001  0.015  0.025
   37  0.001  0.001  0.000  0.001
   38  0.001  0.004  0.000  0.005
tot    0.237  0.014  0.498  0.749
 
band    10 # energy   -6.61696281 # occ.  2.00000000
 
ion      s      p      d    tot
    1  0.005  0.001  0.002  0.008
    2  0.000  0.001  0.006  0.007
    3  0.000  0.001  0.006  0.007
    4  0.000  0.001  0.006  0.007
    5  0.019  0.002  0.000  0.021
    6  0.000  0.001  0.006  0.007
    7  0.000  0.001  0.006  0.007
    8  0.000  0.001  0.006  0.007
    9  0.000  0.000  0.003  0.003
   10  0.023  0.003  0.001  0.027
   11  0.018  0.001  0.022  0.042
   12  0.023  0.003  0.002  0.027
   13  0.018  0.001  0.022  0.042
   14  0.018  0.001  0.022  0.042
   15  0.002  0.001  0.024  0.027
   16  0.023  0.003  0.002  0.027
   17  0.002  0.001  0.024  0.027
   18  0.002  0.001  0.024  0.027
   19  0.016  0.002  0.011  0.028
   20  0.010  0.003  0.015  0.027
   21  0.010  0.003  0.015  0.027
   22  0.009  0.000  0.025  0.034
   23  0.010  0.003  0.015  0.027
   24  0.009  0.000  0.025  0.034
   25  0.016  0.002  0.011  0.028
   26  0.016  0.002  0.011  0.028
   27  0.009  0.000  0.025  0.034
   28  0.018  0.001  0.000  0.019
   29  0.002  0.000  0.005  0.007
   30  0.002  0.000  0.005  0.007
   31  0.002  0.000  0.005  0.007
   32  0.002  0.000  0.005  0.007
   33  0.002  0.000  0.005  0.007
   34  0.002  0.000  0.005  0.007
   35  0.000  0.001  0.006  0.007
   36  0.000  0.000  0.000  0.001
   37  0.000  0.000  0.000  0.001
   38  0.000  0.002  0.000  0.002
tot    0.289  0.038  0.374  0.701
 
band    11 # energy   -6.60890220 # occ.  2.00000000
 
ion      s      p      d    tot
    1  0.000  0.001  0.003  0.004
    2  0.004  0.001  0.004  0.009
    3  0.008  0.001  0.004  0.013
    4  0.004  0.001  0.004  0.009
    5  0.000  0.000  0.005  0.005
    6  0.001  0.000  0.003  0.004
    7  0.008  0.001  0.004  0.013
    8  0.001  0.000  0.003  0.004
    9  0.000  0.001  0.011  0.012
   10  0.024  0.000  0.017  0.040
   11  0.003  0.001  0.021  0.025
   12  0.006  0.004  0.006  0.016
   13  0.002  0.001  0.022  0.025
   14  0.010  0.001  0.007  0.018
   15  0.017  0.001  0.033  0.051
   16  0.006  0.003  0.007  0.016
   17  0.015  0.001  0.034  0.050
   18  0.064  0.002  0.006  0.071
   19  0.010  0.001  0.027  0.038
   20  0.000  0.001  0.014  0.015
   21  0.000  0.002  0.011  0.013
   22  0.009  0.003  0.016  0.028
   23  0.000  0.002  0.011  0.013
   24  0.036  0.001  0.011  0.048
   25  0.038  0.002  0.003  0.043
   26  0.009  0.001  0.028  0.037
   27  0.009  0.003  0.016  0.028
   28  0.000  0.000  0.006  0.007
   29  0.000  0.000  0.002  0.002
   30  0.002  0.000  0.002  0.004
   31  0.000  0.000  0.002  0.002
   32  0.004  0.001  0.003  0.008
   33  0.002  0.000  0.002  0.004
   34  0.004  0.001  0.003  0.008
   35  0.000  0.001  0.004  0.005
   36  0.000  0.000  0.001  0.001
   37  0.000  0.000  0.000  0.000
   38  0.000  0.001  0.000  0.001
tot    0.297  0.042  0.354  0.693
 
band    12 # energy   -6.60887253 # occ.  2.00000000
 
ion      s      p      d    tot
    1  0.000  0.001  0.003  0.004
    2  0.005  0.001  0.003  0.009
    3  0.001  0.000  0.004  0.005
    4  0.004  0.001  0.003  0.009
    5  0.000  0.000  0.005  0.005
    6  0.008  0.001  0.004  0.014
    7  0.000  0.000  0.004  0.005
    8  0.008  0.001  0.004  0.014
    9  0.000  0.001  0.011  0.012
   10  0.000  0.005  0.003  0.008
   11  0.007  0.001  0.012  0.021
   12  0.018  0.001  0.013  0.032
   13  0.007  0.001  0.012  0.020
   14  0.000  0.001  0.026  0.028
   15  0.047  0.001  0.015  0.064
   16  0.018  0.001  0.013  0.032
   17  0.048  0.001  0.015  0.065
   18  0.000  0.001  0.042  0.043
   19  0.028  0.002  0.011  0.041
   20  0.000  0.002  0.010  0.012
   21  0.000  0.001  0.013  0.014
   22  0.028  0.001  0.013  0.042
   23  0.000  0.001  0.013  0.014
   24  0.000  0.004  0.017  0.021
   25  0.000  0.000  0.035  0.036
   26  0.029  0.002  0.011  0.041
   27  0.027  0.001  0.013  0.041
   28  0.000  0.000  0.006  0.007
   29  0.004  0.001  0.002  0.007
   30  0.002  0.000  0.002  0.005
   31  0.004  0.001  0.002  0.007
   32  0.000  0.000  0.001  0.002
   33  0.002  0.000  0.002  0.005
   34  0.000  0.000  0.001  0.002
   35  0.000  0.001  0.004  0.005
   36  0.000  0.000  0.001  0.001
   37  0.000  0.000  0.000  0.000
   38  0.000  0.001  0.000  0.001
tot    0.297  0.042  0.354  0.693
 
band    13 # energy   -6.35818978 # occ.  2.00000000
 
ion      s      p      d    tot
    1  0.001  0.000  0.000  0.002
    2  0.000  0.001  0.005  0.006
    3  0.000  0.001  0.005  0.006
    4  0.000  0.001  0.005  0.006
    5  0.007  0.001  0.000  0.008
    6  0.000  0.001  0.005  0.006
    7  0.000  0.001  0.005  0.006
    8  0.000  0.001  0.005  0.006
    9  0.010  0.002  0.002  0.013
   10  0.003  0.000  0.027  0.030
   11  0.005  0.002  0.005  0.011
   12  0.003  0.000  0.027  0.030
   13  0.005  0.002  0.005  0.011
   14  0.005  0.002  0.005  0.011
   15  0.022  0.002  0.009  0.033
   16  0.003  0.000  0.027  0.030
   17  0.022  0.002  0.009  0.033
   18  0.022  0.002  0.009  0.033
   19  0.004  0.001  0.003  0.008
   20  0.000  0.002  0.021  0.023
   21  0.000  0.002  0.021  0.023
   22  0.002  0.001  0.013  0.016
   23  0.000  0.002  0.021  0.023
   24  0.002  0.001  0.013  0.016
   25  0.004  0.001  0.003  0.008
   26  0.004  0.001  0.003  0.008
   27  0.002  0.001  0.013  0.016
   28  0.011  0.000  0.001  0.012
   29  0.003  0.000  0.005  0.008
   30  0.003  0.000  0.005  0.008
   31  0.003  0.000  0.005  0.008
   32  0.003  0.000  0.005  0.008
   33  0.003  0.000  0.005  0.008
   34  0.003  0.000  0.005  0.008
   35  0.005  0.000  0.002  0.007
   36  0.024  0.001  0.047  0.072
   37  0.000  0.068  0.000  0.068
   38  0.017  0.125  0.000  0.143
tot    0.196  0.227  0.346  0.769
 
band    14 # energy   -6.19541128 # occ.  2.00000000
 
ion      s      p      d    tot
    1  0.000  0.001  0.004  0.005
    2  0.001  0.001  0.005  0.006
    3  0.009  0.001  0.004  0.015
    4  0.001  0.001  0.005  0.006
    5  0.000  0.001  0.010  0.012
    6  0.005  0.001  0.004  0.009
    7  0.009  0.001  0.004  0.015
    8  0.005  0.001  0.004  0.009
    9  0.000  0.000  0.009  0.009
   10  0.000  0.001  0.050  0.051
   11  0.017  0.001  0.020  0.038
   12  0.007  0.002  0.019  0.027
   13  0.017  0.001  0.020  0.038
   14  0.000  0.000  0.050  0.050
   15  0.002  0.000  0.020  0.022
   16  0.007  0.002  0.019  0.028
   17  0.002  0.000  0.020  0.022
   18  0.000  0.001  0.012  0.013
   19  0.004  0.000  0.018  0.022
   20  0.000  0.000  0.078  0.079
   21  0.016  0.001  0.024  0.041
   22  0.004  0.001  0.018  0.023
   23  0.016  0.001  0.024  0.041
   24  0.000  0.001  0.034  0.035
   25  0.000  0.001  0.010  0.010
   26  0.004  0.000  0.018  0.022
   27  0.004  0.001  0.019  0.023
   28  0.000  0.000  0.007  0.007
   29  0.003  0.001  0.005  0.008
   30  0.009  0.001  0.005  0.015
   31  0.003  0.001  0.005  0.008
   32  0.001  0.001  0.004  0.006
   33  0.009  0.001  0.005  0.015
   34  0.001  0.001  0.004  0.006
   35  0.000  0.000  0.002  0.003
   36  0.000  0.003  0.008  0.011
   37  0.000  0.000  0.000  0.000
   38  0.000  0.000  0.000  0.000
tot    0.153  0.031  0.567  0.750
 
band    15 # energy   -6.19540750 # occ.  2.00000000
 
ion      s      p      d    tot
    1  0.000  0.001  0.004  0.005
    2  0.009  0.001  0.004  0.014
    3  0.001  0.000  0.004  0.005
    4  0.009  0.001  0.004  0.014
    5  0.000  0.001  0.010  0.012
    6  0.005  0.001  0.005  0.011
    7  0.001  0.000  0.004  0.005
    8  0.005  0.001  0.005  0.011
    9  0.000  0.000  0.009  0.009
   10  0.009  0.002  0.009  0.020
   11  0.006  0.000  0.040  0.046
   12  0.002  0.001  0.040  0.043
   13  0.006  0.000  0.040  0.046
   14  0.022  0.001  0.011  0.034
   15  0.001  0.001  0.014  0.016
   16  0.002  0.001  0.040  0.043
   17  0.001  0.001  0.014  0.016
   18  0.002  0.000  0.023  0.025
   19  0.001  0.001  0.012  0.014
   20  0.021  0.001  0.006  0.029
   21  0.005  0.000  0.061  0.066
   22  0.001  0.001  0.029  0.031
   23  0.005  0.000  0.060  0.066
   24  0.005  0.001  0.013  0.019
   25  0.005  0.000  0.021  0.026
   26  0.001  0.001  0.012  0.014
   27  0.001  0.001  0.029  0.031
   28  0.000  0.000  0.007  0.007
   29  0.006  0.001  0.004  0.011
   30  0.000  0.000  0.004  0.004
   31  0.006  0.001  0.004  0.011
   32  0.007  0.001  0.005  0.013
   33  0.000  0.000  0.004  0.004
   34  0.007  0.001  0.005  0.013
   35  0.000  0.000  0.002  0.003
   36  0.000  0.003  0.008  0.011
   37  0.000  0.000  0.000  0.000
   38  0.000  0.000  0.000  0.000
tot    0.153  0.031  0.567  0.750
 
band    16 # energy   -6.19211995 # occ.  2.00000000
 
ion      s      p      d    tot
    1  0.017  0.002  0.002  0.021
    2  0.000  0.001  0.008  0.008
    3  0.000  0.001  0.008  0.008
    4  0.000  0.001  0.008  0.008
    5  0.000  0.000  0.002  0.002
    6  0.000  0.001  0.008  0.008
    7  0.000  0.001  0.008  0.008
    8  0.000  0.001  0.008  0.008
    9  0.013  0.001  0.000  0.014
   10  0.010  0.002  0.012  0.023
   11  0.004  0.000  0.041  0.045
   12  0.010  0.002  0.012  0.023
   13  0.004  0.000  0.041  0.045
   14  0.004  0.000  0.040  0.045
   15  0.002  0.001  0.026  0.029
   16  0.010  0.002  0.012  0.023
   17  0.002  0.001  0.026  0.029
   18  0.002  0.001  0.026  0.028
   19  0.005  0.001  0.009  0.015
   20  0.000  0.000  0.051  0.051
   21  0.000  0.000  0.051  0.051
   22  0.011  0.001  0.024  0.036
   23  0.000  0.000  0.051  0.051
   24  0.011  0.001  0.024  0.037
   25  0.005  0.001  0.008  0.014
   26  0.005  0.001  0.009  0.015
   27  0.011  0.001  0.024  0.036
   28  0.014  0.001  0.000  0.016
   29  0.000  0.000  0.007  0.007
   30  0.000  0.000  0.006  0.007
   31  0.000  0.000  0.007  0.007
   32  0.000  0.000  0.007  0.007
   33  0.000  0.000  0.006  0.007
   34  0.000  0.000  0.007  0.007
   35  0.004  0.001  0.004  0.009
   36  0.001  0.000  0.003  0.004
   37  0.000  0.001  0.000  0.001
   38  0.000  0.001  0.000  0.001
tot    0.147  0.029  0.581  0.756
 
band    17 # energy   -6.12783282 # occ.  2.00000000
 
ion      s      p      d    tot
    1  0.000  0.001  0.015  0.015
    2  0.010  0.001  0.004  0.015
    3  0.001  0.000  0.005  0.006
    4  0.009  0.001  0.004  0.015
    5  0.000  0.000  0.006  0.006
    6  0.003  0.001  0.005  0.010
    7  0.002  0.000  0.005  0.007
    8  0.005  0.001  0.005  0.011
    9  0.000  0.001  0.006  0.007
   10  0.000  0.001  0.032  0.033
   11  0.000  0.001  0.019  0.021
   12  0.008  0.000  0.021  0.030
   13  0.000  0.001  0.020  0.021
   14  0.000  0.001  0.017  0.018
   15  0.009  0.002  0.023  0.034
   16  0.007  0.000  0.023  0.030
   17  0.011  0.002  0.017  0.030
   18  0.000  0.000  0.061  0.061
   19  0.014  0.001  0.023  0.038
   20  0.000  0.002  0.021  0.022
   21  0.000  0.001  0.024  0.025
   22  0.018  0.001  0.020  0.039
   23  0.000  0.001  0.023  0.024
   24  0.000  0.001  0.030  0.031
   25  0.000  0.000  0.068  0.068
   26  0.016  0.001  0.016  0.033
   27  0.016  0.001  0.021  0.038
   28  0.000  0.001  0.005  0.006
   29  0.005  0.001  0.003  0.010
   30  0.000  0.000  0.005  0.005
   31  0.005  0.001  0.004  0.009
   32  0.004  0.001  0.003  0.008
   33  0.000  0.000  0.005  0.006
   34  0.005  0.001  0.003  0.008
   35  0.000  0.001  0.008  0.009
   36  0.000  0.000  0.003  0.003
   37  0.000  0.000  0.000  0.000
   38  0.000  0.000  0.000  0.000
tot    0.148  0.028  0.574  0.751
 
band    18 # energy   -6.12783234 # occ.  2.00000000
 
ion      s      p      d    tot
    1  0.000  0.001  0.015  0.015
    2  0.000  0.000  0.005  0.006
    3  0.009  0.001  0.005  0.015
    4  0.001  0.001  0.005  0.006
    5  0.000  0.000  0.006  0.006
    6  0.006  0.001  0.004  0.012
    7  0.008  0.001  0.005  0.014
    8  0.005  0.001  0.005  0.010
    9  0.000  0.001  0.006  0.007
   10  0.010  0.000  0.018  0.029
   11  0.000  0.001  0.018  0.019
   12  0.002  0.001  0.030  0.032
   13  0.000  0.001  0.018  0.019
   14  0.000  0.001  0.020  0.022
   15  0.004  0.001  0.044  0.049
   16  0.003  0.000  0.028  0.032
   17  0.003  0.001  0.050  0.053
   18  0.013  0.002  0.007  0.022
   19  0.006  0.001  0.048  0.055
   20  0.000  0.000  0.025  0.025
   21  0.000  0.001  0.021  0.023
   22  0.004  0.001  0.027  0.033
   23  0.000  0.001  0.022  0.023
   24  0.022  0.001  0.018  0.041
   25  0.019  0.001  0.004  0.025
   26  0.004  0.000  0.055  0.059
   27  0.007  0.001  0.026  0.034
   28  0.000  0.001  0.005  0.006
   29  0.001  0.000  0.004  0.006
   30  0.007  0.001  0.003  0.010
   31  0.002  0.000  0.004  0.006
   32  0.002  0.001  0.005  0.008
   33  0.006  0.001  0.002  0.010
   34  0.001  0.001  0.005  0.007
   35  0.000  0.001  0.008  0.009
   36  0.000  0.000  0.003  0.003
   37  0.000  0.000  0.000  0.000
   38  0.000  0.000  0.000  0.000
tot    0.148  0.028  0.574  0.751
 
band    19 # energy   -6.01740321 # occ.  2.00000000
 
ion      s      p      d    tot
    1  0.010  0.000  0.001  0.011
    2  0.000  0.000  0.009  0.009
    3  0.000  0.000  0.009  0.009
    4  0.000  0.000  0.009  0.009
    5  0.015  0.001  0.001  0.017
    6  0.000  0.000  0.009  0.009
    7  0.000  0.000  0.009  0.009
    8  0.000  0.000  0.009  0.009
    9  0.000  0.000  0.002  0.002
   10  0.000  0.000  0.027  0.028
   11  0.002  0.001  0.024  0.027
   12  0.000  0.000  0.027  0.028
   13  0.002  0.001  0.024  0.027
   14  0.002  0.001  0.024  0.027
   15  0.001  0.000  0.017  0.019
   16  0.000  0.000  0.027  0.028
   17  0.001  0.000  0.017  0.019
   18  0.001  0.000  0.017  0.019
   19  0.003  0.000  0.040  0.043
   20  0.010  0.000  0.007  0.017
   21  0.010  0.000  0.007  0.017
   22  0.002  0.000  0.022  0.024
   23  0.010  0.000  0.007  0.017
   24  0.002  0.000  0.022  0.024
   25  0.003  0.000  0.040  0.043
   26  0.003  0.000  0.040  0.043
   27  0.002  0.000  0.022  0.024
   28  0.002  0.000  0.007  0.009
   29  0.001  0.000  0.008  0.009
   30  0.001  0.000  0.008  0.009
   31  0.001  0.000  0.008  0.009
   32  0.001  0.000  0.008  0.009
   33  0.001  0.000  0.008  0.009
   34  0.001  0.000  0.008  0.009
   35  0.002  0.000  0.000  0.003
   36  0.002  0.010  0.032  0.044
   37  0.002  0.050  0.000  0.052
   38  0.007  0.074  0.000  0.081
tot    0.097  0.148  0.556  0.801
 
band    20 # energy   -5.87405172 # occ.  2.00000000
 
ion      s      p      d    tot
    1  0.000  0.000  0.003  0.003
    2  0.000  0.000  0.001  0.002
    3  0.001  0.000  0.001  0.003
    4  0.000  0.000  0.001  0.002
    5  0.000  0.000  0.003  0.003
    6  0.001  0.000  0.001  0.002
    7  0.001  0.000  0.001  0.003
    8  0.001  0.000  0.001  0.002
    9  0.000  0.000  0.001  0.001
   10  0.000  0.000  0.004  0.004
   11  0.000  0.000  0.001  0.001
   12  0.000  0.000  0.003  0.003
   13  0.000  0.000  0.001  0.001
   14  0.000  0.000  0.002  0.002
   15  0.000  0.000  0.001  0.002
   16  0.000  0.000  0.003  0.003
   17  0.000  0.000  0.001  0.002
   18  0.002  0.000  0.001  0.003
   19  0.000  0.000  0.008  0.008
   20  0.000  0.000  0.011  0.011
   21  0.000  0.000  0.005  0.005
   22  0.000  0.000  0.002  0.002
   23  0.000  0.000  0.005  0.005
   24  0.000  0.000  0.001  0.002
   25  0.000  0.000  0.001  0.001
   26  0.000  0.000  0.008  0.008
   27  0.000  0.000  0.002  0.002
   28  0.000  0.000  0.011  0.012
   29  0.015  0.001  0.010  0.026
   30  0.001  0.001  0.009  0.010
   31  0.015  0.001  0.010  0.026
   32  0.010  0.001  0.007  0.018
   33  0.001  0.001  0.009  0.010
   34  0.010  0.001  0.007  0.018
   35  0.000  0.000  0.016  0.017
   36  0.000  0.006  0.037  0.043
   37  0.000  0.135  0.000  0.135
   38  0.000  0.280  0.000  0.280
tot    0.060  0.430  0.190  0.680
 
band    21 # energy   -5.87399596 # occ.  2.00000000
 
ion      s      p      d    tot
    1  0.000  0.000  0.003  0.003
    2  0.001  0.000  0.001  0.003
    3  0.000  0.000  0.001  0.001
    4  0.001  0.000  0.001  0.003
    5  0.000  0.000  0.003  0.003
    6  0.001  0.000  0.001  0.002
    7  0.000  0.000  0.001  0.001
    8  0.001  0.000  0.001  0.002
    9  0.000  0.000  0.001  0.001
   10  0.000  0.000  0.002  0.003
   11  0.000  0.000  0.002  0.002
   12  0.000  0.000  0.003  0.004
   13  0.000  0.000  0.002  0.002
   14  0.000  0.000  0.000  0.000
   15  0.001  0.000  0.001  0.002
   16  0.000  0.000  0.003  0.004