PROCAR new format
# of k-points:   10         # of bands:  252         # of ions:   38

 k-point     1 :    0.00000000 0.00000000 0.00000000     weight = 0.01562500

band     1 # energy  -18.12934004 # occ.  2.00000000
 
ion      s      p      d    tot
    1  0.000  0.000  0.000  0.000
    2  0.000  0.000  0.000  0.000
    3  0.000  0.000  0.000  0.000
    4  0.000  0.000  0.000  0.000
    5  0.000  0.000  0.000  0.000
    6  0.000  0.000  0.000  0.000
    7  0.000  0.000  0.000  0.000
    8  0.000  0.000  0.000  0.000
    9  0.000  0.000  0.000  0.000
   10  0.000  0.000  0.000  0.000
   11  0.000  0.000  0.000  0.000
   12  0.000  0.000  0.000  0.000
   13  0.000  0.000  0.000  0.000
   14  0.000  0.000  0.000  0.000
   15  0.000  0.000  0.000  0.000
   16  0.000  0.000  0.000  0.000
   17  0.000  0.000  0.000  0.000
   18  0.000  0.000  0.000  0.000
   19  0.000  0.000  0.000  0.000
   20  0.000  0.000  0.000  0.000
   21  0.000  0.000  0.000  0.000
   22  0.000  0.000  0.000  0.000
   23  0.000  0.000  0.000  0.000
   24  0.000  0.000  0.000  0.000
   25  0.000  0.000  0.000  0.000
   26  0.000  0.000  0.000  0.000
   27  0.000  0.000  0.000  0.000
   28  0.000  0.000  0.000  0.000
   29  0.000  0.000  0.000  0.000
   30  0.000  0.000  0.000  0.000
   31  0.000  0.000  0.000  0.000
   32  0.000  0.000  0.000  0.000
   33  0.000  0.000  0.000  0.000
   34  0.000  0.000  0.000  0.000
   35  0.000  0.000  0.000  0.000
   36  0.008  0.011  0.009  0.028
   37  0.734  0.018  0.000  0.752
   38  0.120  0.024  0.000  0.144
tot    0.863  0.053  0.009  0.926
 
band     2 # energy   -6.74202632 # occ.  2.00000000
 
ion      s      p      d    tot
    1  0.000  0.000  0.000  0.000
    2  0.000  0.000  0.000  0.000
    3  0.000  0.000  0.000  0.000
    4  0.000  0.000  0.000  0.000
    5  0.000  0.000  0.000  0.000
    6  0.000  0.000  0.000  0.000
    7  0.000  0.000  0.000  0.000
    8  0.000  0.000  0.000  0.000
    9  0.000  0.000  0.000  0.000
   10  0.001  0.000  0.000  0.001
   11  0.000  0.000  0.000  0.000
   12  0.001  0.000  0.000  0.001
   13  0.000  0.000  0.000  0.000
   14  0.000  0.000  0.000  0.000
   15  0.000  0.000  0.000  0.000
   16  0.001  0.000  0.000  0.001
   17  0.000  0.000  0.000  0.000
   18  0.000  0.000  0.000  0.000
   19  0.001  0.000  0.000  0.001
   20  0.003  0.000  0.001  0.005
   21  0.003  0.000  0.001  0.005
   22  0.001  0.000  0.000  0.001
   23  0.003  0.000  0.001  0.005
   24  0.001  0.000  0.000  0.001
   25  0.001  0.000  0.000  0.001
   26  0.001  0.000  0.000  0.001
   27  0.001  0.000  0.000  0.001
   28  0.001  0.000  0.000  0.001
   29  0.002  0.000  0.001  0.004
   30  0.002  0.000  0.001  0.004
   31  0.002  0.000  0.001  0.004
   32  0.002  0.000  0.001  0.004
   33  0.002  0.000  0.001  0.004
   34  0.002  0.000  0.001  0.004
   35  0.001  0.000  0.000  0.001
   36  0.076  0.030  0.069  0.174
   37  0.023  0.466  0.000  0.489
   38  0.160  0.016  0.000  0.176
tot    0.291  0.515  0.083  0.889
 
band     3 # energy   -6.14049933 # occ.  2.00000000
 
ion      s      p      d    tot
    1  0.006  0.001  0.000  0.007
    2  0.006  0.001  0.000  0.007
    3  0.006  0.001  0.000  0.007
    4  0.006  0.001  0.000  0.007
    5  0.006  0.001  0.000  0.007
    6  0.006  0.001  0.000  0.007
    7  0.006  0.001  0.000  0.007
    8  0.006  0.001  0.000  0.007
    9  0.006  0.001  0.000  0.007
   10  0.023  0.000  0.000  0.024
   11  0.024  0.000  0.000  0.025
   12  0.023  0.000  0.000  0.024
   13  0.024  0.000  0.000  0.025
   14  0.024  0.000  0.000  0.025
   15  0.024  0.000  0.000  0.025
   16  0.023  0.000  0.000  0.024
   17  0.024  0.000  0.000  0.025
   18  0.024  0.000  0.000  0.025
   19  0.021  0.000  0.000  0.022
   20  0.020  0.000  0.000  0.021
   21  0.020  0.000  0.000  0.021
   22  0.022  0.000  0.000  0.023
   23  0.020  0.000  0.000  0.021
   24  0.022  0.000  0.000  0.023
   25  0.021  0.000  0.000  0.022
   26  0.021  0.000  0.000  0.022
   27  0.022  0.000  0.000  0.023
   28  0.005  0.001  0.000  0.005
   29  0.004  0.001  0.000  0.005
   30  0.004  0.001  0.000  0.005
   31  0.004  0.001  0.000  0.005
   32  0.004  0.001  0.000  0.005
   33  0.004  0.001  0.000  0.005
   34  0.004  0.001  0.000  0.005
   35  0.005  0.001  0.000  0.005
   36  0.000  0.005  0.004  0.009
   37  0.002  0.024  0.000  0.026
   38  0.008  0.001  0.000  0.009
tot    0.506  0.042  0.014  0.562
 
band     4 # energy   -5.28048931 # occ.  2.00000000
 
ion      s      p      d    tot
    1  0.008  0.000  0.000  0.008
    2  0.007  0.000  0.000  0.008
    3  0.007  0.000  0.000  0.008
    4  0.007  0.000  0.000  0.008
    5  0.007  0.000  0.000  0.008
    6  0.007  0.000  0.000  0.008
    7  0.007  0.000  0.000  0.008
    8  0.007  0.000  0.000  0.008
    9  0.007  0.000  0.000  0.008
   10  0.011  0.001  0.015  0.027
   11  0.010  0.001  0.016  0.027
   12  0.011  0.001  0.015  0.027
   13  0.010  0.001  0.016  0.027
   14  0.010  0.001  0.016  0.027
   15  0.009  0.001  0.016  0.027
   16  0.011  0.001  0.015  0.027
   17  0.009  0.001  0.016  0.027
   18  0.009  0.001  0.016  0.027
   19  0.013  0.001  0.019  0.033
   20  0.012  0.001  0.020  0.033
   21  0.012  0.001  0.020  0.033
   22  0.014  0.001  0.019  0.034
   23  0.012  0.001  0.020  0.033
   24  0.014  0.001  0.019  0.034
   25  0.013  0.001  0.019  0.033
   26  0.013  0.001  0.019  0.033
   27  0.014  0.001  0.019  0.034
   28  0.006  0.000  0.000  0.007
   29  0.005  0.000  0.000  0.006
   30  0.005  0.000  0.000  0.006
   31  0.005  0.000  0.000  0.006
   32  0.005  0.000  0.000  0.006
   33  0.005  0.000  0.000  0.006
   34  0.005  0.000  0.000  0.006
   35  0.006  0.000  0.000  0.007
   36  0.001  0.002  0.001  0.004
   37  0.001  0.004  0.000  0.005
   38  0.001  0.000  0.000  0.001
tot    0.320  0.029  0.320  0.670
 
band     5 # energy   -5.00204880 # occ.  2.00000000
 
ion      s      p      d    tot
    1  0.018  0.000  0.026  0.044
    2  0.017  0.000  0.027  0.044
    3  0.017  0.000  0.027  0.044
    4  0.017  0.000  0.027  0.044
    5  0.016  0.000  0.028  0.044
    6  0.017  0.000  0.027  0.044
    7  0.017  0.000  0.027  0.044
    8  0.017  0.000  0.027  0.044
    9  0.017  0.000  0.027  0.044
   10  0.000  0.001  0.020  0.021
   11  0.001  0.001  0.022  0.024
   12  0.000  0.001  0.020  0.021
   13  0.001  0.001  0.022  0.024
   14  0.001  0.001  0.022  0.024
   15  0.001  0.001  0.022  0.024
   16  0.000  0.001  0.020  0.021
   17  0.001  0.001  0.022  0.024
   18  0.001  0.001  0.023  0.024
   19  0.000  0.000  0.006  0.006
   20  0.000  0.000  0.006  0.006
   21  0.000  0.000  0.006  0.006
   22  0.000  0.000  0.010  0.011
   23  0.000  0.000  0.006  0.006
   24  0.000  0.000  0.010  0.011
   25  0.000  0.000  0.006  0.006
   26  0.000  0.000  0.006  0.006
   27  0.000  0.000  0.010  0.011
   28  0.006  0.000  0.005  0.011
   29  0.004  0.000  0.006  0.010
   30  0.004  0.000  0.006  0.010
   31  0.004  0.000  0.006  0.010
   32  0.004  0.000  0.006  0.010
   33  0.004  0.000  0.006  0.010
   34  0.004  0.000  0.006  0.010
   35  0.006  0.000  0.006  0.013
   36  0.001  0.000  0.002  0.003
   37  0.000  0.001  0.000  0.002
   38  0.000  0.000  0.000  0.000
tot    0.198  0.008  0.553  0.760
 
band     6 # energy   -4.89300325 # occ.  2.00000000
 
ion      s      p      d    tot
    1  0.000  0.000  0.002  0.003
    2  0.000  0.000  0.005  0.006
    3  0.000  0.000  0.005  0.006
    4  0.000  0.000  0.005  0.006
    5  0.002  0.001  0.001  0.003
    6  0.000  0.000  0.005  0.006
    7  0.000  0.000  0.005  0.006
    8  0.000  0.000  0.005  0.006
    9  0.003  0.001  0.008  0.012
   10  0.000  0.000  0.049  0.049
   11  0.012  0.001  0.007  0.020
   12  0.000  0.000  0.048  0.049
   13  0.012  0.001  0.007  0.020
   14  0.011  0.001  0.007  0.020
   15  0.012  0.000  0.058  0.071
   16  0.000  0.000  0.048  0.049
   17  0.012  0.000  0.058  0.070
   18  0.012  0.000  0.059  0.071
   19  0.002  0.000  0.041  0.043
   20  0.011  0.001  0.021  0.033
   21  0.011  0.001  0.021  0.033
   22  0.003  0.001  0.016  0.020
   23  0.011  0.001  0.021  0.033
   24  0.003  0.001  0.016  0.020
   25  0.002  0.000  0.040  0.042
   26  0.002  0.000  0.041  0.043
   27  0.003  0.001  0.016  0.020
   28  0.003  0.000  0.003  0.006
   29  0.000  0.000  0.006  0.006
   30  0.000  0.000  0.006  0.006
   31  0.000  0.000  0.006  0.006
   32  0.000  0.000  0.006  0.006
   33  0.000  0.000  0.006  0.006
   34  0.000  0.000  0.006  0.006
   35  0.000  0.000  0.000  0.000
   36  0.001  0.001  0.000  0.003
   37  0.000  0.001  0.000  0.001
   38  0.000  0.000  0.000  0.000
tot    0.129  0.019  0.653  0.801
 
band     7 # energy   -4.88885279 # occ.  2.00000000
 
ion      s      p      d    tot
    1  0.000  0.000  0.000  0.000
    2  0.000  0.000  0.004  0.004
    3  0.002  0.001  0.005  0.009
    4  0.001  0.000  0.004  0.005
    5  0.000  0.000  0.009  0.009
    6  0.001  0.000  0.003  0.004
    7  0.002  0.001  0.006  0.009
    8  0.000  0.000  0.003  0.003
    9  0.000  0.000  0.007  0.008
   10  0.000  0.000  0.024  0.025
   11  0.008  0.000  0.057  0.065
   12  0.000  0.001  0.029  0.030
   13  0.004  0.000  0.073  0.077
   14  0.021  0.001  0.003  0.025
   15  0.007  0.001  0.027  0.036
   16  0.000  0.001  0.029  0.029
   17  0.003  0.001  0.027  0.031
   18  0.023  0.000  0.029  0.052
   19  0.002  0.000  0.040  0.042
   20  0.007  0.000  0.032  0.039
   21  0.001  0.001  0.012  0.014
   22  0.005  0.001  0.053  0.058
   23  0.002  0.001  0.016  0.019
   24  0.025  0.001  0.013  0.039
   25  0.005  0.001  0.011  0.017
   26  0.001  0.000  0.048  0.049
   27  0.010  0.001  0.043  0.054
   28  0.000  0.000  0.003  0.003
   29  0.002  0.000  0.005  0.007
   30  0.000  0.000  0.002  0.002
   31  0.002  0.000  0.005  0.007
   32  0.002  0.000  0.003  0.005
   33  0.000  0.000  0.003  0.003
   34  0.002  0.001  0.004  0.006
   35  0.000  0.000  0.010  0.010
   36  0.000  0.000  0.000  0.000
   37  0.000  0.000  0.000  0.000
   38  0.000  0.000  0.000  0.000
tot    0.138  0.018  0.642  0.797
 
band     8 # energy   -4.88883475 # occ.  2.00000000
 
ion      s      p      d    tot
    1  0.000  0.000  0.000  0.000
    2  0.002  0.001  0.005  0.007
    3  0.000  0.000  0.003  0.003
    4  0.002  0.001  0.004  0.006
    5  0.000  0.000  0.009  0.009
    6  0.001  0.000  0.005  0.007
    7  0.000  0.000  0.003  0.003
    8  0.002  0.001  0.006  0.008
    9  0.000  0.000  0.007  0.008
   10  0.000  0.001  0.029  0.030
   11  0.014  0.001  0.032  0.046
   12  0.000  0.000  0.026  0.027
   13  0.018  0.001  0.016  0.035
   14  0.000  0.000  0.085  0.086
   15  0.015  0.001  0.028  0.044
   16  0.000  0.000  0.027  0.027
   17  0.019  0.001  0.028  0.048
   18  0.000  0.001  0.026  0.028
   19  0.004  0.000  0.026  0.030
   20  0.000  0.001  0.009  0.011
   21  0.006  0.000  0.027  0.033
   22  0.022  0.001  0.019  0.042
   23  0.004  0.001  0.024  0.029
   24  0.000  0.001  0.061  0.062
   25  0.000  0.000  0.055  0.055
   26  0.005  0.001  0.018  0.023
   27  0.017  0.001  0.029  0.047
   28  0.000  0.000  0.003  0.003
   29  0.000  0.000  0.002  0.003
   30  0.002  0.001  0.005  0.008
   31  0.001  0.000  0.003  0.004
   32  0.001  0.000  0.004  0.005
   33  0.002  0.001  0.005  0.008
   34  0.000  0.000  0.003  0.004
   35  0.000  0.000  0.010  0.010
   36  0.000  0.000  0.000  0.000
   37  0.000  0.000  0.000  0.000
   38  0.000  0.000  0.000  0.000
tot    0.138  0.018  0.642  0.797
 
band     9 # energy   -4.88797336 # occ.  2.00000000
 
ion      s      p      d    tot
    1  0.001  0.001  0.004  0.006
    2  0.000  0.000  0.004  0.004
    3  0.000  0.000  0.004  0.004
    4  0.000  0.000  0.004  0.004
    5  0.004  0.001  0.002  0.006
    6  0.000  0.000  0.004  0.005
    7  0.000  0.000  0.004  0.004
    8  0.000  0.000  0.004  0.005
    9  0.000  0.000  0.000  0.000
   10  0.010  0.001  0.021  0.032
   11  0.002  0.000  0.047  0.049
   12  0.010  0.001  0.020  0.031
   13  0.002  0.000  0.047  0.049
   14  0.003  0.000  0.046  0.049
   15  0.002  0.001  0.018  0.022
   16  0.010  0.001  0.020  0.031
   17  0.002  0.001  0.019  0.022
   18  0.002  0.001  0.018  0.021
   19  0.013  0.001  0.008  0.023
   20  0.000  0.001  0.035  0.036
   21  0.000  0.001  0.037  0.038
   22  0.008  0.000  0.070  0.078
   23  0.000  0.001  0.037  0.037
   24  0.009  0.000  0.068  0.077
   25  0.014  0.001  0.009  0.024
   26  0.013  0.001  0.008  0.023
   27  0.008  0.000  0.070  0.078
   28  0.002  0.001  0.003  0.006
   29  0.000  0.000  0.004  0.004
   30  0.000  0.000  0.004  0.005
   31  0.000  0.000  0.004  0.004
   32  0.000  0.000  0.005  0.005
   33  0.000  0.000  0.004  0.005
   34  0.000  0.000  0.005  0.005
   35  0.003  0.001  0.008  0.012
   36  0.000  0.000  0.000  0.000
   37  0.000  0.000  0.000  0.001
   38  0.000  0.000  0.000  0.000
tot    0.121  0.017  0.668  0.806
 
band    10 # energy   -4.88001129 # occ.  2.00000000
 
ion      s      p      d    tot
    1  0.000  0.000  0.008  0.009
    2  0.001  0.000  0.004  0.006
    3  0.000  0.000  0.003  0.003
    4  0.001  0.001  0.006  0.007
    5  0.000  0.000  0.002  0.002
    6  0.001  0.000  0.005  0.007
    7  0.000  0.000  0.002  0.002
    8  0.001  0.000  0.004  0.004
    9  0.000  0.000  0.004  0.004
   10  0.024  0.001  0.021  0.046
   11  0.000  0.001  0.018  0.020
   12  0.012  0.001  0.035  0.048
   13  0.002  0.001  0.027  0.031
   14  0.004  0.000  0.038  0.042
   15  0.001  0.000  0.090  0.091
   16  0.002  0.001  0.047  0.050
   17  0.004  0.000  0.055  0.060
   18  0.009  0.000  0.015  0.024
   19  0.001  0.001  0.017  0.019
   20  0.016  0.001  0.011  0.027
   21  0.008  0.001  0.035  0.044
   22  0.000  0.000  0.038  0.038
   23  0.001  0.000  0.057  0.058
   24  0.000  0.000  0.027  0.027
   25  0.012  0.001  0.027  0.039
   26  0.006  0.001  0.021  0.028
   27  0.000  0.001  0.046  0.047
   28  0.000  0.000  0.004  0.004
   29  0.000  0.000  0.004  0.004
   30  0.001  0.000  0.004  0.006
   31  0.000  0.000  0.002  0.002
   32  0.000  0.000  0.002  0.002
   33  0.001  0.000  0.004  0.005
   34  0.001  0.000  0.002  0.003
   35  0.000  0.000  0.002  0.002
   36  0.000  0.000  0.001  0.001
   37  0.000  0.000  0.000  0.000
   38  0.000  0.000  0.000  0.000
tot    0.110  0.015  0.686  0.811
 
band    11 # energy   -4.88000531 # occ.  2.00000000
 
ion      s      p      d    tot
    1  0.000  0.000  0.008  0.009
    2  0.000  0.000  0.004  0.004
    3  0.001  0.000  0.005  0.007
    4  0.000  0.000  0.002  0.003
    5  0.000  0.000  0.002  0.002
    6  0.000  0.000  0.003  0.003
    7  0.001  0.001  0.006  0.007
    8  0.001  0.000  0.004  0.005
    9  0.000  0.000  0.004  0.004
   10  0.001  0.001  0.048  0.050
   11  0.004  0.000  0.037  0.042
   12  0.013  0.001  0.034  0.048
   13  0.002  0.001  0.028  0.031
   14  0.000  0.001  0.017  0.019
   15  0.009  0.000  0.017  0.026
   16  0.024  0.001  0.022  0.046
   17  0.005  0.000  0.051  0.057
   18  0.001  0.000  0.092  0.092
   19  0.011  0.001  0.026  0.038
   20  0.001  0.000  0.058  0.059
   21  0.009  0.001  0.033  0.042
   22  0.000  0.000  0.036  0.037
   23  0.015  0.001  0.012  0.028
   24  0.000  0.001  0.047  0.047
   25  0.001  0.001  0.016  0.018
   26  0.006  0.001  0.022  0.029
   27  0.000  0.000  0.028  0.028
   28  0.000  0.000  0.004  0.004
   29  0.001  0.000  0.002  0.003
   30  0.000  0.000  0.002  0.002
   31  0.001  0.000  0.004  0.005
   32  0.001  0.000  0.004  0.006
   33  0.000  0.000  0.002  0.002
   34  0.000  0.000  0.004  0.004
   35  0.000  0.000  0.002  0.002
   36  0.000  0.000  0.001  0.001
   37  0.000  0.000  0.000  0.000
   38  0.000  0.000  0.000  0.000
tot    0.110  0.015  0.686  0.811
 
band    12 # energy   -4.86527681 # occ.  2.00000000
 
ion      s      p      d    tot
    1  0.000  0.001  0.016  0.017
    2  0.001  0.000  0.010  0.011
    3  0.001  0.000  0.010  0.011
    4  0.001  0.000  0.010  0.011
    5  0.000  0.000  0.001  0.002
    6  0.001  0.000  0.010  0.011
    7  0.001  0.000  0.010  0.011
    8  0.001  0.000  0.010  0.011
    9  0.009  0.000  0.005  0.014
   10  0.007  0.000  0.027  0.035
   11  0.000  0.000  0.057  0.057
   12  0.008  0.000  0.027  0.035
   13  0.000  0.000  0.056  0.057
   14  0.000  0.000  0.057  0.057
   15  0.001  0.000  0.021  0.022
   16  0.008  0.000  0.027  0.035
   17  0.001  0.000  0.021  0.022
   18  0.001  0.000  0.021  0.022
   19  0.001  0.000  0.007  0.008
   20  0.002  0.000  0.028  0.030
   21  0.002  0.000  0.028  0.031
   22  0.001  0.000  0.049  0.050
   23  0.002  0.000  0.028  0.031
   24  0.001  0.000  0.049  0.050
   25  0.001  0.000  0.007  0.008
   26  0.001  0.000  0.007  0.008
   27  0.001  0.000  0.049  0.050
   28  0.008  0.001  0.001  0.009
   29  0.002  0.000  0.014  0.016
   30  0.002  0.000  0.014  0.016
   31  0.002  0.000  0.014  0.016
   32  0.002  0.000  0.014  0.016
   33  0.002  0.000  0.014  0.016
   34  0.002  0.000  0.014  0.016
   35  0.003  0.000  0.020  0.023
   36  0.001  0.000  0.000  0.001
   37  0.000  0.000  0.000  0.000
   38  0.000  0.000  0.000  0.000
tot    0.077  0.008  0.748  0.832
 
band    13 # energy   -4.84357189 # occ.  2.00000000
 
ion      s      p      d    tot
    1  0.000  0.000  0.019  0.019
    2  0.003  0.000  0.005  0.008
    3  0.001  0.000  0.008  0.009
    4  0.003  0.000  0.005  0.009
    5  0.000  0.000  0.004  0.004
    6  0.000  0.000  0.007  0.008
    7  0.002  0.000  0.008  0.009
    8  0.000  0.000  0.007  0.007
    9  0.000  0.000  0.009  0.009
   10  0.000  0.000  0.031  0.031
   11  0.001  0.000  0.024  0.025
   12  0.000  0.000  0.034  0.034
   13  0.001  0.000  0.025  0.026
   14  0.000  0.000  0.017  0.017
   15  0.003  0.000  0.023  0.025
   16  0.000  0.000  0.033  0.034
   17  0.003  0.000  0.017  0.021
   18  0.000  0.000  0.054  0.054
   19  0.010  0.000  0.040  0.049
   20  0.000  0.000  0.087  0.088
   21  0.006  0.000  0.026  0.032
   22  0.001  0.000  0.040  0.041
   23  0.005  0.000  0.034  0.040
   24  0.000  0.000  0.008  0.009
   25  0.000  0.000  0.080  0.080
   26  0.011  0.000  0.033  0.045
   27  0.001  0.000  0.035  0.036
   28  0.000  0.000  0.013  0.014
   29  0.000  0.000  0.010  0.010
   30  0.002  0.000  0.006  0.008
   31  0.000  0.000  0.010  0.010
   32  0.002  0.001  0.005  0.008
   33  0.001  0.000  0.007  0.008
   34  0.002  0.001  0.005  0.008
   35  0.000  0.000  0.007  0.007
   36  0.000  0.000  0.000  0.001
   37  0.000  0.000  0.000  0.000
   38  0.000  0.000  0.000  0.000
tot    0.058  0.008  0.777  0.843
 
band    14 # energy   -4.84351625 # occ.  2.00000000
 
ion      s      p      d    tot
    1  0.000  0.000  0.019  0.019
    2  0.000  0.000  0.008  0.008
    3  0.002  0.000  0.006  0.008
    4  0.000  0.000  0.008  0.008
    5  0.000  0.000  0.004  0.004
    6  0.003  0.000  0.006  0.009
    7  0.001  0.000  0.006  0.008
    8  0.003  0.000  0.006  0.009
    9  0.000  0.000  0.009  0.009
   10  0.001  0.000  0.035  0.035
   11  0.000  0.000  0.020  0.020
   12  0.000  0.000  0.031  0.031
   13  0.000  0.000  0.019  0.019
   14  0.002  0.000  0.027  0.029
   15  0.001  0.000  0.040  0.041
   16  0.000  0.000  0.032  0.032
   17  0.001  0.000  0.045  0.046
   18  0.004  0.000  0.009  0.013
   19  0.004  0.000  0.063  0.067
   20  0.007  0.000  0.011  0.019
   21  0.001  0.000  0.072  0.074
   22  0.000  0.000  0.016  0.016
   23  0.002  0.000  0.064  0.066
   24  0.001  0.000  0.047  0.048
   25  0.014  0.000  0.022  0.036
   26  0.003  0.000  0.069  0.072
   27  0.000  0.000  0.020  0.021
   28  0.000  0.000  0.013  0.014
   29  0.002  0.000  0.005  0.007
   30  0.001  0.001  0.008  0.010
   31  0.002  0.000  0.004  0.007
   32  0.000  0.000  0.009  0.010
   33  0.001  0.001  0.008  0.010
   34  0.000  0.000  0.009  0.009
   35  0.000  0.000  0.007  0.007
   36  0.000  0.000  0.000  0.001
   37  0.000  0.000  0.000  0.000
   38  0.000  0.000  0.000  0.000
tot    0.058  0.008  0.777  0.843
 
band    15 # energy   -4.83750500 # occ.  2.00000000
 
ion      s      p      d    tot
    1  0.006  0.000  0.004  0.011
    2  0.000  0.000  0.011  0.011
    3  0.000  0.000  0.011  0.011
    4  0.000  0.000  0.011  0.011
    5  0.003  0.001  0.003  0.007
    6  0.000  0.000  0.011  0.011
    7  0.000  0.000  0.011  0.011
    8  0.000  0.000  0.011  0.011
    9  0.000  0.000  0.005  0.005
   10  0.001  0.000  0.038  0.039
   11  0.003  0.000  0.015  0.018
   12  0.001  0.000  0.038  0.039
   13  0.003  0.000  0.015  0.018
   14  0.003  0.000  0.015  0.018
   15  0.000  0.000  0.038  0.039
   16  0.001  0.000  0.038  0.039
   17  0.000  0.000  0.038  0.039
   18  0.000  0.000  0.038  0.039
   19  0.000  0.000  0.070  0.070
   20  0.005  0.000  0.031  0.037
   21  0.005  0.000  0.032  0.037
   22  0.005  0.000  0.013  0.019
   23  0.005  0.000  0.032  0.037
   24  0.005  0.000  0.014  0.019
   25  0.000  0.000  0.071  0.071
   26  0.000  0.000  0.070  0.070
   27  0.005  0.000  0.013  0.019
   28  0.002  0.000  0.013  0.015
   29  0.000  0.000  0.009  0.010
   30  0.000  0.000  0.009  0.010
   31  0.000  0.000  0.009  0.010
   32  0.000  0.000  0.009  0.010
   33  0.000  0.000  0.009  0.010
   34  0.000  0.000  0.009  0.010
   35  0.003  0.001  0.001  0.005
   36  0.002  0.002  0.000  0.004
   37  0.000  0.002  0.000  0.002
   38  0.001  0.000  0.000  0.001
tot    0.064  0.011  0.766  0.842
 
band    16 # energy   -4.83200085 # occ.  2.00000000
 
ion      s      p      d    tot
    1  0.000  0.000  0.006  0.006
    2  0.003  0.001  0.006  0.010
    3  0.001  0.000  0.011  0.012
    4  0.003  0.001  0.006  0.010
    5  0.000  0.000  0.017  0.018
    6  0.000  0.000  0.010  0.011
    7  0.001  0.000  0.010  0.011
    8  0.001  0.001  0.009  0.011
    9  0.000  0.000  0.012  0.012
   10  0.009  0.000  0.008  0.018
   11  0.003  0.000  0.054  0.057
   12  0.002  0.000  0.070  0.071
   13  0.002  0.000  0.059  0.061
   14  0.009  0.000  0.028  0.037
   15  0.000  0.000  0.025  0.025
   16  0.003  0.000  0.059  0.062
   17  0.000  0.000  0.020  0.020
   18  0.000  0.000  0.050  0.050
   19  0.000  0.000  0.026  0.027
   20  0.002  0.000  0.036  0.038
   21  0.000  0.000  0.028  0.028
   22  0.001  0.000  0.060  0.061
   23  0.001  0.000  0.029  0.030
   24  0.007  0.000  0.008  0.015
   25  0.001  0.000  0.023  0.024
   26  0.000  0.000  0.027  0.027
   27  0.002  0.000  0.051  0.053
   28  0.000  0.000  0.003  0.003
   29  0.000  0.000  0.006  0.006
   30  0.001  0.000  0.002  0.003
   31  0.000  0.000  0.006  0.006
   32  0.001  0.000  0.004  0.005
   33  0.001  0.000  0.002  0.003
   34  0.001  0.000  0.004  0.006
   35  0.000  0.000  0.005  0.005
   36  0.000  0.000  0.001  0.001
   37  0.000  0.000  0.000  0.000
   38  0.000  0.000  0.000  0.000
tot    0.058  0.008  0.778  0.844
 
band    17 # energy   -4.83197298 # occ.  2.00000000
 
ion      s      p      d    tot
    1  0.000  0.000  0.006  0.006
    2  0.000  0.000  0.012  0.012
    3  0.003  0.001  0.007  0.010
    4  0.000  0.000  0.011  0.012
    5  0.000  0.000  0.017  0.018
    6  0.003  0.000  0.007  0.010
    7  0.002  0.001  0.007  0.010
    8  0.002  0.000  0.008  0.011
    9  0.000  0.000  0.013  0.013
   10  0.000  0.000  0.083  0.083
   11  0.006  0.000  0.040  0.047
   12  0.007  0.000  0.022  0.029
   13  0.008  0.000  0.034  0.042
   14  0.000  0.000  0.066  0.066
   15  0.000  0.000  0.038  0.038
   16  0.006  0.000  0.032  0.039
   17  0.000  0.000  0.044  0.044
   18  0.000  0.000  0.013  0.013
   19  0.001  0.000  0.024  0.025
   20  0.000  0.000  0.026  0.026
   21  0.002  0.000  0.034  0.036
   22  0.006  0.000  0.019  0.025
   23  0.001  0.000  0.033  0.034
   24  0.000  0.000  0.071  0.071
   25  0.000  0.000  0.028  0.028
   26  0.001  0.000  0.024  0.025
   27  0.005  0.000  0.028  0.033
   28  0.000  0.000  0.003  0.003
   29  0.001  0.000  0.002  0.003
   30  0.001  0.000  0.006  0.007
   31  0.001  0.000  0.002  0.004
   32  0.000  0.000  0.004  0.004
   33  0.001  0.000  0.006  0.007
   34  0.000  0.000  0.003  0.004
   35  0.000  0.000  0.005  0.005
   36  0.000  0.000  0.001  0.001
   37  0.000  0.000  0.000  0.000
   38  0.000  0.000  0.000  0.000
tot    0.058  0.008  0.778  0.844
 
band    18 # energy   -4.78635000 # occ.  2.00000000
 
ion      s      p      d    tot
    1  0.004  0.000  0.001  0.004
    2  0.002  0.000  0.010  0.011
    3  0.002  0.000  0.010  0.011
    4  0.002  0.000  0.010  0.011
    5  0.004  0.000  0.014  0.018
    6  0.002  0.000  0.010  0.011
    7  0.002  0.000  0.010  0.011
    8  0.002  0.000  0.010  0.011
    9  0.000  0.000  0.009  0.010
   10  0.000  0.000  0.010  0.011
   11  0.002  0.000  0.025  0.027
   12  0.000  0.000  0.010  0.011
   13  0.002  0.000  0.025  0.027
   14  0.002  0.000  0.025  0.027
   15  0.004  0.000  0.011  0.015
   16  0.000  0.000  0.010  0.011
   17  0.004  0.000  0.011  0.015
   18  0.004  0.000  0.011  0.015
   19  0.001  0.000  0.014  0.015
   20  0.001  0.001  0.026  0.027
   21  0.001  0.001  0.026  0.027
   22  0.000  0.001  0.016  0.017
   23  0.001  0.001  0.026  0.027
   24  0.000  0.001  0.016  0.017
   25  0.001  0.000  0.014  0.015
   26  0.001  0.000  0.014  0.015
   27  0.000  0.001  0.016  0.017
   28  0.010  0.000  0.032  0.042
   29  0.012  0.000  0.028  0.041
   30  0.012  0.000  0.028  0.041
   31  0.012  0.000  0.028  0.041
   32  0.012  0.000  0.028  0.041
   33  0.012  0.000  0.028  0.041
   34  0.012  0.000  0.028  0.041
   35  0.021  0.000  0.025  0.046
   36  0.004  0.001  0.008  0.013
   37  0.001  0.004  0.000  0.005
   38  0.001  0.000  0.000  0.001
tot    0.151  0.013  0.625  0.790
 
band    19 # energy   -4.68442229 # occ.  2.00000000
 
ion      s      p      d    tot
    1  0.002  0.001  0.006  0.009
    2  0.000  0.000  0.010  0.010
    3  0.000  0.000  0.010  0.010
    4  0.000  0.000  0.010  0.010
    5  0.003  0.001  0.001  0.005
    6  0.000  0.000  0.010  0.010
    7  0.000  0.000  0.010  0.010
    8  0.000  0.000  0.010  0.010
    9  0.000  0.000  0.009  0.009
   10  0.000  0.001  0.043  0.044
   11  0.000  0.000  0.020  0.020
   12  0.000  0.001  0.042  0.043
   13  0.000  0.000  0.020  0.020
   14  0.000  0.000  0.020  0.020
   15  0.001  0.000  0.054  0.056
   16  0.000  0.001  0.043  0.043
   17  0.001  0.000  0.054  0.056
   18  0.001  0.000  0.054  0.056
   19  0.001  0.000  0.028  0.029
   20  0.000  0.000  0.020  0.021
   21  0.000  0.000  0.020  0.021
   22  0.001  0.001  0.063  0.064
   23  0.000  0.000  0.020  0.021
   24  0.001  0.001  0.063  0.064
   25  0.001  0.000  0.028  0.029
   26  0.001  0.000  0.028  0.029
   27  0.001  0.001  0.063  0.064
   28  0.002  0.000  0.005  0.007
   29  0.000  0.000  0.009  0.010
   30  0.000  0.000  0.009  0.010
   31  0.000  0.000  0.009  0.010
   32  0.000  0.000  0.009  0.010
   33  0.000  0.000  0.009  0.010
   34  0.000  0.000  0.009  0.010
   35  0.002  0.001  0.007  0.010
   36  0.003  0.002  0.000  0.004
   37  0.000  0.001  0.000  0.001
   38  0.000  0.000  0.000  0.000
tot    0.026  0.016  0.822  0.864
 
band    20 # energy   -4.67473519 # occ.  2.00000000
 
ion      s      p      d    tot
    1  0.000  0.001  0.015  0.015
    2  0.000  0.000  0.010  0.010
    3  0.001  0.001  0.005  0.007
    4  0.000  0.000  0.009  0.009
    5  0.000  0.000  0.001  0.001
    6  0.001  0.001  0.008  0.010
    7  0.001  0.000  0.005  0.006
    8  0.001  0.001  0.009  0.011
    9  0.000  0.001  0.014  0.015
   10  0.003  0.001  0.046  0.049
   11  0.000  0.001  0.021  0.022
   12  0.000  0.000  0.027  0.028
   13  0.000  0.000  0.018  0.018
   14  0.000  0.001  0.024  0.026
   15  0.001  0.000  0.072  0.073
   16  0.001  0.000  0.032  0.033
   17  0.000  0.000  0.086  0.086
   18  0.002  0.000  0.035  0.036
   19  0.000  0.000  0.039  0.039
   20  0.002  0.001  0.028  0.031
   21  0.000  0.000  0.004  0.005
   22  0.001  0.000  0.068  0.069
   23  0.001  0.000  0.010  0.011
   24  0.003  0.000  0.048  0.052
   25  0.000  0.001  0.021  0.021
   26  0.000  0.000  0.046  0.046
   27  0.001  0.000  0.064  0.065
   28  0.000  0.000  0.002  0.002
   29  0.000  0.000  0.008  0.009
   30  0.001  0.001  0.005  0.007
   31  0.000  0.000  0.008  0.008
   32  0.001  0.000  0.006  0.007
   33  0.001  0.001  0.005  0.007
   34  0.000  0.000  0.007  0.008
   35  0.000  0.001  0.020  0.021
   36  0.000  0.000  0.001  0.001
   37  0.000  0.000  0.000  0.000
   38  0.000  0.000  0.000  0.000
tot    0.023  0.015  0.826  0.864
 
band    21 # energy   -4.67471305 # occ.  2.00000000
 
ion      s      p      d    tot
    1  0.000  0.001  0.015  0.015
    2  0.002  0.001  0.006  0.008
    3  0.000  0.000  0.010  0.011
    4  0.002  0.001  0.007  0.009
    5  0.000  0.000  0.001  0.001
    6  0.000  0.000  0.007  0.007
    7  0.001  0.001  0.011  0.012
    8  0.001  0.000  0.006  0.006
    9  0.000  0.001  0.014  0.015
   10  0.000  0.000  0.026  0.026
   11  0.000  0.001  0.022  0.023
   12  0.002  0.000  0.042  0.045
   13  0.000  0.001  0.025  0.027
   14  0.000  0.000  0.015  0.015
   15  0.001  0.000  0.056  0.057
   16  0.002  0.000  0.038  0.040