 vasp.6.2.0 18Jan21 (build Jun 12 2021 23:27:24) complex                        
  
 executed on             LinuxIFC date 2022.05.28  01:33:47
 running on   28 total cores
 distrk:  each k-point on   28 cores,    1 groups
 distr:  one band on NCORE=   1 cores,   28 groups


--------------------------------------------------------------------------------------------------------


 INCAR:
   ISMEAR = -5
   SIGMA = 0.1
   ISPIN = 1
   EDIFF = 1.d-5
   EDIFFG = -0.01
   NSW = 0
   NELM = 150
   ENCUT = 500
   ISIF = 2
   IBRION = 2
   LREAL = Auto
   ALGO = Fast
   ICHARG = 11
   LORBIT = 10
   LCHARG = .F.
   LWAVE = .F.

 POTCAR:    PAW_PBE Ag 02Apr2005                  
 POTCAR:    PAW_PBE Fe 06Sep2000                  
 POTCAR:    PAW_PBE O 08Apr2002                   
 POTCAR:    PAW_PBE H 15Jun2001                   
 -----------------------------------------------------------------------------
|                                                                             |
|           W    W    AA    RRRRR   N    N  II  N    N   GGGG   !!!           |
|           W    W   A  A   R    R  NN   N  II  NN   N  G    G  !!!           |
|           W    W  A    A  R    R  N N  N  II  N N  N  G       !!!           |
|           W WW W  AAAAAA  RRRRR   N  N N  II  N  N N  G  GGG   !            |
|           WW  WW  A    A  R   R   N   NN  II  N   NN  G    G                |
|           W    W  A    A  R    R  N    N  II  N    N   GGGG   !!!           |
|                                                                             |
|     For optimal performance we recommend to set                             |
|       NCORE = 2 up to number-of-cores-per-socket                            |
|     NCORE specifies how many cores store one orbital (NPAR=cpu/NCORE).      |
|     This setting can greatly improve the performance of VASP for DFT.       |
|     The default, NCORE=1 might be grossly inefficient on modern             |
|     multi-core architectures or massively parallel machines. Do your        |
|     own testing! More info at https://www.vasp.at/wiki/index.php/NCORE      |
|     Unfortunately you need to use the default for GW and RPA                |
|     calculations (for HF NCORE is supported but not extensively tested      |
|     yet).                                                                   |
|                                                                             |
 -----------------------------------------------------------------------------

 POTCAR:    PAW_PBE Ag 02Apr2005                  
   VRHFIN =Ag : s1 d10                                                                              
   LEXCH  = PE                                                                                      
   EATOM  =  1037.2675 eV,   76.2370 Ry                                                             
                                                                                                    
   TITEL  = PAW_PBE Ag 02Apr2005                                                                    
   LULTRA =        F    use ultrasoft PP ?                                                          
   IUNSCR =        1    unscreen: 0-lin 1-nonlin 2-no                                               
   RPACOR =    2.000    partial core radius                                                         
   POMASS =  107.868; ZVAL   =   11.000    mass and valenz                                          
   RCORE  =    2.500    outmost cutoff radius                                                       
   RWIGS  =    2.840; RWIGS  =    1.503    wigner-seitz radius (au A)                               
   ENMAX  =  249.844; ENMIN  =  187.383 eV                                                          
   ICORE  =        3    local potential                                                             
   LCOR   =        T    correct aug charges                                                         
   LPAW   =        T    paw PP                                                                      
   EAUG   =  412.496                                                                                
   DEXC   =    0.000                                                                                
   RMAX   =    2.560    core radius for proj-oper                                                   
   RAUG   =    1.300    factor for augmentation sphere                                              
   RDEP   =    2.576    radius for radial grids                                                     
   RDEPT  =    2.072    core radius for aug-charge                                                  
                                                                                                    
   Atomic configuration                                                                             
   12 entries                                                                                       
     n  l   j            E        occ.                                                              
     1  0  0.50    -25324.9161   2.0000                                                             
     2  0  0.50     -3728.5341   2.0000                                                             
     2  1  1.50     -3344.0404   6.0000                                                             
     3  0  0.50      -683.5581   2.0000                                                             
     3  1  1.50      -557.3225   6.0000                                                             
     3  2  2.50      -358.3853  10.0000                                                             
     4  0  0.50       -95.0341   2.0000                                                             
     4  1  1.50       -58.5511   6.0000                                                             
     4  2  2.50        -7.4440  10.0000                                                             
     5  0  0.50        -4.4045   1.0000                                                             
     5  1  0.50        -1.3606   0.0000                                                             
     4  3  2.50        -1.3606   0.0000                                                             
   Description                                                                                      
     l       E           TYP  RCUT    TYP  RCUT                                                     
     2     -7.4439781     23  2.400                                                                 
     2     -8.8045607     23  2.400                                                                 
     0     -4.4044681     23  2.400                                                                 
     0      1.9520038     23  2.400                                                                 
     1     -1.3605826     23  2.500                                                                 
     1     27.2116520     23  2.500                                                                 
     3     -4.0817478     23  2.400                                                                 
  local pseudopotential read in
  partial core-charges read in
  partial kinetic energy density read in
  atomic valenz-charges read in
  non local Contribution for L=           2  read in
    real space projection operators read in
  non local Contribution for L=           2  read in
    real space projection operators read in
  non local Contribution for L=           0  read in
    real space projection operators read in
  non local Contribution for L=           0  read in
    real space projection operators read in
  non local Contribution for L=           1  read in
    real space projection operators read in
  non local Contribution for L=           1  read in
    real space projection operators read in
    PAW grid and wavefunctions read in
 
   number of l-projection  operators is LMAX  =           6
   number of lm-projection operators is LMMAX =          18
 
 POTCAR:    PAW_PBE Fe 06Sep2000                  
   VRHFIN =Fe:  d7 s1                                                                               
   LEXCH  = PE                                                                                      
   EATOM  =   594.3153 eV,   43.6809 Ry                                                             
                                                                                                    
   TITEL  = PAW_PBE Fe 06Sep2000                                                                    
   LULTRA =        F    use ultrasoft PP ?                                                          
   IUNSCR =        1    unscreen: 0-lin 1-nonlin 2-no                                               
   RPACOR =    2.000    partial core radius                                                         
   POMASS =   55.847; ZVAL   =    8.000    mass and valenz                                          
   RCORE  =    2.300    outmost cutoff radius                                                       
   RWIGS  =    2.460; RWIGS  =    1.302    wigner-seitz radius (au A)                               
   ENMAX  =  267.882; ENMIN  =  200.911 eV                                                          
   RCLOC  =    1.701    cutoff for local pot                                                        
   LCOR   =        T    correct aug charges                                                         
   LPAW   =        T    paw PP                                                                      
   EAUG   =  511.368                                                                                
   DEXC   =    0.000                                                                                
   RMAX   =    2.356    core radius for proj-oper                                                   
   RAUG   =    1.300    factor for augmentation sphere                                              
   RDEP   =    2.442    radius for radial grids                                                     
   RDEPT  =    1.890    core radius for aug-charge                                                  
                                                                                                    
   Atomic configuration                                                                             
    9 entries                                                                                       
     n  l   j            E        occ.                                                              
     1  0  0.50     -6993.8440   2.0000                                                             
     2  0  0.50      -814.6047   2.0000                                                             
     2  1  1.50      -693.3689   6.0000                                                             
     3  0  0.50       -89.4732   2.0000                                                             
     3  1  1.50       -55.6373   6.0000                                                             
     3  2  2.50        -3.8151   7.0000                                                             
     4  0  0.50        -4.2551   1.0000                                                             
     4  1  1.50        -3.4015   0.0000                                                             
     4  3  2.50        -1.3606   0.0000                                                             
   Description                                                                                      
     l       E           TYP  RCUT    TYP  RCUT                                                     
     2     -3.8151135     23  2.300                                                                 
     2     -5.1756961     23  2.300                                                                 
     0     -4.2550963     23  2.300                                                                 
     0      7.2035603     23  2.300                                                                 
     1     -2.7211652     23  2.300                                                                 
     1     18.4316424     23  2.300                                                                 
  local pseudopotential read in
  partial core-charges read in
  partial kinetic energy density read in
  atomic valenz-charges read in
  non local Contribution for L=           2  read in
    real space projection operators read in
  non local Contribution for L=           2  read in
    real space projection operators read in
  non local Contribution for L=           0  read in
    real space projection operators read in
  non local Contribution for L=           0  read in
    real space projection operators read in
  non local Contribution for L=           1  read in
    real space projection operators read in
  non local Contribution for L=           1  read in
    real space projection operators read in
    PAW grid and wavefunctions read in
 
   number of l-projection  operators is LMAX  =           6
   number of lm-projection operators is LMMAX =          18
 
 POTCAR:    PAW_PBE O 08Apr2002                   
   VRHFIN =O: s2p4                                                                                  
   LEXCH  = PE                                                                                      
   EATOM  =   432.3788 eV,   31.7789 Ry                                                             
                                                                                                    
   TITEL  = PAW_PBE O 08Apr2002                                                                     
   LULTRA =        F    use ultrasoft PP ?                                                          
   IUNSCR =        1    unscreen: 0-lin 1-nonlin 2-no                                               
   RPACOR =    1.200    partial core radius                                                         
   POMASS =   16.000; ZVAL   =    6.000    mass and valenz                                          
   RCORE  =    1.520    outmost cutoff radius                                                       
   RWIGS  =    1.550; RWIGS  =    0.820    wigner-seitz radius (au A)                               
   ENMAX  =  400.000; ENMIN  =  300.000 eV                                                          
   ICORE  =        2    local potential                                                             
   LCOR   =        T    correct aug charges                                                         
   LPAW   =        T    paw PP                                                                      
   EAUG   =  605.392                                                                                
   DEXC   =    0.000                                                                                
   RMAX   =    1.553    core radius for proj-oper                                                   
   RAUG   =    1.300    factor for augmentation sphere                                              
   RDEP   =    1.550    radius for radial grids                                                     
   RDEPT  =    1.329    core radius for aug-charge                                                  
                                                                                                    
   Atomic configuration                                                                             
    4 entries                                                                                       
     n  l   j            E        occ.                                                              
     1  0  0.50      -514.6923   2.0000                                                             
     2  0  0.50       -23.9615   2.0000                                                             
     2  1  0.50        -9.0305   4.0000                                                             
     3  2  1.50        -9.5241   0.0000                                                             
   Description                                                                                      
     l       E           TYP  RCUT    TYP  RCUT                                                     
     0    -23.9615318     23  1.200                                                                 
     0     -9.5240782     23  1.200                                                                 
     1     -9.0304911     23  1.520                                                                 
     1      8.1634956     23  1.520                                                                 
     2     -9.5240782      7  1.500                                                                 
  local pseudopotential read in
  partial core-charges read in
  partial kinetic energy density read in
  kinetic energy density of atom read in
  atomic valenz-charges read in
  non local Contribution for L=           0  read in
    real space projection operators read in
  non local Contribution for L=           0  read in
    real space projection operators read in
  non local Contribution for L=           1  read in
    real space projection operators read in
  non local Contribution for L=           1  read in
    real space projection operators read in
    PAW grid and wavefunctions read in
 
   number of l-projection  operators is LMAX  =           4
   number of lm-projection operators is LMMAX =           8
 
 POTCAR:    PAW_PBE H 15Jun2001                   
   VRHFIN =H: ultrasoft test                                                                        
   LEXCH  = PE                                                                                      
   EATOM  =    12.4884 eV,    0.9179 Ry                                                             
                                                                                                    
   TITEL  = PAW_PBE H 15Jun2001                                                                     
   LULTRA =        F    use ultrasoft PP ?                                                          
   IUNSCR =        0    unscreen: 0-lin 1-nonlin 2-no                                               
   RPACOR =    0.000    partial core radius                                                         
   POMASS =    1.000; ZVAL   =    1.000    mass and valenz                                          
   RCORE  =    1.100    outmost cutoff radius                                                       
   RWIGS  =    0.700; RWIGS  =    0.370    wigner-seitz radius (au A)                               
   ENMAX  =  250.000; ENMIN  =  200.000 eV                                                          
   RCLOC  =    0.701    cutoff for local pot                                                        
   LCOR   =        T    correct aug charges                                                         
   LPAW   =        T    paw PP                                                                      
   EAUG   =  400.000                                                                                
   RMAX   =    1.123    core radius for proj-oper                                                   
   RAUG   =    1.200    factor for augmentation sphere                                              
   RDEP   =    1.112    radius for radial grids                                                     
   RDEPT  =    0.926    core radius for aug-charge                                                  
                                                                                                    
   Atomic configuration                                                                             
    2 entries                                                                                       
     n  l   j            E        occ.                                                              
     1  0  0.50        -6.4927   1.0000                                                             
     2  1  0.50        -3.4015   0.0000                                                             
   Description                                                                                      
     l       E           TYP  RCUT    TYP  RCUT                                                     
     0     -6.4927494     23  1.100                                                                 
     0      6.8029130     23  1.100                                                                 
     1     -4.0817478     23  1.100                                                                 
  local pseudopotential read in
  atomic valenz-charges read in
  non local Contribution for L=           0  read in
    real space projection operators read in
  non local Contribution for L=           0  read in
    real space projection operators read in
  non local Contribution for L=           1  read in
    real space projection operators read in
    PAW grid and wavefunctions read in
 
   number of l-projection  operators is LMAX  =           3
   number of lm-projection operators is LMMAX =           5
 
 Optimization of the real space projectors (new method)

 maximal supplied QI-value         = 15.12
 optimisation between [QCUT,QGAM] = [ 11.34, 22.83] = [ 36.00,145.93] Ry 
 Optimized for a Real-space Cutoff    1.43 Angstroem

   l    n(q)    QCUT    max X(q) W(low)/X(q) W(high)/X(q)  e(spline) 
   2      9    11.338    53.897    0.16E-03    0.20E-03    0.28E-06
   2      9    11.338    52.416    0.16E-03    0.20E-03    0.29E-06
   0     10    11.338   122.045    0.31E-04    0.76E-04    0.15E-06
   0     10    11.338    73.629    0.30E-04    0.72E-04    0.15E-06
   1      9    11.338    15.255    0.20E-03    0.19E-04    0.17E-06
   1      9    11.338     9.562    0.16E-03    0.15E-04    0.14E-06
 Optimization of the real space projectors (new method)

 maximal supplied QI-value         = 16.25
 optimisation between [QCUT,QGAM] = [ 11.38, 22.75] = [ 36.24,144.96] Ry 
 Optimized for a Real-space Cutoff    1.39 Angstroem

   l    n(q)    QCUT    max X(q) W(low)/X(q) W(high)/X(q)  e(spline) 
   2      8    11.376    80.901    0.45E-03    0.44E-04    0.21E-06
   2      8    11.376    75.754    0.45E-03    0.45E-04    0.22E-06
   0      9    11.376    58.752    0.65E-04    0.95E-04    0.17E-06
   0      9    11.376    30.679    0.59E-04    0.87E-04    0.16E-06
   1      9    11.376    17.977    0.38E-03    0.10E-03    0.14E-06
   1      9    11.376    13.559    0.31E-03    0.90E-04    0.12E-06
 Optimization of the real space projectors (new method)

 maximal supplied QI-value         = 24.76
 optimisation between [QCUT,QGAM] = [ 11.39, 22.77] = [ 36.31,145.25] Ry 
 Optimized for a Real-space Cutoff    1.00 Angstroem

   l    n(q)    QCUT    max X(q) W(low)/X(q) W(high)/X(q)  e(spline) 
   0      7    11.387    20.381    0.39E-03    0.13E-02    0.15E-06
   0      7    11.387    15.268    0.42E-03    0.14E-02    0.17E-06
   1      6    11.387     5.964    0.41E-03    0.11E-02    0.17E-06
   1      6    11.387     5.382    0.39E-03    0.87E-03    0.15E-06
 Optimization of the real space projectors (new method)

 maximal supplied QI-value         = 34.20
 optimisation between [QCUT,QGAM] = [ 11.29, 22.57] = [ 35.68,142.71] Ry 
 Optimized for a Real-space Cutoff    1.16 Angstroem

   l    n(q)    QCUT    max X(q) W(low)/X(q) W(high)/X(q)  e(spline) 
   0      8    11.287    19.460    0.40E-03    0.73E-03    0.16E-06
   0      8    11.287    12.209    0.38E-03    0.70E-03    0.15E-06
   1      7    11.287     4.655    0.22E-03    0.25E-04    0.22E-06
  PAW_PBE Ag 02Apr2005                  :
 energy of atom  1       EATOM=-1037.2675
 kinetic energy error for atom=    0.0052 (will be added to EATOM!!)
  PAW_PBE Fe 06Sep2000                  :
 energy of atom  2       EATOM= -594.3153
 kinetic energy error for atom=    0.0026 (will be added to EATOM!!)
  PAW_PBE O 08Apr2002                   :
 energy of atom  3       EATOM= -432.3788
 kinetic energy error for atom=    0.0224 (will be added to EATOM!!)
  PAW_PBE H 15Jun2001                   :
 energy of atom  4       EATOM=  -12.4884
 kinetic energy error for atom=    0.0020 (will be added to EATOM!!)
 
 
 POSCAR: Ag-Fe-OOH
  positions in direct lattice
  velocities in cartesian coordinates
 exchange correlation table for  LEXCH =        8
   RHO(1)=    0.500       N(1)  =     2000
   RHO(2)=  100.500       N(2)  =     4000

 VTST: version 3.2, (02/03/18)

 CHAIN: initializing optimizer
 
 OPT: Using VASP Conjugate-Gradient optimizer
 CHAIN: Read ICHAIN            0
 
 POSCAR: Ag-Fe-OOH
  positions in direct lattice
  velocities in cartesian coordinates
 


--------------------------------------------------------------------------------------------------------


 ion  position               nearest neighbor table
   1  0.000  0.000  0.204-   2 2.93   8 2.93   7 2.93   6 2.93   4 2.93  12 2.93  16 2.93  10 2.93
                             3 2.93
   2  0.333  0.000  0.204-   1 2.93   8 2.93   9 2.93   3 2.93   4 2.93   5 2.93  10 2.93  17 2.93
                            11 2.93
   3  0.667  0.000  0.204-   9 2.93   2 2.93   5 2.93  11 2.93   7 2.93  18 2.93   1 2.93   6 2.93
                            12 2.93
   4  0.000  0.333  0.204-   5 2.93   6 2.93   2 2.93   1 2.93   7 2.93  13 2.93  15 2.93   9 2.93
                            10 2.93
   5  0.333  0.333  0.204-   4 2.93   3 2.93   7 2.93   2 2.93   8 2.93  14 2.93  13 2.93  11 2.93
                             6 2.93
   6  0.667  0.333  0.204-   4 2.93   9 2.93   1 2.93  15 2.93   8 2.93  12 2.93   3 2.93   5 2.93
                            14 2.93
   7  0.000  0.667  0.204-   8 2.93   1 2.93   5 2.93   3 2.93   4 2.93  16 2.93  18 2.93  13 2.93
                             9 2.93
   8  0.333  0.667  0.204-   7 2.93   1 2.93   2 2.93   9 2.93   5 2.93  16 2.93   6 2.93  17 2.93
                            14 2.93
   9  0.667  0.667  0.204-   3 2.93   2 2.93   8 2.93   6 2.93  17 2.93   4 2.93  15 2.93   7 2.93
                            18 2.93
  10  0.111  0.111  0.296-  20 2.92  19 2.93  26 2.93  12 2.93  16 2.93  15 2.93  17 2.93  13 2.93
                            11 2.93   2 2.93   1 2.93   4 2.93
  11  0.444  0.111  0.296-  21 2.90  20 2.90  27 2.92  14 2.93  17 2.93  18 2.93   3 2.93  12 2.93
                            13 2.93  10 2.93   5 2.93   2 2.93
  12  0.778  0.111  0.296-  21 2.92  25 2.93  19 2.93  10 2.93  16 2.93  18 2.93  15 2.93  11 2.93
                             1 2.93  14 2.93   6 2.93   3 2.93
  13  0.111  0.444  0.296-  20 2.90  23 2.90  22 2.92  15 2.93  14 2.93  18 2.93  10 2.93  11 2.93
                            16 2.93   4 2.93   5 2.93   7 2.93
  14  0.444  0.444  0.296-  23 2.90  21 2.90  24 2.92  13 2.93  11 2.93  16 2.93   5 2.93  12 2.93
                            17 2.93   8 2.93  15 2.93   6 2.93
  15  0.778  0.444  0.296-  24 2.92  22 2.92  19 2.93  13 2.93  10 2.93  12 2.93  17 2.93  18 2.93
                             4 2.93   6 2.93   9 2.93  14 2.93
  16  0.111  0.778  0.296-  23 2.92  26 2.93  25 2.93  18 2.93  12 2.93  10 2.93  14 2.93  17 2.93
                            13 2.93   7 2.93   8 2.93   1 2.93
  17  0.444  0.778  0.296-  27 2.92  24 2.92  26 2.93  11 2.93  10 2.93   9 2.93  18 2.93  15 2.93
                            16 2.93   2 2.93  14 2.93   8 2.93
  18  0.778  0.778  0.296-  22 2.92  27 2.92  25 2.93  16 2.93  12 2.93  13 2.93  11 2.93  17 2.93
                            15 2.93   7 2.93   3 2.93   9 2.93
  19  0.889  0.222  0.388-  28 2.91  15 2.93  10 2.93  12 2.93  24 2.93  22 2.93  26 2.93  25 2.93
                            20 2.94  21 2.94  32 2.94  31 2.94
  20  0.223  0.223  0.388-  36 2.70  31 2.89  29 2.89  13 2.90  11 2.90  21 2.91  23 2.91  10 2.92
                            27 2.94  22 2.94  19 2.94  26 2.94
  21  0.554  0.223  0.388-  36 2.70  30 2.89  32 2.89  11 2.90  14 2.90  20 2.91  23 2.91  12 2.92
                            27 2.94  24 2.94  25 2.94  19 2.94
  22  0.888  0.556  0.388-  35 2.91  18 2.92  15 2.92  33 2.92  31 2.92  13 2.92  24 2.92  27 2.92
                            25 2.93  19 2.93  23 2.94  20 2.94
  23  0.223  0.554  0.388-  36 2.70  34 2.89  33 2.89  14 2.90  13 2.90  21 2.91  20 2.91  16 2.92
                            22 2.94  24 2.94  26 2.94  25 2.94
  24  0.556  0.556  0.388-  35 2.91  15 2.92  17 2.92  32 2.92  34 2.92  14 2.92  27 2.92  22 2.92
                            19 2.93  26 2.93  23 2.94  21 2.94
  25  0.889  0.889  0.388-  28 2.91  18 2.93  16 2.93  12 2.93  22 2.93  27 2.93  26 2.93  19 2.93
                            23 2.94  21 2.94  33 2.94  30 2.94
  26  0.222  0.889  0.388-  28 2.91  17 2.93  16 2.93  10 2.93  27 2.93  24 2.93  25 2.93  19 2.93
                            23 2.94  20 2.94  34 2.94  29 2.94
  27  0.556  0.888  0.388-  35 2.91  17 2.92  18 2.92  29 2.92  30 2.92  11 2.92  24 2.92  22 2.92
                            26 2.93  25 2.93  20 2.94  21 2.94
  28  0.000  0.000  0.480-  38 2.30  26 2.91  25 2.91  19 2.91  29 2.97  34 2.97  33 2.97  32 2.97
                            31 2.97  30 2.97
  29  0.333  0.008  0.480-  38 2.29  37 2.52  31 2.86  30 2.86  36 2.87  20 2.89  27 2.92  26 2.94
                            28 2.97  35 2.97  34 3.07
  30  0.659  0.008  0.480-  37 2.41  32 2.86  29 2.86  36 2.87  21 2.89  27 2.92  25 2.94  28 2.97
                            35 2.97  33 3.07
  31  0.008  0.333  0.480-  29 2.86  33 2.86  36 2.87  20 2.89  22 2.92  19 2.94  28 2.97  35 2.97
                            32 3.07
  32  0.659  0.333  0.480-  30 2.86  34 2.86  36 2.87  21 2.89  24 2.92  19 2.94  28 2.97  35 2.97
                            31 3.07
  33  0.008  0.659  0.480-  34 2.86  31 2.86  36 2.87  23 2.89  22 2.92  25 2.94  28 2.97  35 2.97
                            30 3.07
  34  0.333  0.659  0.480-  38 2.29  33 2.86  32 2.86  36 2.87  23 2.89  24 2.92  26 2.94  28 2.97
                            35 2.97  29 3.07
  35  0.667  0.667  0.479-  24 2.91  27 2.91  22 2.91  32 2.97  30 2.97  29 2.97  34 2.97  31 2.97
                            33 2.97
  36  0.333  0.333  0.469-  37 1.64  21 2.70  20 2.70  23 2.70  31 2.87  30 2.87  33 2.87  29 2.87
                            34 2.87  32 2.87
  37  0.398  0.224  0.524-  36 1.64  30 2.41  29 2.52
  38  0.229  0.886  0.538-  39 0.97  29 2.29  34 2.29  28 2.30
  39  0.236  0.885  0.575-  38 0.97
 
  LATTYP: Found a hexagonal cell.
 ALAT       =     8.7913665772
 C/A-ratio  =     2.9469639759
  
  Lattice vectors:
  
 A1 = (  -4.3956832886,  -7.6135467898,   0.0000000000)
 A2 = (   8.7913665771,   0.0000000000,   0.0000000000)
 A3 = (   0.0000000000,   0.0000000000,  25.9078406020)


Analysis of symmetry for initial positions (statically):
=====================================================================
 Subroutine PRICEL returns:
 Original cell was already a primitive cell.
 

 Routine SETGRP: Setting up the symmetry group for a 
 hexagonal supercell.


 Subroutine GETGRP returns: Found  1 space group operations
 (whereof  1 operations were pure point group operations)
 out of a pool of 24 trial point group operations.


The static configuration has the point symmetry C_1 .


Analysis of symmetry for dynamics (positions and initial velocities):
=====================================================================
 Subroutine PRICEL returns:
 Original cell was already a primitive cell.
 

 Routine SETGRP: Setting up the symmetry group for a 
 hexagonal supercell.


 Subroutine GETGRP returns: Found  1 space group operations
 (whereof  1 operations were pure point group operations)
 out of a pool of 24 trial point group operations.


The dynamic configuration has the point symmetry C_1 .


Analysis of constrained symmetry for selective dynamics:
=====================================================================
 Subroutine PRICEL returns:
 Original cell was already a primitive cell.
 

 Routine SETGRP: Setting up the symmetry group for a 
 hexagonal supercell.


 Subroutine GETGRP returns: Found  1 space group operations
 (whereof  1 operations were pure point group operations)
 out of a pool of 24 trial point group operations.


The constrained configuration has the point symmetry C_1 .


 Subroutine INISYM returns: Found  1 space group operations
 (whereof  1 operations are pure point group operations),
 and found     1 'primitive' translations


----------------------------------------------------------------------------------------

                                     Primitive cell                                     

  volume of cell :    1734.1020

  direct lattice vectors                    reciprocal lattice vectors
     8.791366577  0.000000000  0.000000000     0.113747958 -0.065672414  0.000000000
     4.395683289  7.613546790  0.000000000     0.000000000  0.131344829  0.000000000
     0.000000000  0.000000000 25.907840602     0.000000000  0.000000000  0.038598354

  length of vectors
     8.791366577  8.791366577 25.907840602     0.131344829  0.131344829  0.038598354

  position of ions in fractional coordinates (direct lattice)
     0.000000000  0.000000000  0.203883767
     0.333333313  0.000000000  0.203883767
     0.666666627  0.000000000  0.203883767
     1.000000000  0.333333343  0.203883767
     0.333333313  0.333333343  0.203883767
     0.666666687  0.333333343  0.203883767
     1.000000000  0.666666687  0.203883767
     0.333333313  0.666666687  0.203883767
     0.666666627  0.666666687  0.203883767
     0.111111104  0.111111112  0.296238327
     0.444444448  0.111111112  0.296238327
     0.777777791  0.111111112  0.296238327
     0.111111097  0.444444448  0.296238327
     0.444444418  0.444444448  0.296238327
     0.777777791  0.444444448  0.296238327
     0.111111104  0.777777791  0.296238327
     0.444444448  0.777777791  0.296238327
     0.777777791  0.777777791  0.296238327
     0.888789545  0.222420926  0.388401807
     0.223169922  0.223169937  0.387513493
     0.553660096  0.223169937  0.387513493
     0.888210350  0.555894855  0.387997334
     0.223169937  0.553660156  0.387513493
     0.555894855  0.555894855  0.387997334
     0.888789545  0.888789545  0.388401807
     0.222420896  0.888789545  0.388401807
     0.555894795  0.888210350  0.387997334
     0.000000000  0.000000000  0.479663184
     0.333170386  0.008273592  0.479691629
     0.658555962  0.008273592  0.479691629
     0.008273592  0.333170416  0.479691629
     0.658556022  0.333170416  0.479691629
     0.008273592  0.658556022  0.479691629
     0.333170386  0.658556022  0.479691629
     0.666666627  0.666666687  0.479493422
     0.333333313  0.333333343  0.469040587
     0.398312647  0.224480157  0.523657912
     0.229367762  0.885624965  0.537561584
     0.236337928  0.885146174  0.575047085

  ion indices of the primitive-cell ions
   primitive index   ion index
                 1           1
                 2           2
                 3           3
                 4           4
                 5           5
                 6           6
                 7           7
                 8           8
                 9           9
                10          10
                11          11
                12          12
                13          13
                14          14
                15          15
                16          16
                17          17
                18          18
                19          19
                20          20
                21          21
                22          22
                23          23
                24          24
                25          25
                26          26
                27          27
                28          28
                29          29
                30          30
                31          31
                32          32
                33          33
                34          34
                35          35
                36          36
                37          37
                38          38
                39          39

----------------------------------------------------------------------------------------

 
 
 KPOINTS: Automatic mesh                          

Automatic generation of k-mesh.
 Grid dimensions read from file:
 generate k-points for:    8    8    1

 Generating k-lattice:

  Cartesian coordinates                     Fractional coordinates (reciprocal lattice)
     0.014218495 -0.008209052  0.000000000     0.125000000 -0.000000000  0.000000000
     0.000000000  0.016418104  0.000000000     0.000000000  0.125000000  0.000000000
     0.000000000  0.000000000  0.038598354     0.000000000  0.000000000  1.000000000

  Length of vectors
     0.016418104  0.016418104  0.038598354

  Shift w.r.t. Gamma in fractional coordinates (k-lattice)
     0.000000000  0.000000000  0.000000000

 TETIRR: Found    192 inequivalent tetrahedra from      384
 
 Subroutine IBZKPT returns following result:
 ===========================================
 
 Found     34 irreducible k-points:
 
 Following reciprocal coordinates:
            Coordinates               Weight
  0.000000  0.000000  0.000000      1.000000
  0.125000  0.000000  0.000000      2.000000
  0.125000  0.125000  0.000000      2.000000
  0.000000  0.125000  0.000000      2.000000
  0.250000  0.000000  0.000000      2.000000
  0.250000  0.250000  0.000000      2.000000
  0.000000  0.250000  0.000000      2.000000
  0.375000  0.000000  0.000000      2.000000
  0.375000  0.375000  0.000000      2.000000
  0.000000  0.375000  0.000000      2.000000
  0.500000  0.000000  0.000000      1.000000
  0.500000  0.500000  0.000000      1.000000
  0.000000  0.500000  0.000000      1.000000
  0.250000  0.125000  0.000000      2.000000
  0.125000  0.250000  0.000000      2.000000
 -0.125000  0.125000  0.000000      2.000000
  0.375000  0.125000  0.000000      2.000000
  0.250000  0.375000  0.000000      2.000000
 -0.125000  0.250000  0.000000      2.000000
  0.250000 -0.125000  0.000000      2.000000
 -0.125000 -0.375000  0.000000      2.000000
 -0.375000 -0.250000  0.000000      2.000000
  0.500000  0.125000  0.000000      2.000000
  0.375000  0.500000  0.000000      2.000000
 -0.125000  0.375000  0.000000      2.000000
  0.375000 -0.125000  0.000000      2.000000
 -0.125000  0.500000  0.000000      2.000000
  0.500000 -0.375000  0.000000      2.000000
  0.500000  0.250000  0.000000      2.000000
  0.250000  0.500000  0.000000      2.000000
 -0.250000  0.250000  0.000000      2.000000
 -0.375000  0.250000  0.000000      2.000000
  0.375000 -0.375000  0.000000      2.000000
 -0.250000  0.375000  0.000000      2.000000
 
 Following cartesian coordinates:
            Coordinates               Weight
  0.000000  0.000000  0.000000      1.000000
  0.014218 -0.008209  0.000000      2.000000
  0.014218  0.008209  0.000000      2.000000
  0.000000  0.016418  0.000000      2.000000
  0.028437 -0.016418  0.000000      2.000000
  0.028437  0.016418  0.000000      2.000000
  0.000000  0.032836  0.000000      2.000000
  0.042655 -0.024627  0.000000      2.000000
  0.042655  0.024627  0.000000      2.000000
  0.000000  0.049254  0.000000      2.000000
  0.056874 -0.032836  0.000000      1.000000
  0.056874  0.032836  0.000000      1.000000
  0.000000  0.065672  0.000000      1.000000
  0.028437 -0.000000  0.000000      2.000000
  0.014218  0.024627  0.000000      2.000000
 -0.014218  0.024627  0.000000      2.000000
  0.042655 -0.008209  0.000000      2.000000
  0.028437  0.032836  0.000000      2.000000
 -0.014218  0.041045  0.000000      2.000000
  0.028437 -0.032836  0.000000      2.000000
 -0.014218 -0.041045  0.000000      2.000000
 -0.042655 -0.008209  0.000000      2.000000
  0.056874 -0.016418  0.000000      2.000000
  0.042655  0.041045  0.000000      2.000000
 -0.014218  0.057463  0.000000      2.000000
  0.042655 -0.041045  0.000000      2.000000
 -0.014218  0.073881  0.000000      2.000000
  0.056874 -0.082091  0.000000      2.000000
  0.056874 -0.000000  0.000000      2.000000
  0.028437  0.049254  0.000000      2.000000
 -0.028437  0.049254  0.000000      2.000000
 -0.042655  0.057463  0.000000      2.000000
  0.042655 -0.073881  0.000000      2.000000
 -0.028437  0.065672  0.000000      2.000000
 


--------------------------------------------------------------------------------------------------------




 Dimension of arrays:
   k-points           NKPTS =     34   k-points in BZ     NKDIM =     34   number of bands    NBANDS=    252
   number of dos      NEDOS =    301   number of ions     NIONS =     39
   non local maximal  LDIM  =      6   non local SUM 2l+1 LMDIM =     18
   total plane-waves  NPLWV = 331776
   max r-space proj   IRMAX =   2400   max aug-charges    IRDMAX=   9606
   dimension x,y,z NGX =    48 NGY =   48 NGZ =  144
   dimension x,y,z NGXF=    96 NGYF=   96 NGZF=  288
   support grid    NGXF=    96 NGYF=   96 NGZF=  288
   ions per type =              35   1   2   1
   NGX,Y,Z   is equivalent  to a cutoff of   9.08,  9.08,  9.24 a.u.
   NGXF,Y,Z  is equivalent  to a cutoff of  18.15, 18.15, 18.48 a.u.

 SYSTEM =  unknown system                          
 POSCAR =  Ag-Fe-OOH                               

 Startparameter for this run:
   NWRITE =      2    write-flag & timer
   PREC   = normal    normal or accurate (medium, high low for compatibility)
   ISTART =      0    job   : 0-new  1-cont  2-samecut
   ICHARG =     11    charge: 1-file 2-atom 10-const
   ISPIN  =      1    spin polarized calculation?
   LNONCOLLINEAR =      F non collinear calculations
   LSORBIT =      F    spin-orbit coupling
   INIWAV =      1    electr: 0-lowe 1-rand  2-diag
   LASPH  =      F    aspherical Exc in radial PAW
   METAGGA=      F    non-selfconsistent MetaGGA calc.

 Electronic Relaxation 1
   ENCUT  =  500.0 eV  36.75 Ry    6.06 a.u.  16.03 16.03 47.24*2*pi/ulx,y,z
   ENINI  =  500.0     initial cutoff
   ENAUG  =  605.4 eV  augmentation charge cutoff
   NELM   =    150;   NELMIN=  2; NELMDL= -5     # of ELM steps 
   EDIFF  = 0.1E-04   stopping-criterion for ELM
   LREAL  =      T    real-space projection
   NLSPLINE    = F    spline interpolate recip. space projectors
   LCOMPAT=      F    compatible to vasp.4.4
   GGA_COMPAT  = T    GGA compatible to vasp.4.4-vasp.4.6
   LMAXPAW     = -100 max onsite density
   LMAXMIX     =    2 max onsite mixed and CHGCAR
   VOSKOWN=      0    Vosko Wilk Nusair interpolation
   ROPT   =   -0.00050  -0.00050  -0.00050  -0.00050
 Ionic relaxation
   EDIFFG = -.1E-01   stopping-criterion for IOM
   NSW    =      0    number of steps for IOM
   NBLOCK =      1;   KBLOCK =      1    inner block; outer block 
   IBRION =     -1    ionic relax: 0-MD 1-quasi-New 2-CG
   NFREE  =      1    steps in history (QN), initial steepest desc. (CG)
   ISIF   =      2    stress and relaxation
   IWAVPR =     10    prediction:  0-non 1-charg 2-wave 3-comb
   ISYM   =      2    0-nonsym 1-usesym 2-fastsym
   LCORR  =      T    Harris-Foulkes like correction to forces

   POTIM  = 0.5000    time-step for ionic-motion
   TEIN   =    0.0    initial temperature
   TEBEG  =    0.0;   TEEND  =   0.0 temperature during run
   SMASS  =  -3.00    Nose mass-parameter (am)
   estimated Nose-frequenzy (Omega)   =  0.10E-29 period in steps = 0.13E+47 mass=  -0.177E-26a.u.
   SCALEE = 1.0000    scale energy and forces
   NPACO  =    256;   APACO  = 16.0  distance and # of slots for P.C.
   PSTRESS=    0.0 pullay stress

  Mass of Ions in am
   POMASS = 107.87 55.85 16.00  1.00
  Ionic Valenz
   ZVAL   =  11.00  8.00  6.00  1.00
  Atomic Wigner-Seitz radii
   RWIGS  =  -1.00 -1.00 -1.00 -1.00
  virtual crystal weights 
   VCA    =   1.00  1.00  1.00  1.00
   NELECT =     406.0000    total number of electrons
   NUPDOWN=      -1.0000    fix difference up-down

 DOS related values:
   EMIN   =  10.00;   EMAX   =-10.00  energy-range for DOS
   EFERMI =   0.00
   ISMEAR =    -5;   SIGMA  =   0.10  broadening in eV -4-tet -1-fermi 0-gaus

 Electronic relaxation 2 (details)
   IALGO  =     68    algorithm
   LDIAG  =      T    sub-space diagonalisation (order eigenvalues)
   LSUBROT=      F    optimize rotation matrix (better conditioning)
   TURBO    =      0    0=normal 1=particle mesh
   IRESTART =      0    0=no restart 2=restart with 2 vectors
   NREBOOT  =      0    no. of reboots
   NMIN     =      0    reboot dimension
   EREF     =   0.00    reference energy to select bands
   IMIX   =      4    mixing-type and parameters
     AMIX     =   0.40;   BMIX     =  1.00
     AMIX_MAG =   1.60;   BMIX_MAG =  1.00
     AMIN     =   0.10
     WC   =   100.;   INIMIX=   1;  MIXPRE=   1;  MAXMIX= -45

 Intra band minimization:
   WEIMIN = 0.0000     energy-eigenvalue tresh-hold
   EBREAK =  0.99E-08  absolut break condition
   DEPER  =   0.30     relativ break condition  

   TIME   =   0.40     timestep for ELM

  volume/ion in A,a.u.               =      44.46       300.06
  Fermi-wavevector in a.u.,A,eV,Ry     =   1.009002  1.906737 13.851884  1.018085
  Thomas-Fermi vector in A             =   2.141903
 
 Write flags
   LWAVE        =      F    write WAVECAR
   LDOWNSAMPLE  =      F    k-point downsampling of WAVECAR
   LCHARG       =      F    write CHGCAR
   LVTOT        =      F    write LOCPOT, total local potential
   LVHAR        =      F    write LOCPOT, Hartree potential only
   LELF         =      F    write electronic localiz. function (ELF)
   LORBIT       =     10    0 simple, 1 ext, 2 COOP (PROOUT), +10 PAW based schemes


 Dipole corrections
   LMONO  =      F    monopole corrections only (constant potential shift)
   LDIPOL =      F    correct potential (dipole corrections)
   IDIPOL =      0    1-x, 2-y, 3-z, 4-all directions 
   EPSILON=  1.0000000 bulk dielectric constant

 Exchange correlation treatment:
   GGA     =    --    GGA type
   LEXCH   =     8    internal setting for exchange type
   VOSKOWN=      0    Vosko Wilk Nusair interpolation
   LHFCALC =     F    Hartree Fock is set to
   LHFONE  =     F    Hartree Fock one center treatment
   AEXX    =    0.0000 exact exchange contribution

 Linear response parameters
   LEPSILON=     F    determine dielectric tensor
   LRPA    =     F    only Hartree local field effects (RPA)
   LNABLA  =     F    use nabla operator in PAW spheres
   LVEL    =     F    velocity operator in full k-point grid
   LINTERFAST=   F  fast interpolation
   KINTER  =     0    interpolate to denser k-point grid
   CSHIFT  =0.1000    complex shift for real part using Kramers Kronig
   OMEGAMAX=  -1.0    maximum frequency
   DEG_THRESHOLD= 0.2000000E-02 threshold for treating states as degnerate
   RTIME   =   -0.100 relaxation time in fs
  (WPLASMAI=    0.000 imaginary part of plasma frequency in eV, 0.658/RTIME)
   DFIELD  = 0.0000000 0.0000000 0.0000000 field for delta impulse in time
 
 Orbital magnetization related:
   ORBITALMAG=     F  switch on orbital magnetization
   LCHIMAG   =     F  perturbation theory with respect to B field
   DQ        =  0.001000  dq finite difference perturbation B field
   LLRAUG    =     F  two centre corrections for induced B field



--------------------------------------------------------------------------------------------------------


 Static calculation
 charge density and potential remain constant during run
 non-spin polarized calculation
 RMM-DIIS sequential band-by-band and
  variant of blocked Davidson during initial phase
 perform sub-space diagonalisation
    before iterative eigenvector-optimisation
 no mixing
 using additional bands           49
 real space projection scheme for non local part
 use partial core corrections
 calculate Harris-corrections to forces 
   (improved forces if not selfconsistent)
 use gradient corrections 
 WARNING: stress and forces are not correct
  (second derivative of E(xc) not defined)
 use of overlap-Matrix (Vanderbilt PP)
 Fermi weights with tetrahedron method with Bloechl corrections


--------------------------------------------------------------------------------------------------------


  energy-cutoff  :      500.00
  volume of cell :     1734.10
      direct lattice vectors                 reciprocal lattice vectors
     8.791366577  0.000000000  0.000000000     0.113747958 -0.065672414  0.000000000
     4.395683289  7.613546790  0.000000000     0.000000000  0.131344829  0.000000000
     0.000000000  0.000000000 25.907840602     0.000000000  0.000000000  0.038598354

  length of vectors
     8.791366577  8.791366577 25.907840602     0.131344829  0.131344829  0.038598354


 
 k-points in units of 2pi/SCALE and weight: Automatic mesh                          
   0.00000000  0.00000000  0.00000000       0.016
   0.01421849 -0.00820905  0.00000000       0.031
   0.01421849  0.00820905  0.00000000       0.031
   0.00000000  0.01641810  0.00000000       0.031
   0.02843699 -0.01641810  0.00000000       0.031
   0.02843699  0.01641810  0.00000000       0.031
   0.00000000  0.03283621  0.00000000       0.031
   0.04265548 -0.02462716  0.00000000       0.031
   0.04265548  0.02462716  0.00000000       0.031
   0.00000000  0.04925431  0.00000000       0.031
   0.05687398 -0.03283621  0.00000000       0.016
   0.05687398  0.03283621  0.00000000       0.016
   0.00000000  0.06567241  0.00000000       0.016
   0.02843699 -0.00000000  0.00000000       0.031
   0.01421849  0.02462716  0.00000000       0.031
  -0.01421849  0.02462716  0.00000000       0.031
   0.04265548 -0.00820905  0.00000000       0.031
   0.02843699  0.03283621  0.00000000       0.031
  -0.01421849  0.04104526  0.00000000       0.031
   0.02843699 -0.03283621  0.00000000       0.031
  -0.01421849 -0.04104526  0.00000000       0.031
  -0.04265548 -0.00820905  0.00000000       0.031
   0.05687398 -0.01641810  0.00000000       0.031
   0.04265548  0.04104526  0.00000000       0.031
  -0.01421849  0.05746336  0.00000000       0.031
   0.04265548 -0.04104526  0.00000000       0.031
  -0.01421849  0.07388147  0.00000000       0.031
   0.05687398 -0.08209052  0.00000000       0.031
   0.05687398 -0.00000000  0.00000000       0.031
   0.02843699  0.04925431  0.00000000       0.031
  -0.02843699  0.04925431  0.00000000       0.031
  -0.04265548  0.05746336  0.00000000       0.031
   0.04265548 -0.07388147  0.00000000       0.031
  -0.02843699  0.06567241  0.00000000       0.031
 
 k-points in reciprocal lattice and weights: Automatic mesh                          
   0.00000000  0.00000000  0.00000000       0.016
   0.12500000  0.00000000  0.00000000       0.031
   0.12500000  0.12500000  0.00000000       0.031
   0.00000000  0.12500000  0.00000000       0.031
   0.25000000  0.00000000  0.00000000       0.031
   0.25000000  0.25000000  0.00000000       0.031
   0.00000000  0.25000000  0.00000000       0.031
   0.37500000  0.00000000  0.00000000       0.031
   0.37500000  0.37500000  0.00000000       0.031
   0.00000000  0.37500000  0.00000000       0.031
   0.50000000  0.00000000  0.00000000       0.016
   0.50000000  0.50000000  0.00000000       0.016
   0.00000000  0.50000000  0.00000000       0.016
   0.25000000  0.12500000  0.00000000       0.031
   0.12500000  0.25000000  0.00000000       0.031
  -0.12500000  0.12500000  0.00000000       0.031
   0.37500000  0.12500000  0.00000000       0.031
   0.25000000  0.37500000  0.00000000       0.031
  -0.12500000  0.25000000  0.00000000       0.031
   0.25000000 -0.12500000  0.00000000       0.031
  -0.12500000 -0.37500000  0.00000000       0.031
  -0.37500000 -0.25000000  0.00000000       0.031
   0.50000000  0.12500000  0.00000000       0.031
   0.37500000  0.50000000  0.00000000       0.031
  -0.12500000  0.37500000  0.00000000       0.031
   0.37500000 -0.12500000  0.00000000       0.031
  -0.12500000  0.50000000  0.00000000       0.031
   0.50000000 -0.37500000  0.00000000       0.031
   0.50000000  0.25000000  0.00000000       0.031
   0.25000000  0.50000000  0.00000000       0.031
  -0.25000000  0.25000000  0.00000000       0.031
  -0.37500000  0.25000000  0.00000000       0.031
   0.37500000 -0.37500000  0.00000000       0.031
  -0.25000000  0.37500000  0.00000000       0.031
 
 position of ions in fractional coordinates (direct lattice) 
   0.00000000  0.00000000  0.20388377
   0.33333331  0.00000000  0.20388377
   0.66666663  0.00000000  0.20388377
   0.00000000  0.33333334  0.20388377
   0.33333331  0.33333334  0.20388377
   0.66666669  0.33333334  0.20388377
   0.00000000  0.66666669  0.20388377
   0.33333331  0.66666669  0.20388377
   0.66666663  0.66666669  0.20388377
   0.11111110  0.11111111  0.29623833
   0.44444445  0.11111111  0.29623833
   0.77777779  0.11111111  0.29623833
   0.11111110  0.44444445  0.29623833
   0.44444442  0.44444445  0.29623833
   0.77777779  0.44444445  0.29623833
   0.11111110  0.77777779  0.29623833
   0.44444445  0.77777779  0.29623833
   0.77777779  0.77777779  0.29623833
   0.88878954  0.22242093  0.38840181
   0.22316992  0.22316994  0.38751349
   0.55366010  0.22316994  0.38751349
   0.88821035  0.55589485  0.38799733
   0.22316994  0.55366016  0.38751349
   0.55589485  0.55589485  0.38799733
   0.88878954  0.88878954  0.38840181
   0.22242090  0.88878954  0.38840181
   0.55589479  0.88821035  0.38799733
   0.00000000  0.00000000  0.47966318
   0.33317039  0.00827359  0.47969163
   0.65855596  0.00827359  0.47969163
   0.00827359  0.33317042  0.47969163
   0.65855602  0.33317042  0.47969163
   0.00827359  0.65855602  0.47969163
   0.33317039  0.65855602  0.47969163
   0.66666663  0.66666669  0.47949342
   0.33333331  0.33333334  0.46904059
   0.39831265  0.22448016  0.52365791
   0.22936776  0.88562497  0.53756158
   0.23633793  0.88514617  0.57504708
 
 position of ions in cartesian coordinates  (Angst):
   0.00000000  0.00000000  5.28218814
   2.93045535  0.00000000  5.28218814
   5.86091070  0.00000000  5.28218814
   1.46522781  2.53784900  5.28218814
   4.39568315  2.53784900  5.28218814
   7.32613904  2.53784900  5.28218814
   2.93045562  5.07569801  5.28218814
   5.86091096  5.07569801  5.28218814
   8.79136632  5.07569801  5.28218814
   1.46522770  0.84594965  7.67489535
   4.39568332  0.84594965  7.67489535
   7.32613893  0.84594965  7.67489535
   2.93045542  3.38379860  7.67489535
   5.86091083  3.38379860  7.67489535
   8.79136671  3.38379860  7.67489535
   4.39568328  5.92164760  7.67489535
   7.32613890  5.92164760  7.67489535
  10.25659451  5.92164760  7.67489535
   8.79136665  1.69341213 10.06265211
   2.94295296  1.69911476 10.03963781
   5.84841322  1.69911476 10.03963781
  10.25212051  4.23233149 10.05217308
   4.39568342  4.21531750 10.03963781
   7.33061317  4.23233149 10.05217308
  11.72051205  6.76684079 10.06265211
   5.86222098  6.76684079 10.06265211
   8.79136631  6.76243106 10.05217308
   0.00000000  0.00000000 12.42703732
   2.96539108  0.06299138 12.42777426
   5.82597496  0.06299138 12.42777426
   1.53724781  2.53660855 12.42777426
   7.25411903  2.53660855 12.42777426
   2.96753988  5.01394709 12.42777426
   5.82382669  5.01394709 12.42777426
   8.79136632  5.07569801 12.42263914
   4.39568315  2.53784900 12.15182876
   4.48845617  1.70909018 13.56684571
   5.90938294  6.74274711 13.92705983
   5.96855560  6.73910181 14.89822821
 


--------------------------------------------------------------------------------------------------------


 k-point   1 :   0.0000 0.0000 0.0000  plane waves:   43913
 k-point   2 :   0.1250 0.0000 0.0000  plane waves:   43928
 k-point   3 :   0.1250 0.1250 0.0000  plane waves:   43928
 k-point   4 :   0.0000 0.1250 0.0000  plane waves:   43928
 k-point   5 :   0.2500 0.0000 0.0000  plane waves:   43978
 k-point   6 :   0.2500 0.2500 0.0000  plane waves:   43978
 k-point   7 :   0.0000 0.2500 0.0000  plane waves:   43978
 k-point   8 :   0.3750 0.0000 0.0000  plane waves:   44020
 k-point   9 :   0.3750 0.3750 0.0000  plane waves:   44020
 k-point  10 :   0.0000 0.3750 0.0000  plane waves:   44020
 k-point  11 :   0.5000 0.0000 0.0000  plane waves:   44008
 k-point  12 :   0.5000 0.5000 0.0000  plane waves:   44008
 k-point  13 :   0.0000 0.5000 0.0000  plane waves:   44008
 k-point  14 :   0.2500 0.1250 0.0000  plane waves:   43994
 k-point  15 :   0.1250 0.2500 0.0000  plane waves:   43994
 k-point  16 :  -0.1250 0.1250 0.0000  plane waves:   43994
 k-point  17 :   0.3750 0.1250 0.0000  plane waves:   44042
 k-point  18 :   0.2500 0.3750 0.0000  plane waves:   44042
 k-point  19 :  -0.1250 0.2500 0.0000  plane waves:   44042
 k-point  20 :   0.2500-0.1250 0.0000  plane waves:   44042
 k-point  21 :  -0.1250-0.3750 0.0000  plane waves:   44042
 k-point  22 :  -0.3750-0.2500 0.0000  plane waves:   44042
 k-point  23 :   0.5000 0.1250 0.0000  plane waves:   44080
 k-point  24 :   0.3750 0.5000 0.0000  plane waves:   44080
 k-point  25 :  -0.1250 0.3750 0.0000  plane waves:   44080
 k-point  26 :   0.3750-0.1250 0.0000  plane waves:   44080
 k-point  27 :  -0.1250 0.5000 0.0000  plane waves:   44080
 k-point  28 :   0.5000-0.3750 0.0000  plane waves:   44080
 k-point  29 :   0.5000 0.2500 0.0000  plane waves:   44092
 k-point  30 :   0.2500 0.5000 0.0000  plane waves:   44092
 k-point  31 :  -0.2500 0.2500 0.0000  plane waves:   44092
 k-point  32 :  -0.3750 0.2500 0.0000  plane waves:   44050
 k-point  33 :   0.3750-0.3750 0.0000  plane waves:   44050
 k-point  34 :  -0.2500 0.3750 0.0000  plane waves:   44050

 maximum and minimum number of plane-waves per node :     44092    43913

 maximum number of plane-waves:     44092
 maximum index in each direction: 
   IXMAX=   16   IYMAX=   16   IZMAX=   47
   IXMIN=  -16   IYMIN=  -16   IZMIN=  -47


 serial   3D FFT for wavefunctions
 parallel 3D FFT for charge:
    minimum data exchange during FFTs selected (reduces bandwidth)


 total amount of memory used by VASP MPI-rank0   290802. kBytes
=======================================================================

   base      :      30000. kBytes
   nonlr-proj:      14732. kBytes
   fftplans  :       4948. kBytes
   grid      :      21313. kBytes
   one-center:        606. kBytes
   wavefun   :     219203. kBytes
 
     INWAV:  cpu time    0.0000: real time    0.0001
 initial charge density was supplied:
 number of electron     406.0000077 magnetization 
 keeping initial charge density in first step


--------------------------------------------------------------------------------------------------------


 Maximum index for non-local projection operator         2296
 Maximum index for augmentation-charges          696 (set IRDMAX)


--------------------------------------------------------------------------------------------------------


 First call to EWALD:  gamma=   0.148
 Maximum number of real-space cells 4x 4x 2
 Maximum number of reciprocal cells 2x 2x 5

    FEWALD:  cpu time    0.0012: real time    0.0012


--------------------------------------- Iteration      1(   1)  ---------------------------------------


    POTLOK:  cpu time    0.0455: real time    0.0458
    SETDIJ:  cpu time    0.0041: real time    0.0041
     EDDAV:  cpu time   26.2391: real time   26.2413
 BZINTS: Fermi energy:    9.099745;  406.000000 electrons
         Band energy: 0.968177E+03;  BLOECHL correction:   -0.006820
       DOS:  cpu time    0.0489: real time    0.0489
    --------------------------------------------
      LOOP:  cpu time   26.3376: real time   26.3401

 eigenvalue-minimisations  : 17136
 total energy-change (2. order) : 0.2515810E+04  (-0.1833126E+05)
 number of electron     406.0000077 magnetization 
 augmentation part      406.0000077 magnetization 

 Free energy of the ion-electron system (eV)
  ---------------------------------------------------
  alpha Z        PSCENC =       665.27905638
  Ewald energy   TEWEN  =    157634.11376955
  -Hartree energ DENC   =   -195725.69296590
  -exchange      EXHF   =         0.00000000
  -V(xc)+E(xc)   XCENC  =      -326.63414962
  PAW double counting   =     40008.96144776   -38484.08755107
  entropy T*S    EENTRO =         0.00000000
  eigenvalues    EBANDS =       968.17737469
  atomic energy  EATOM  =     37775.69279493
  Solvation  Ediel_sol  =         0.00000000
  ---------------------------------------------------
  free energy    TOTEN  =      2515.80977672 eV

  energy without entropy =     2515.80977672  energy(sigma->0) =     2515.80977672


--------------------------------------------------------------------------------------------------------




--------------------------------------- Iteration      1(   2)  ---------------------------------------


     EDDAV:  cpu time   27.7276: real time   27.7285
 BZINTS: Fermi energy:    0.855492;  406.000000 electrons
         Band energy:-0.154056E+04;  BLOECHL correction:   -0.025214
       DOS:  cpu time    0.0509: real time    0.0509
    --------------------------------------------
      LOOP:  cpu time   27.7785: real time   27.7794

 eigenvalue-minimisations  : 18088
 total energy-change (2. order) :-0.2508738E+04  (-0.2387572E+04)
 number of electron     406.0000077 magnetization 
 augmentation part      406.0000077 magnetization 

 Free energy of the ion-electron system (eV)
  ---------------------------------------------------
  alpha Z        PSCENC =       665.27905638
  Ewald energy   TEWEN  =    157634.11376955
  -Hartree energ DENC   =   -195725.69296590
  -exchange      EXHF   =         0.00000000
  -V(xc)+E(xc)   XCENC  =      -326.63414962
  PAW double counting   =     40008.96144776   -38484.08755107
  entropy T*S    EENTRO =         0.00000000
  eigenvalues    EBANDS =     -1540.56109856
  atomic energy  EATOM  =     37775.69279493
  Solvation  Ediel_sol  =         0.00000000
  ---------------------------------------------------
  free energy    TOTEN  =         7.07130347 eV

  energy without entropy =        7.07130347  energy(sigma->0) =        7.07130347


--------------------------------------------------------------------------------------------------------




--------------------------------------- Iteration      1(   3)  ---------------------------------------


     EDDAV:  cpu time   31.1500: real time   31.1509
 BZINTS: Fermi energy:    0.121440;  406.000000 electrons
         Band energy:-0.165734E+04;  BLOECHL correction:   -0.032486
       DOS:  cpu time    0.0506: real time    0.0506
    --------------------------------------------
      LOOP:  cpu time   31.2006: real time   31.2015

 eigenvalue-minimisations  : 20916
 total energy-change (2. order) :-0.1167746E+03  (-0.1138706E+03)
 number of electron     406.0000077 magnetization 
 augmentation part      406.0000077 magnetization 

 Free energy of the ion-electron system (eV)
  ---------------------------------------------------
  alpha Z        PSCENC =       665.27905638
  Ewald energy   TEWEN  =    157634.11376955
  -Hartree energ DENC   =   -195725.69296590
  -exchange      EXHF   =         0.00000000
  -V(xc)+E(xc)   XCENC  =      -326.63414962
  PAW double counting   =     40008.96144776   -38484.08755107
  entropy T*S    EENTRO =         0.00000000
  eigenvalues    EBANDS =     -1657.33569580
  atomic energy  EATOM  =     37775.69279493
  Solvation  Ediel_sol  =         0.00000000
  ---------------------------------------------------
  free energy    TOTEN  =      -109.70329377 eV

  energy without entropy =     -109.70329377  energy(sigma->0) =     -109.70329377


--------------------------------------------------------------------------------------------------------




--------------------------------------- Iteration      1(   4)  ---------------------------------------


     EDDAV:  cpu time   28.3603: real time   28.3610
 BZINTS: Fermi energy:    0.104824;  406.000000 electrons
         Band energy:-0.165968E+04;  BLOECHL correction:   -0.031846
       DOS:  cpu time    0.0518: real time    0.0518
    --------------------------------------------
      LOOP:  cpu time   28.4121: real time   28.4129

 eigenvalue-minimisations  : 18564
 total energy-change (2. order) :-0.2347166E+01  (-0.2340734E+01)
 number of electron     406.0000077 magnetization 
 augmentation part      406.0000077 magnetization 

 Free energy of the ion-electron system (eV)
  ---------------------------------------------------
  alpha Z        PSCENC =       665.27905638
  Ewald energy   TEWEN  =    157634.11376955
  -Hartree energ DENC   =   -195725.69296590
  -exchange      EXHF   =         0.00000000
  -V(xc)+E(xc)   XCENC  =      -326.63414962
  PAW double counting   =     40008.96144776   -38484.08755107
  entropy T*S    EENTRO =         0.00000000
  eigenvalues    EBANDS =     -1659.68286196
  atomic energy  EATOM  =     37775.69279493
  Solvation  Ediel_sol  =         0.00000000
  ---------------------------------------------------
  free energy    TOTEN  =      -112.05045993 eV

  energy without entropy =     -112.05045993  energy(sigma->0) =     -112.05045993


--------------------------------------------------------------------------------------------------------




--------------------------------------- Iteration      1(   5)  ---------------------------------------


     EDDAV:  cpu time   31.5094: real time   31.5104
 BZINTS: Fermi energy:    0.104604;  406.000000 electrons
         Band energy:-0.165973E+04;  BLOECHL correction:   -0.031838
       DOS:  cpu time    0.0519: real time    0.0519
    --------------------------------------------
      LOOP:  cpu time   31.5613: real time   31.5654

 eigenvalue-minimisations  : 21168
 total energy-change (2. order) :-0.4742130E-01  (-0.4741276E-01)
 number of electron     406.0000077 magnetization 
 augmentation part      406.0000077 magnetization 

 Free energy of the ion-electron system (eV)
  ---------------------------------------------------
  alpha Z        PSCENC =       665.27905638
  Ewald energy   TEWEN  =    157634.11376955
  -Hartree energ DENC   =   -195725.69296590
  -exchange      EXHF   =         0.00000000
  -V(xc)+E(xc)   XCENC  =      -326.63414962
  PAW double counting   =     40008.96144776   -38484.08755107
  entropy T*S    EENTRO =         0.00000000
  eigenvalues    EBANDS =     -1659.73028326
  atomic energy  EATOM  =     37775.69279493
  Solvation  Ediel_sol  =         0.00000000
  ---------------------------------------------------
  free energy    TOTEN  =      -112.09788123 eV

  energy without entropy =     -112.09788123  energy(sigma->0) =     -112.09788123


--------------------------------------------------------------------------------------------------------




--------------------------------------- Iteration      1(   6)  ---------------------------------------


    EDDIAG:  cpu time    5.1436: real time    5.1471
  RMM-DIIS:  cpu time   15.3890: real time   15.3894
    ORTHCH:  cpu time    0.9464: real time    0.9465
 BZINTS: Fermi energy:    0.104602;  406.000000 electrons
         Band energy:-0.165973E+04;  BLOECHL correction:   -0.031838
       DOS:  cpu time    0.0518: real time    0.0518
    --------------------------------------------
      LOOP:  cpu time   21.5307: real time   21.5315

 eigenvalue-minimisations  : 17327
 total energy-change (2. order) :-0.1080321E-02  (-0.1080299E-02)
 number of electron     406.0000077 magnetization 
 augmentation part      406.0000077 magnetization 

 Free energy of the ion-electron system (eV)
  ---------------------------------------------------
  alpha Z        PSCENC =       665.27905638
  Ewald energy   TEWEN  =    157634.11376955
  -Hartree energ DENC   =   -195725.69296590
  -exchange      EXHF   =         0.00000000
  -V(xc)+E(xc)   XCENC  =      -326.63414962
  PAW double counting   =     40008.96144776   -38484.08755107
  entropy T*S    EENTRO =         0.00000000
  eigenvalues    EBANDS =     -1659.73136359
  atomic energy  EATOM  =     37775.69279493
  Solvation  Ediel_sol  =         0.00000000
  ---------------------------------------------------
  free energy    TOTEN  =      -112.09896156 eV

  energy without entropy =     -112.09896156  energy(sigma->0) =     -112.09896156


--------------------------------------------------------------------------------------------------------




--------------------------------------- Iteration      1(   7)  ---------------------------------------


    EDDIAG:  cpu time    5.1556: real time    5.1559
  RMM-DIIS:  cpu time   22.1130: real time   22.1136
    ORTHCH:  cpu time    0.9683: real time    0.9683
 BZINTS: Fermi energy:    0.104602;  406.000000 electrons
         Band energy:-0.165973E+04;  BLOECHL correction:   -0.031838
       DOS:  cpu time    0.0507: real time    0.0507
    --------------------------------------------
      LOOP:  cpu time   28.2876: real time   28.2885

 eigenvalue-minimisations  : 25040
 total energy-change (2. order) :-0.4585287E-03  (-0.4495966E-03)
 number of electron     406.0000077 magnetization 
 augmentation part      406.0000077 magnetization 

 Free energy of the ion-electron system (eV)
  ---------------------------------------------------
  alpha Z        PSCENC =       665.27905638
  Ewald energy   TEWEN  =    157634.11376955
  -Hartree energ DENC   =   -195725.69296590
  -exchange      EXHF   =         0.00000000
  -V(xc)+E(xc)   XCENC  =      -326.63414962
  PAW double counting   =     40008.96144776   -38484.08755107
  entropy T*S    EENTRO =         0.00000000
  eigenvalues    EBANDS =     -1659.73182211
  atomic energy  EATOM  =     37775.69279493
  Solvation  Ediel_sol  =         0.00000000
  ---------------------------------------------------
  free energy    TOTEN  =      -112.09942008 eV

  energy without entropy =     -112.09942008  energy(sigma->0) =     -112.09942008


--------------------------------------------------------------------------------------------------------




--------------------------------------- Iteration      1(   8)  ---------------------------------------


    EDDIAG:  cpu time    5.1512: real time    5.1514
  RMM-DIIS:  cpu time   17.1718: real time   17.1721
    ORTHCH:  cpu time    0.9491: real time    0.9491
 BZINTS: Fermi energy:    0.104602;  406.000000 electrons
         Band energy:-0.165973E+04;  BLOECHL correction:   -0.031838
       DOS:  cpu time    0.0519: real time    0.0519
    --------------------------------------------
      LOOP:  cpu time   23.3240: real time   23.3246

 eigenvalue-minimisations  : 18119
 total energy-change (2. order) :-0.3232091E-04  (-0.3266557E-04)
 number of electron     406.0000077 magnetization 
 augmentation part      406.0000077 magnetization 

 Free energy of the ion-electron system (eV)
  ---------------------------------------------------
  alpha Z        PSCENC =       665.27905638
  Ewald energy   TEWEN  =    157634.11376955
  -Hartree energ DENC   =   -195725.69296590
  -exchange      EXHF   =         0.00000000
  -V(xc)+E(xc)   XCENC  =      -326.63414962
  PAW double counting   =     40008.96144776   -38484.08755107
  entropy T*S    EENTRO =         0.00000000
  eigenvalues    EBANDS =     -1659.73185443
  atomic energy  EATOM  =     37775.69279493
  Solvation  Ediel_sol  =         0.00000000
  ---------------------------------------------------
  free energy    TOTEN  =      -112.09945240 eV

  energy without entropy =     -112.09945240  energy(sigma->0) =     -112.09945240


--------------------------------------------------------------------------------------------------------




--------------------------------------- Iteration      1(   9)  ---------------------------------------


    EDDIAG:  cpu time    5.1686: real time    5.1688
  RMM-DIIS:  cpu time   14.9070: real time   14.9074
    ORTHCH:  cpu time    0.9462: real time    0.9462
 BZINTS: Fermi energy:    0.104602;  406.000000 electrons
         Band energy:-0.165973E+04;  BLOECHL correction:   -0.031838
       DOS:  cpu time    0.0507: real time    0.0507
    --------------------------------------------
      LOOP:  cpu time   21.0726: real time   21.0731

 eigenvalue-minimisations  : 14817
 total energy-change (2. order) :-0.7671653E-05  (-0.7779934E-05)
 number of electron     406.0000077 magnetization 
 augmentation part      406.0000077 magnetization 

 Free energy of the ion-electron system (eV)
  ---------------------------------------------------
  alpha Z        PSCENC =       665.27905638
  Ewald energy   TEWEN  =    157634.11376955
  -Hartree energ DENC   =   -195725.69296590
  -exchange      EXHF   =         0.00000000
  -V(xc)+E(xc)   XCENC  =      -326.63414962
  PAW double counting   =     40008.96144776   -38484.08755107
  entropy T*S    EENTRO =         0.00000000
  eigenvalues    EBANDS =     -1659.73186211
  atomic energy  EATOM  =     37775.69279493
  Solvation  Ediel_sol  =         0.00000000
  ---------------------------------------------------
  free energy    TOTEN  =      -112.09946008 eV

  energy without entropy =     -112.09946008  energy(sigma->0) =     -112.09946008


--------------------------------------------------------------------------------------------------------




 average (electrostatic) potential at core
  the test charge radii are     1.1249  1.0103  0.7215  0.5201
  (the norm of the test charge is              1.0000)
       1 -78.7974       2 -78.7838       3 -78.7978       4 -78.7980       5 -78.7890
       6 -78.7935       7 -78.7904       8 -78.7708       9 -78.8167      10 -79.0149
      11 -79.0133      12 -79.0280      13 -79.0182      14 -79.0101      15 -79.0259
      16 -79.0037      17 -79.0098      18 -79.0311      19 -78.9794      20 -79.0352
      21 -79.0257      22 -78.9870      23 -79.0750      24 -79.0018      25 -78.9821
      26 -78.9787      27 -79.0147      28 -78.6261      29 -78.6354      30 -78.7623
      31 -78.6965      32 -78.6983      33 -78.6932      34 -78.6132      35 -78.7303
      36 -49.2512      37 -76.3065      38 -75.3633      39 -39.6500
 
 
 
 E-fermi :   0.1046     XC(G=0):  -5.1308     alpha+bet : -4.8245

 Fermi energy:         0.1046016096

 k-point     1 :       0.0000    0.0000    0.0000
  band No.  band energies     occupation 
      1     -19.0108      2.00000
      2     -18.4366      2.00000
      3      -7.4939      2.00000
      4      -6.9765      2.00000
      5      -6.1227      2.00000
      6      -5.8468      2.00000
      7      -5.7795      2.00000
      8      -5.7390      2.00000
      9      -5.7374      2.00000
     10      -5.7325      2.00000
     11      -5.7286      2.00000
     12      -5.7257      2.00000
     13      -5.7212      2.00000
     14      -5.7022      2.00000
     15      -5.6946      2.00000
     16      -5.6842      2.00000
     17      -5.6832      2.00000
     18      -5.6806      2.00000
     19      -5.6018      2.00000
     20      -5.5636      2.00000
     21      -5.5241      2.00000
     22      -5.5224      2.00000
     23      -5.5183      2.00000
     24      -5.5157      2.00000
     25      -5.5108      2.00000
     26      -5.3943      2.00000
     27      -5.3655      2.00000
     28      -5.3559      2.00000
     29      -5.3321      2.00000
     30      -5.3257      2.00000
     31      -5.3041      2.00000
     32      -5.3018      2.00000
     33      -5.2960      2.00000
     34      -5.2912      2.00000
     35      -5.2809      2.00000
     36      -5.2734      2.00000
     37      -5.2661      2.00000
     38      -5.2473      2.00000
     39      -5.2239      2.00000
     40      -5.2142      2.00000
     41      -5.1682      2.00000
     42      -5.1117      2.00000
     43      -5.0688      2.00000
     44      -4.9939      2.00000
     45      -4.9593      2.00000
     46      -4.9414      2.00000
     47      -4.9354      2.00000
     48      -4.9299      2.00000
     49      -4.9274      2.00000
     50      -4.9126      2.00000
     51      -4.8976      2.00000
     52      -4.8896      2.00000
     53      -4.8722      2.00000
     54      -4.8490      2.00000
     55      -4.7872      2.00000
     56      -4.7823      2.00000
     57      -4.7623      2.00000
     58      -4.7008      2.00000
     59      -4.6882      2.00000
     60      -4.5947      2.00000
     61      -4.5463      2.00000
     62      -4.5401      2.00000
     63      -4.5371      2.00000
     64      -4.5335      2.00000
     65      -4.5323      2.00000
     66      -4.5268      2.00000
     67      -4.5060      2.00000
     68      -4.4880      2.00000
     69      -4.4829      2.00000
     70      -4.4766      2.00000
     71      -4.4634      2.00000
     72      -4.4261      2.00000
     73      -4.4060      2.00000
     74      -4.3835      2.00000
     75      -4.3678      2.00000
     76      -4.3632      2.00000
     77      -4.3520      2.00000
     78      -4.3376      2.00000
     79      -4.3351      2.00000
     80      -4.3284      2.00000
     81      -4.3235      2.00000
     82      -4.3200      2.00000
     83      -4.2992      2.00000
     84      -4.2945      2.00000
     85      -4.2904      2.00000
     86      -4.2822      2.00000
     87      -4.2532      2.00000
     88      -4.2456      2.00000
     89      -4.2391      2.00000
     90      -4.2253      2.00000
     91      -4.1898      2.00000
     92      -4.1519      2.00000
     93      -4.1458      2.00000
     94      -4.1422      2.00000
     95      -4.1239      2.00000
     96      -4.0984      2.00000
     97      -4.0964      2.00000
     98      -4.0746      2.00000
     99      -4.0701      2.00000
    100      -4.0613      2.00000
    101      -4.0514      2.00000
    102      -4.0345      2.00000
    103      -3.9730      2.00000
    104      -3.8760      2.00000
    105      -3.8429      2.00000
    106      -3.8280      2.00000
    107      -3.8166      2.00000
    108      -3.8002      2.00000
    109      -3.7973      2.00000
    110      -3.7911      2.00000
    111      -3.7753      2.00000
    112      -3.7489      2.00000
    113      -3.7356      2.00000
    114      -3.7132      2.00000
    115      -3.7049      2.00000
    116      -3.6950      2.00000
    117      -3.6388      2.00000
    118      -3.6265      2.00000
    119      -3.6194      2.00000
    120      -3.5975      2.00000
    121      -3.5888      2.00000
    122      -3.5645      2.00000
[...]
  0.000   0.000   0.000   0.000   0.000   0.000   0.000   0.000   0.000   0.000   1.000   0.000   0.000   0.000   0.000   0.000
  0.000   0.000   0.000   0.000   0.000   0.000   0.000   0.000   0.000   0.000   0.000   0.000   0.000   0.000   0.000   0.000
  0.000   0.000   0.000   0.000   0.000   0.000   0.000   0.000   0.000   0.000   0.000   0.000   0.000   0.000   0.000   0.000
  0.000   0.000   0.000   0.000   0.000   0.000   0.000   0.000   0.000   0.000   0.000   0.000   0.000   0.000   0.000   0.000
  0.000   0.000   0.000   0.000   0.000   0.000   0.000   0.000   0.000   0.000   0.000   0.000   0.000   0.000   0.000   0.000
  0.000   0.000   0.000   0.000   0.000   0.000   0.000   0.000   0.000   0.000   0.000   0.000   0.000   0.000   0.000   0.000
  0.000   0.000   0.000   0.000   0.000   0.000   0.000   0.000   0.000   0.000   0.000   0.000   0.000   0.000   0.000   0.000
  0.000   0.000   0.000   0.000   0.000   0.000   0.000   0.000   0.000   0.000   0.000   0.000   0.000   0.000   0.000   0.000


------------------------ aborting loop because EDIFF is reached ----------------------------------------





 total charge

# of ion       s       p       d       tot
------------------------------------------
    1        0.418   0.202   9.178   9.798
    2        0.419   0.202   9.178   9.798
    3        0.418   0.202   9.179   9.798
    4        0.415   0.204   9.178   9.796
    5        0.418   0.203   9.176   9.797
    6        0.417   0.203   9.178   9.797
    7        0.416   0.205   9.176   9.797
    8        0.417   0.204   9.176   9.797
    9        0.414   0.203   9.178   9.795
   10        0.408   0.268   9.164   9.840
   11        0.406   0.270   9.166   9.842
   12        0.405   0.270   9.163   9.838
   13        0.403   0.272   9.165   9.841
   14        0.405   0.271   9.167   9.842
   15        0.403   0.271   9.164   9.837
   16        0.415   0.264   9.165   9.844
   17        0.407   0.266   9.167   9.840
   18        0.403   0.270   9.164   9.837
   19        0.398   0.270   9.163   9.831
   20        0.418   0.303   9.144   9.865
   21        0.421   0.296   9.152   9.869
   22        0.396   0.271   9.171   9.838
   23        0.431   0.290   9.147   9.869
   24        0.397   0.275   9.165   9.837
   25        0.398   0.271   9.162   9.831
   26        0.409   0.264   9.165   9.838
   27        0.398   0.276   9.163   9.837
   28        0.374   0.222   9.193   9.789
   29        0.351   0.244   9.198   9.793
   30        0.383   0.222   9.184   9.788
   31        0.400   0.201   9.192   9.793
   32        0.400   0.203   9.189   9.792
   33        0.407   0.207   9.180   9.795
   34        0.378   0.239   9.181   9.799
   35        0.409   0.188   9.191   9.788
   36        0.453   0.487   6.360   7.300
   37        1.603   3.269   0.000   4.872
   38        1.556   3.491   0.000   5.048
   39        0.617   0.120   0.000   0.737
--------------------------------------------------
tot         18.403  15.860 327.382 361.644
 
    CHARGE:  cpu time    1.2439: real time    1.2440
    FORLOC:  cpu time    0.0115: real time    0.0115
    FORNL :  cpu time    5.4234: real time    5.4237
    STRESS:  cpu time   16.2923: real time   16.2928
    FORCOR:  cpu time    0.0471: real time    0.0471
    FORHAR:  cpu time    0.0181: real time    0.0183
    OFIELD:  cpu time    0.0003: real time    0.0003

  FORCE on cell =-STRESS in cart. coord.  units (eV):
  Direction    XX          YY          ZZ          XY          YZ          ZX
  --------------------------------------------------------------------------------------
  Alpha Z   665.27906   665.27906   665.27906
  Ewald  180500.53790180559.26553************    46.82837   -59.23757     8.06462
  Hartree190616.25283190635.60950************    47.32375   -14.90095    -1.10627
  E(xc)   -2131.43972 -2131.26006 -2135.43625    -0.00879    -0.12591     0.06300
  Local  ************************382428.22275   -94.73206    64.97696    -4.33443
  n-local  -400.42235  -398.83274  -403.28940    -0.08496    -2.57618     0.31564
  augment  3274.06423  3271.83516  3276.01270     0.16947     3.71158    -0.65396
  Kinetic  5123.21368  5119.05618  5112.93827     0.75199     7.75502    -2.37424
  Fock        0.00000     0.00000     0.00000     0.00000     0.00000     0.00000
  -------------------------------------------------------------------------------------
  Total      -7.45462    -6.71344    -1.22643     0.24777    -0.39705    -0.02564
  in kB      -6.88750    -6.20270    -1.13313     0.22892    -0.36685    -0.02369
  external pressure =       -4.74 kB  Pullay stress =        0.00 kB


 VOLUME and BASIS-vectors are now :
 -----------------------------------------------------------------------------
  energy-cutoff  :      500.00
  volume of cell :     1734.10
      direct lattice vectors                 reciprocal lattice vectors
     8.791366577  0.000000000  0.000000000     0.113747958 -0.065672414  0.000000000
     4.395683289  7.613546790  0.000000000     0.000000000  0.131344829  0.000000000
     0.000000000  0.000000000 25.907840602     0.000000000  0.000000000  0.038598354

  length of vectors
     8.791366577  8.791366577 25.907840602     0.131344829  0.131344829  0.038598354


 FORCES acting on ions
    electron-ion (+dipol)            ewald-force                    non-local-force                 convergence-correction
 -----------------------------------------------------------------------------------------------
   0.182E+00 -.295E+00 0.283E+04   -.204E+00 0.631E-01 -.283E+04   0.569E-03 0.127E+00 -.190E+01   0.278E-01 0.769E-01 -.117E+00
   0.326E+00 0.483E+00 0.283E+04   -.458E+00 -.464E+00 -.283E+04   0.617E-01 0.199E-02 -.159E+01   0.588E-01 -.120E-01 -.113E+00
   -.515E+00 0.472E+00 0.283E+04   0.662E+00 -.562E+00 -.283E+04   -.542E-01 0.712E-01 -.183E+01   -.878E-01 0.206E-01 -.131E+00
   0.686E+00 -.875E-01 0.283E+04   -.784E+00 0.752E-01 -.283E+04   0.844E-01 0.225E-01 -.169E+01   0.149E-01 -.433E-02 -.141E+00
   -.567E-01 -.964E-01 0.283E+04   0.166E-01 0.167E+00 -.283E+04   0.860E-02 -.251E-01 -.169E+01   0.323E-01 -.379E-01 -.143E+00
   -.659E+00 0.152E+00 0.283E+04   0.767E+00 -.147E+00 -.283E+04   -.732E-01 -.241E-01 -.169E+01   -.337E-01 0.311E-01 -.137E+00
   0.447E+00 -.371E+00 0.283E+04   -.308E+00 0.610E+00 -.283E+04   -.455E-01 -.175E+00 -.161E+01   -.646E-01 -.609E-01 -.110E+00
   -.344E+00 -.304E+00 0.283E+04   0.124E+00 0.480E+00 -.283E+04   0.886E-01 -.120E+00 -.136E+01   0.100E+00 -.532E-01 -.977E-01
   -.819E-01 0.454E-01 0.283E+04   0.184E+00 -.222E+00 -.283E+04   -.528E-01 0.121E+00 -.177E+01   -.477E-01 0.418E-01 -.118E+00
   0.554E+01 0.102E+01 0.101E+04   -.533E+01 -.748E+00 -.101E+04   -.231E+00 -.261E+00 -.780E+00   0.279E-01 -.189E-02 0.220E+00
   -.116E+01 0.489E+01 0.102E+04   0.109E+01 -.513E+01 -.102E+04   0.571E-01 0.208E+00 -.665E+00   0.106E-01 -.273E-02 0.198E+00
   -.439E+01 0.218E+01 0.101E+04   0.424E+01 -.197E+01 -.101E+04   0.173E+00 -.209E+00 -.850E+00   -.241E-01 0.219E-02 0.216E+00
   0.566E+01 -.413E+01 0.101E+04   -.575E+01 0.413E+01 -.101E+04   0.394E-01 0.235E-01 -.259E+00   0.229E-01 -.196E-01 0.228E+00
   -.519E+01 -.246E+01 0.101E+04   0.535E+01 0.263E+01 -.101E+04   -.108E+00 -.156E+00 -.417E+00   -.102E-01 -.381E-02 0.190E+00
   -.467E+00 0.118E+01 0.101E+04   0.402E+00 -.125E+01 -.100E+04   0.556E-01 0.168E-01 -.694E+00   -.416E-02 0.242E-01 0.188E+00
   0.159E+01 -.413E+01 0.101E+04   -.161E+01 0.394E+01 -.101E+04   -.571E-02 0.186E+00 -.875E+00   0.224E-01 -.725E-02 0.266E+00
   0.200E+00 0.940E+00 0.101E+04   -.331E+00 -.104E+01 -.101E+04   0.892E-01 0.101E+00 -.563E+00   0.332E-01 0.236E-02 0.201E+00
   -.182E+01 0.540E+00 0.101E+04   0.194E+01 -.581E+00 -.101E+04   -.516E-01 0.521E-01 -.744E+00   -.500E-01 0.175E-01 0.217E+00
   0.473E+01 -.963E+01 -.850E+03   -.469E+01 0.948E+01 0.850E+03   -.471E-01 0.936E-01 0.318E+00   0.468E-02 -.555E-02 0.277E+00
   0.262E+02 -.159E+01 -.799E+03   -.254E+02 0.211E+01 0.799E+03   -.858E+00 -.664E+00 -.814E+00   0.116E+00 0.681E-01 0.497E+00
   -.311E+02 0.843E+01 -.805E+03   0.302E+02 -.774E+01 0.805E+03   0.989E+00 -.728E+00 -.599E+00   -.134E+00 0.472E-01 0.495E+00
   0.720E+01 -.439E+01 -.849E+03   -.734E+01 0.435E+01 0.848E+03   0.970E-01 0.240E-01 0.827E+00   0.667E-01 0.565E-02 0.355E+00
   0.629E+01 -.231E+02 -.814E+03   -.631E+01 0.223E+02 0.814E+03   0.792E-01 0.108E+01 -.919E+00   -.133E-01 -.124E+00 0.538E+00
   -.136E+02 0.494E+01 -.838E+03   0.138E+02 -.473E+01 0.837E+03   -.241E+00 -.199E+00 0.371E+00   -.552E-01 0.312E-02 0.343E+00
   0.505E+01 0.431E+01 -.849E+03   -.502E+01 -.400E+01 0.849E+03   0.167E-01 -.236E+00 0.307E+00   -.252E-01 -.366E-01 0.284E+00
   0.627E+01 0.316E+01 -.821E+03   -.610E+01 -.291E+01 0.821E+03   -.144E+00 -.222E+00 -.447E-01   0.585E-03 -.257E-01 0.303E+00
   -.112E+02 0.185E+02 -.826E+03   0.110E+02 -.189E+02 0.826E+03   0.161E+00 0.332E+00 0.243E+00   0.114E-01 0.499E-01 0.356E+00
   0.110E+03 -.573E+02 -.262E+04   -.112E+03 0.582E+02 0.262E+04   0.106E+01 -.716E+00 0.213E+01   0.122E-01 -.161E-01 0.218E+00
   -.308E+02 0.168E+02 -.257E+04   0.307E+02 -.167E+02 0.257E+04   -.220E-01 -.219E+00 0.224E+01   0.139E+00 0.167E+00 0.200E+00
   -.842E+02 0.947E+02 -.267E+04   0.854E+02 -.960E+02 0.267E+04   -.710E+00 0.692E+00 0.256E+01   -.152E+00 0.171E+00 0.223E+00
   0.600E+02 -.578E+02 -.271E+04   -.600E+02 0.587E+02 0.270E+04   -.357E+00 -.650E+00 0.254E+01   0.200E+00 -.191E-01 0.155E+00
   -.647E+02 -.145E+02 -.271E+04   0.652E+02 0.150E+02 0.271E+04   -.152E-02 -.413E+00 0.237E+01   -.200E+00 -.186E-01 0.169E+00
   0.493E+02 -.114E+02 -.271E+04   -.493E+02 0.104E+02 0.271E+04   -.206E+00 0.110E+01 0.231E+01   0.106E+00 -.142E+00 0.161E+00
   -.713E+01 0.950E+02 -.262E+04   0.654E+01 -.972E+02 0.262E+04   0.620E+00 0.193E+01 0.188E+01   -.105E+00 -.112E+00 0.130E+00
   -.383E+02 0.380E+02 -.271E+04   0.389E+02 -.384E+02 0.271E+04   -.525E+00 0.204E+00 0.238E+01   -.744E-03 0.491E-01 0.202E+00
   0.104E+02 -.122E+03 -.169E+04   -.106E+02 0.123E+03 0.169E+04   0.176E+00 -.731E+00 -.355E+00   0.489E-02 -.651E-01 0.246E+00
   -.143E+02 -.116E+01 -.189E+04   0.146E+02 -.513E+01 0.192E+04   -.334E+00 0.619E+01 -.251E+02   -.250E-01 0.145E+00 -.171E+00
   0.114E+02 0.103E+02 -.182E+04   -.139E+02 -.103E+02 0.180E+04   0.254E+01 -.679E-02 0.265E+02   0.329E-02 -.447E-03 0.146E-03
   -.350E+01 0.160E+01 -.369E+03   0.398E+01 -.163E+01 0.377E+03   -.490E+00 0.294E-01 -.812E+01   0.136E-02 0.102E-02 -.297E-02
 -----------------------------------------------------------------------------------------------
   -.182E+01 -.702E+01 0.421E+01   -.275E-13 -.488E-13 0.119E-10   0.184E+01 0.686E+01 -.997E+01   -.160E-01 0.155E+00 0.580E+01
 
 
 POSITION                                       TOTAL-FORCE (eV/Angst)
 -----------------------------------------------------------------------------------
      0.00000      0.00000      5.28219         0.006472     -0.027984     -0.018671
      2.93046      0.00000      5.28219        -0.011155      0.009515      0.004997
      5.86091      0.00000      5.28219         0.005300      0.002151      0.008560
      1.46523      2.53785      5.28219         0.001075      0.005979      0.040452
      4.39568      2.53785      5.28219         0.000701      0.007358      0.010285
      7.32614      2.53785      5.28219         0.001108      0.011991      0.024464
      2.93046      5.07570      5.28219         0.028779      0.002919      0.027619
      5.86091      5.07570      5.28219        -0.031269      0.003033      0.014526
      8.79137      5.07570      5.28219         0.001460     -0.013558      0.021012
      1.46523      0.84595      7.67490         0.013631      0.006460     -0.006730
      4.39568      0.84595      7.67490        -0.002109     -0.028465     -0.087352
      7.32614      0.84595      7.67490        -0.011402     -0.000199      0.012750
      2.93046      3.38380      7.67490        -0.029030      0.007437     -0.018038
      5.86091      3.38380      7.67490         0.041695      0.018043     -0.047435
      8.79137      3.38380      7.67490        -0.013668     -0.024293      0.017105
      4.39568      5.92165      7.67490         0.000217     -0.003156     -0.040955
      7.32614      5.92165      7.67490        -0.008563      0.003049     -0.016671
     10.25659      5.92165      7.67490         0.013970      0.029100      0.007014
      8.79137      1.69341     10.06265        -0.004889     -0.058246      0.103484
      2.94295      1.69911     10.03964        -0.007203     -0.068330      0.041088
      5.84841      1.69911     10.03964        -0.007339      0.002080     -0.076034
     10.25212      4.23233     10.05217         0.023529     -0.016207     -0.015719
      4.39568      4.21532     10.03964         0.051182      0.177643     -0.122846
      7.33061      4.23233     10.05217        -0.067002      0.016337      0.027786
     11.72051      6.76684     10.06265         0.024288      0.032820      0.125155
      5.86222      6.76684     10.06265         0.032974     -0.001777     -0.056842
      8.79137      6.76243     10.05217        -0.053272      0.033988      0.026827
      0.00000      0.00000     12.42704        -0.408906      0.239417      0.026650
      2.96539      0.06299     12.42777         0.099321      0.001600     -0.028220
      5.82597      0.06299     12.42777         0.317022     -0.379060     -0.081983
      1.53725      2.53661     12.42777        -0.218857      0.193696     -0.155618
      7.25412      2.53661     12.42777         0.278480      0.100929     -0.143170
      2.96754      5.01395     12.42777        -0.135922      0.016176     -0.132679
      5.82383      5.01395     12.42777        -0.079833     -0.456427      0.033185
      8.79137      5.07570     12.42264         0.147441     -0.129421     -0.081027
      4.39568      2.53785     12.15183         0.009786      0.236252      0.611767
      4.48846      1.70909     13.56685        -0.011919      0.048788     -0.053589
      5.90938      6.74275     13.92706         0.006618      0.000396     -0.003711
      5.96856      6.73910     14.89823        -0.002710     -0.000036      0.002565
 -----------------------------------------------------------------------------------
    total drift:                                0.003007     -0.004165      0.042455


--------------------------------------------------------------------------------------------------------



  FREE ENERGIE OF THE ION-ELECTRON SYSTEM (eV)
  ---------------------------------------------------
  free  energy   TOTEN  =      -112.09946008 eV

  energy  without entropy=     -112.09946008  energy(sigma->0) =     -112.09946008
 


--------------------------------------------------------------------------------------------------------


    POTLOK:  cpu time    0.0442: real time    0.0442


--------------------------------------------------------------------------------------------------------


 stress matrix after NEB project (eV)
     -7.45462      0.24777     -0.02564
      0.24777     -6.71344     -0.39706
     -0.02564     -0.39705     -1.22643
  FORCES: max atom, RMS     0.073445    0.011838
  FORCE total and by dimension    0.073931    0.053589
  Stress total and by dimension   10.128434    7.454623
     LOOP+:  cpu time  262.6877: real time  262.7053
 -----------------------------------------------------------------------------
|                                                                             |
|           W    W    AA    RRRRR   N    N  II  N    N   GGGG   !!!           |
|           W    W   A  A   R    R  NN   N  II  NN   N  G    G  !!!           |
|           W    W  A    A  R    R  N N  N  II  N N  N  G       !!!           |
|           W WW W  AAAAAA  RRRRR   N  N N  II  N  N N  G  GGG   !            |
|           WW  WW  A    A  R   R   N   NN  II  N   NN  G    G                |
|           W    W  A    A  R    R  N    N  II  N    N   GGGG   !!!           |
|                                                                             |
|     Tetrahedron method does not include variations of the Fermi             |
|     occupations, so forces and stress will be inaccurate. We suggest        |
|     using a different smearing scheme ISMEAR = 1 or 2 for metals in         |
|     relaxations.                                                            |
|                                                                             |
 -----------------------------------------------------------------------------

    4ORBIT:  cpu time    0.0000: real time    0.0000



 total charge

# of ion       s       p       d       tot
------------------------------------------
    1        0.418   0.202   9.178   9.798
    2        0.419   0.202   9.178   9.798
    3        0.418   0.202   9.179   9.798
    4        0.415   0.204   9.178   9.796
    5        0.418   0.203   9.176   9.797
    6        0.417   0.203   9.178   9.797
    7        0.416   0.205   9.176   9.797
    8        0.417   0.204   9.176   9.797
    9        0.414   0.203   9.178   9.795
   10        0.408   0.268   9.164   9.840
   11        0.406   0.270   9.166   9.842
   12        0.405   0.270   9.163   9.838
   13        0.403   0.272   9.165   9.841
   14        0.405   0.271   9.167   9.842
   15        0.403   0.271   9.164   9.837
   16        0.415   0.264   9.165   9.844
   17        0.407   0.266   9.167   9.840
   18        0.403   0.270   9.164   9.837
   19        0.398   0.270   9.163   9.831
   20        0.418   0.303   9.144   9.865
   21        0.421   0.296   9.152   9.869
   22        0.396   0.271   9.171   9.838
   23        0.431   0.290   9.147   9.869
   24        0.397   0.275   9.165   9.837
   25        0.398   0.271   9.162   9.831
   26        0.409   0.264   9.165   9.838
   27        0.398   0.276   9.163   9.837
   28        0.374   0.222   9.193   9.789
   29        0.351   0.244   9.198   9.793
   30        0.383   0.222   9.184   9.788
   31        0.400   0.201   9.192   9.793
   32        0.400   0.203   9.189   9.792
   33        0.407   0.207   9.180   9.795
   34        0.378   0.239   9.181   9.799
   35        0.409   0.188   9.191   9.788
   36        0.453   0.487   6.360   7.300
   37        1.603   3.269   0.000   4.872
   38        1.556   3.491   0.000   5.048
   39        0.617   0.120   0.000   0.737
--------------------------------------------------
tot         18.403  15.860 327.382 361.644
 
 BZINTS: Fermi energy:    0.104602;  406.000000 electrons
         Band energy:-0.165973E+04;  BLOECHL correction:   -0.031838

 total amount of memory used by VASP MPI-rank0   290802. kBytes
=======================================================================

   base      :      30000. kBytes
   nonlr-proj:      14732. kBytes
   fftplans  :       4948. kBytes
   grid      :      21313. kBytes
   one-center:        606. kBytes
   wavefun   :     219203. kBytes
 
  
  
 General timing and accounting informations for this job:
 ========================================================
  
                  Total CPU time used (sec):      284.177
                            User time (sec):      274.633
                          System time (sec):        9.545
                         Elapsed time (sec):      284.686
  
                   Maximum memory used (kb):      598616.
                   Average memory used (kb):          N/A
  
                          Minor page faults:       164304
                          Major page faults:            0
                 Voluntary context switches:         7440
