PROCAR new format
# of k-points:   10         # of bands:  252         # of ions:   38

 k-point     1 :    0.00000000 0.00000000 0.00000000     weight = 0.01562500

band     1 # energy  -19.37289886 # occ.  2.00000000
 
ion      s      p      d    tot
    1  0.000  0.000  0.000  0.000
    2  0.000  0.000  0.000  0.000
    3  0.000  0.000  0.000  0.000
    4  0.000  0.000  0.000  0.000
    5  0.000  0.000  0.000  0.000
    6  0.000  0.000  0.000  0.000
    7  0.000  0.000  0.000  0.000
    8  0.000  0.000  0.000  0.000
    9  0.000  0.000  0.000  0.000
   10  0.000  0.000  0.000  0.000
   11  0.000  0.000  0.000  0.000
   12  0.000  0.000  0.000  0.000
   13  0.000  0.000  0.000  0.000
   14  0.000  0.000  0.000  0.000
   15  0.000  0.000  0.000  0.000
   16  0.000  0.000  0.000  0.000
   17  0.000  0.000  0.000  0.000
   18  0.000  0.000  0.000  0.000
   19  0.000  0.000  0.000  0.000
   20  0.000  0.000  0.000  0.000
   21  0.000  0.000  0.000  0.000
   22  0.000  0.000  0.000  0.000
   23  0.000  0.000  0.000  0.000
   24  0.000  0.000  0.000  0.000
   25  0.000  0.000  0.000  0.000
   26  0.000  0.000  0.000  0.000
   27  0.000  0.000  0.000  0.000
   28  0.000  0.000  0.000  0.000
   29  0.000  0.000  0.000  0.000
   30  0.000  0.000  0.000  0.000
   31  0.000  0.000  0.000  0.000
   32  0.000  0.000  0.000  0.000
   33  0.000  0.000  0.000  0.000
   34  0.000  0.000  0.000  0.000
   35  0.000  0.000  0.000  0.000
   36  0.009  0.009  0.014  0.033
   37  0.736  0.015  0.000  0.751
   38  0.118  0.024  0.000  0.142
tot    0.863  0.049  0.014  0.926
 
band     2 # energy   -9.15544278 # occ.  2.00000000
 
ion      s      p      d    tot
    1  0.006  0.001  0.000  0.006
    2  0.006  0.001  0.000  0.006
    3  0.006  0.001  0.000  0.006
    4  0.006  0.001  0.000  0.006
    5  0.006  0.001  0.000  0.006
    6  0.006  0.001  0.000  0.006
    7  0.006  0.001  0.000  0.006
    8  0.006  0.001  0.000  0.006
    9  0.006  0.001  0.000  0.006
   10  0.022  0.000  0.000  0.022
   11  0.022  0.000  0.000  0.022
   12  0.022  0.000  0.000  0.022
   13  0.022  0.000  0.000  0.022
   14  0.022  0.000  0.000  0.022
   15  0.021  0.000  0.000  0.021
   16  0.022  0.000  0.000  0.022
   17  0.021  0.000  0.000  0.021
   18  0.021  0.000  0.000  0.021
   19  0.023  0.000  0.000  0.023
   20  0.026  0.000  0.000  0.027
   21  0.026  0.000  0.000  0.027
   22  0.023  0.000  0.000  0.024
   23  0.026  0.000  0.000  0.027
   24  0.023  0.000  0.000  0.024
   25  0.023  0.000  0.000  0.023
   26  0.023  0.000  0.000  0.023
   27  0.023  0.000  0.000  0.024
   28  0.007  0.001  0.000  0.008
   29  0.008  0.001  0.000  0.009
   30  0.008  0.001  0.000  0.009
   31  0.008  0.001  0.000  0.009
   32  0.008  0.001  0.000  0.009
   33  0.008  0.001  0.000  0.009
   34  0.008  0.001  0.000  0.009
   35  0.007  0.001  0.000  0.008
   36  0.030  0.000  0.003  0.034
   37  0.000  0.023  0.000  0.023
   38  0.008  0.001  0.000  0.009
tot    0.562  0.038  0.004  0.605
 
band     3 # energy   -8.39790865 # occ.  2.00000000
 
ion      s      p      d    tot
    1  0.004  0.000  0.000  0.004
    2  0.004  0.000  0.000  0.004
    3  0.004  0.000  0.000  0.004
    4  0.004  0.000  0.000  0.004
    5  0.003  0.000  0.000  0.004
    6  0.004  0.000  0.000  0.004
    7  0.004  0.000  0.000  0.004
    8  0.004  0.000  0.000  0.004
    9  0.004  0.000  0.000  0.004
   10  0.006  0.000  0.000  0.006
   11  0.005  0.000  0.000  0.005
   12  0.006  0.000  0.000  0.006
   13  0.005  0.000  0.000  0.005
   14  0.005  0.000  0.000  0.005
   15  0.006  0.000  0.000  0.007
   16  0.006  0.000  0.000  0.006
   17  0.006  0.000  0.000  0.007
   18  0.006  0.000  0.000  0.007
   19  0.000  0.000  0.000  0.001
   20  0.001  0.002  0.001  0.004
   21  0.001  0.002  0.001  0.004
   22  0.000  0.000  0.000  0.001
   23  0.001  0.002  0.001  0.004
   24  0.000  0.000  0.000  0.001
   25  0.000  0.000  0.000  0.001
   26  0.000  0.000  0.000  0.001
   27  0.000  0.000  0.000  0.001
   28  0.000  0.000  0.000  0.000
   29  0.001  0.000  0.000  0.002
   30  0.001  0.000  0.000  0.002
   31  0.001  0.000  0.000  0.002
   32  0.001  0.000  0.000  0.002
   33  0.001  0.000  0.000  0.002
   34  0.001  0.000  0.000  0.002
   35  0.000  0.000  0.000  0.000
   36  0.080  0.018  0.096  0.194
   37  0.014  0.393  0.000  0.406
   38  0.134  0.014  0.000  0.148
tot    0.325  0.438  0.103  0.866
 
band     4 # energy   -7.77014557 # occ.  2.00000000
 
ion      s      p      d    tot
    1  0.015  0.001  0.000  0.016
    2  0.015  0.001  0.000  0.016
    3  0.015  0.001  0.000  0.016
    4  0.015  0.001  0.000  0.016
    5  0.015  0.001  0.000  0.016
    6  0.015  0.001  0.000  0.016
    7  0.015  0.001  0.000  0.016
    8  0.015  0.001  0.000  0.016
    9  0.015  0.001  0.000  0.016
   10  0.007  0.002  0.000  0.010
   11  0.008  0.002  0.000  0.010
   12  0.007  0.002  0.000  0.010
   13  0.008  0.002  0.000  0.010
   14  0.008  0.002  0.000  0.010
   15  0.007  0.002  0.000  0.009
   16  0.007  0.002  0.000  0.010
   17  0.007  0.002  0.000  0.009
   18  0.007  0.002  0.000  0.009
   19  0.011  0.002  0.000  0.014
   20  0.006  0.002  0.001  0.009
   21  0.006  0.002  0.001  0.009
   22  0.011  0.002  0.000  0.013
   23  0.006  0.002  0.001  0.009
   24  0.011  0.002  0.000  0.013
   25  0.011  0.002  0.000  0.014
   26  0.011  0.002  0.000  0.014
   27  0.011  0.002  0.000  0.013
   28  0.019  0.001  0.000  0.020
   29  0.017  0.001  0.001  0.018
   30  0.017  0.001  0.001  0.018
   31  0.017  0.001  0.001  0.018
   32  0.017  0.001  0.001  0.018
   33  0.017  0.001  0.001  0.018
   34  0.017  0.001  0.001  0.018
   35  0.018  0.001  0.000  0.020
   36  0.005  0.009  0.044  0.058
   37  0.005  0.066  0.000  0.071
   38  0.021  0.002  0.000  0.023
tot    0.455  0.124  0.062  0.641
 
band     5 # energy   -6.26660999 # occ.  2.00000000
 
ion      s      p      d    tot
    1  0.016  0.000  0.006  0.022
    2  0.016  0.000  0.005  0.022
    3  0.016  0.000  0.005  0.022
    4  0.016  0.000  0.005  0.022
    5  0.015  0.000  0.006  0.020
    6  0.016  0.000  0.005  0.022
    7  0.016  0.000  0.005  0.022
    8  0.016  0.000  0.005  0.022
    9  0.019  0.000  0.005  0.024
   10  0.003  0.004  0.001  0.009
   11  0.004  0.004  0.001  0.009
   12  0.003  0.004  0.001  0.009
   13  0.004  0.004  0.001  0.009
   14  0.004  0.004  0.001  0.009
   15  0.002  0.003  0.002  0.007
   16  0.003  0.004  0.001  0.009
   17  0.002  0.003  0.002  0.007
   18  0.002  0.003  0.002  0.007
   19  0.006  0.003  0.003  0.012
   20  0.007  0.003  0.005  0.016
   21  0.007  0.003  0.005  0.016
   22  0.004  0.003  0.003  0.010
   23  0.007  0.003  0.005  0.016
   24  0.004  0.003  0.003  0.010
   25  0.006  0.003  0.003  0.012
   26  0.006  0.003  0.003  0.012
   27  0.004  0.003  0.003  0.010
   28  0.013  0.000  0.006  0.020
   29  0.018  0.000  0.008  0.026
   30  0.018  0.000  0.008  0.026
   31  0.018  0.000  0.008  0.026
   32  0.018  0.000  0.008  0.026
   33  0.018  0.000  0.008  0.026
   34  0.018  0.000  0.008  0.026
   35  0.015  0.000  0.006  0.021
   36  0.027  0.000  0.041  0.067
   37  0.000  0.000  0.000  0.001
   38  0.000  0.000  0.000  0.000
tot    0.387  0.061  0.199  0.648
 
band     6 # energy   -6.14474681 # occ.  2.00000000
 
ion      s      p      d    tot
    1  0.000  0.003  0.005  0.008
    2  0.009  0.002  0.002  0.013
    3  0.002  0.001  0.002  0.005
    4  0.009  0.002  0.002  0.013
    5  0.000  0.002  0.003  0.005
    6  0.002  0.001  0.002  0.005
    7  0.002  0.001  0.002  0.005
    8  0.002  0.001  0.002  0.005
    9  0.000  0.000  0.003  0.003
   10  0.057  0.004  0.004  0.065
   11  0.005  0.010  0.003  0.018
   12  0.014  0.003  0.011  0.028
   13  0.005  0.010  0.003  0.018
   14  0.021  0.000  0.006  0.027
   15  0.002  0.004  0.008  0.014
   16  0.014  0.003  0.011  0.028
   17  0.002  0.004  0.008  0.014
   18  0.009  0.003  0.003  0.014
   19  0.008  0.010  0.004  0.022
   20  0.064  0.004  0.006  0.074
   21  0.016  0.002  0.014  0.032
   22  0.001  0.006  0.007  0.013
   23  0.016  0.002  0.014  0.032
   24  0.003  0.002  0.003  0.009
   25  0.033  0.000  0.007  0.040
   26  0.008  0.010  0.004  0.022
   27  0.001  0.006  0.007  0.013
   28  0.000  0.003  0.004  0.007
   29  0.011  0.003  0.003  0.017
   30  0.006  0.001  0.003  0.010
   31  0.011  0.003  0.003  0.017
   32  0.001  0.001  0.003  0.005
   33  0.006  0.001  0.003  0.010
   34  0.001  0.001  0.003  0.005
   35  0.000  0.000  0.003  0.003
   36  0.000  0.004  0.025  0.030
   37  0.000  0.000  0.000  0.000
   38  0.000  0.000  0.000  0.000
tot    0.342  0.112  0.196  0.651
 
band     7 # energy   -6.14457343 # occ.  2.00000000
 
ion      s      p      d    tot
    1  0.000  0.003  0.005  0.008
    2  0.000  0.001  0.002  0.003
    3  0.007  0.002  0.002  0.011
    4  0.000  0.001  0.002  0.003
    5  0.000  0.002  0.003  0.005
    6  0.007  0.002  0.002  0.010
    7  0.007  0.002  0.002  0.011
    8  0.007  0.002  0.002  0.010
    9  0.000  0.000  0.003  0.003
   10  0.000  0.002  0.014  0.016
   11  0.016  0.003  0.005  0.025
   12  0.043  0.004  0.006  0.053
   13  0.016  0.003  0.005  0.025
   14  0.000  0.013  0.003  0.015
   15  0.007  0.003  0.004  0.014
   16  0.043  0.004  0.006  0.053
   17  0.007  0.003  0.004  0.014
   18  0.000  0.004  0.009  0.014
   19  0.024  0.003  0.006  0.034
   20  0.000  0.001  0.017  0.018
   21  0.048  0.003  0.008  0.060
   22  0.003  0.003  0.005  0.010
   23  0.048  0.003  0.008  0.060
   24  0.000  0.007  0.008  0.014
   25  0.000  0.013  0.003  0.016
   26  0.024  0.003  0.006  0.034
   27  0.003  0.003  0.005  0.010
   28  0.000  0.003  0.004  0.007
   29  0.001  0.001  0.003  0.004
   30  0.006  0.002  0.004  0.012
   31  0.001  0.001  0.003  0.004
   32  0.011  0.003  0.003  0.016
   33  0.006  0.002  0.004  0.012
   34  0.011  0.003  0.003  0.016
   35  0.000  0.000  0.003  0.003
   36  0.000  0.004  0.025  0.030
   37  0.000  0.000  0.000  0.000
   38  0.000  0.000  0.000  0.000
tot    0.342  0.112  0.196  0.651
 
band     8 # energy   -6.11064668 # occ.  2.00000000
 
ion      s      p      d    tot
    1  0.000  0.000  0.002  0.003
    2  0.010  0.002  0.002  0.014
    3  0.003  0.001  0.002  0.006
    4  0.010  0.002  0.002  0.014
    5  0.000  0.001  0.004  0.006
    6  0.002  0.001  0.002  0.006
    7  0.002  0.001  0.002  0.006
    8  0.002  0.001  0.002  0.006
    9  0.000  0.003  0.005  0.008
   10  0.000  0.010  0.003  0.014
   11  0.029  0.004  0.005  0.038
   12  0.000  0.003  0.005  0.008
   13  0.029  0.003  0.006  0.038
   14  0.000  0.000  0.015  0.016
   15  0.037  0.004  0.006  0.047
   16  0.000  0.003  0.005  0.008
   17  0.037  0.004  0.006  0.047
   18  0.000  0.009  0.008  0.016
   19  0.023  0.004  0.005  0.032
   20  0.000  0.014  0.001  0.015
   21  0.004  0.004  0.004  0.012
   22  0.045  0.004  0.006  0.055
   23  0.004  0.004  0.005  0.012
   24  0.000  0.007  0.010  0.017
   25  0.000  0.001  0.015  0.016
   26  0.023  0.004  0.005  0.032
   27  0.045  0.004  0.006  0.055
   28  0.000  0.001  0.004  0.005
   29  0.012  0.003  0.003  0.018
   30  0.004  0.002  0.003  0.009
   31  0.012  0.003  0.003  0.018
   32  0.002  0.001  0.003  0.006
   33  0.004  0.002  0.003  0.009
   34  0.002  0.001  0.003  0.006
   35  0.000  0.004  0.006  0.010
   36  0.000  0.002  0.012  0.014
   37  0.000  0.000  0.000  0.000
   38  0.000  0.000  0.000  0.000
tot    0.343  0.116  0.181  0.640
 
band     9 # energy   -6.11048196 # occ.  2.00000000
 
ion      s      p      d    tot
    1  0.000  0.000  0.002  0.003
    2  0.000  0.001  0.002  0.003
    3  0.007  0.002  0.002  0.011
    4  0.000  0.001  0.002  0.003
    5  0.000  0.001  0.004  0.006
    6  0.007  0.002  0.002  0.011
    7  0.007  0.002  0.002  0.012
    8  0.007  0.002  0.002  0.011
    9  0.000  0.003  0.005  0.008
   10  0.001  0.001  0.005  0.006
   11  0.010  0.001  0.012  0.023
   12  0.000  0.008  0.004  0.012
   13  0.010  0.001  0.012  0.023
   14  0.039  0.005  0.002  0.045
   15  0.012  0.007  0.007  0.026
   16  0.000  0.008  0.004  0.012
   17  0.012  0.007  0.007  0.027
   18  0.050  0.002  0.006  0.057
   19  0.008  0.002  0.012  0.021
   20  0.005  0.001  0.006  0.011
   21  0.001  0.010  0.002  0.014
   22  0.016  0.006  0.009  0.030
   23  0.001  0.010  0.002  0.014
   24  0.060  0.003  0.005  0.068
   25  0.030  0.004  0.002  0.037
   26  0.008  0.002  0.012  0.021
   27  0.015  0.006  0.009  0.030
   28  0.000  0.001  0.004  0.005
   29  0.000  0.001  0.003  0.004
   30  0.008  0.002  0.003  0.013
   31  0.000  0.001  0.003  0.004
   32  0.010  0.003  0.003  0.016
   33  0.008  0.002  0.003  0.013
   34  0.010  0.003  0.003  0.016
   35  0.000  0.004  0.006  0.010
   36  0.000  0.002  0.012  0.014
   37  0.000  0.000  0.000  0.000
   38  0.000  0.000  0.000  0.000
tot    0.343  0.116  0.181  0.640
 
band    10 # energy   -6.09566901 # occ.  2.00000000
 
ion      s      p      d    tot
    1  0.018  0.003  0.001  0.022
    2  0.000  0.002  0.004  0.006
    3  0.000  0.002  0.004  0.006
    4  0.000  0.002  0.004  0.006
    5  0.000  0.000  0.000  0.000
    6  0.000  0.002  0.004  0.006
    7  0.000  0.002  0.004  0.006
    8  0.000  0.002  0.004  0.006
    9  0.014  0.002  0.001  0.017
   10  0.026  0.003  0.008  0.038
   11  0.001  0.001  0.010  0.013
   12  0.026  0.003  0.008  0.038
   13  0.001  0.001  0.010  0.013
   14  0.001  0.001  0.010  0.013
   15  0.020  0.009  0.002  0.031
   16  0.026  0.003  0.008  0.038
   17  0.020  0.009  0.002  0.031
   18  0.020  0.009  0.002  0.031
   19  0.015  0.009  0.003  0.026
   20  0.002  0.001  0.011  0.013
   21  0.002  0.001  0.011  0.014
   22  0.029  0.004  0.007  0.041
   23  0.002  0.001  0.011  0.014
   24  0.030  0.004  0.007  0.041
   25  0.015  0.009  0.003  0.027
   26  0.015  0.009  0.003  0.026
   27  0.029  0.004  0.007  0.041
   28  0.015  0.002  0.000  0.018
   29  0.000  0.002  0.004  0.006
   30  0.000  0.002  0.004  0.006
   31  0.000  0.002  0.004  0.006
   32  0.000  0.002  0.004  0.006
   33  0.000  0.002  0.004  0.006
   34  0.000  0.002  0.004  0.006
   35  0.016  0.003  0.001  0.021
   36  0.000  0.000  0.000  0.001
   37  0.000  0.000  0.000  0.001
   38  0.000  0.000  0.000  0.000
tot    0.347  0.117  0.175  0.639
 
band    11 # energy   -6.06706843 # occ.  2.00000000
 
ion      s      p      d    tot
    1  0.005  0.001  0.000  0.006
    2  0.000  0.002  0.004  0.006
    3  0.000  0.002  0.004  0.006
    4  0.000  0.002  0.004  0.006
    5  0.023  0.004  0.001  0.027
    6  0.000  0.002  0.005  0.006
    7  0.000  0.002  0.004  0.006
    8  0.000  0.002  0.005  0.006
    9  0.007  0.001  0.001  0.008
   10  0.004  0.006  0.006  0.016
   11  0.032  0.008  0.003  0.044
   12  0.004  0.006  0.006  0.016
   13  0.033  0.008  0.003  0.044
   14  0.033  0.008  0.003  0.044
   15  0.013  0.000  0.013  0.026
   16  0.004  0.006  0.006  0.016
   17  0.013  0.000  0.013  0.026
   18  0.013  0.000  0.013  0.026
   19  0.014  0.001  0.010  0.025
   20  0.026  0.007  0.004  0.037
   21  0.026  0.007  0.004  0.037
   22  0.002  0.005  0.007  0.014
   23  0.026  0.007  0.004  0.037
   24  0.002  0.005  0.007  0.014
   25  0.014  0.001  0.010  0.025
   26  0.014  0.001  0.010  0.025
   27  0.002  0.005  0.007  0.014
   28  0.006  0.001  0.001  0.009
   29  0.000  0.002  0.004  0.006
   30  0.000  0.002  0.004  0.006
   31  0.000  0.002  0.004  0.006
   32  0.000  0.002  0.004  0.006
   33  0.000  0.002  0.004  0.006
   34  0.000  0.002  0.004  0.006
   35  0.002  0.000  0.000  0.003
   36  0.021  0.010  0.003  0.033
   37  0.001  0.008  0.000  0.009
   38  0.003  0.000  0.000  0.003
tot    0.345  0.128  0.186  0.659
 
band    12 # energy   -5.42209104 # occ.  2.00000000
 
ion      s      p      d    tot
    1  0.000  0.003  0.009  0.012
    2  0.018  0.003  0.005  0.026
    3  0.000  0.001  0.004  0.006
    4  0.016  0.003  0.004  0.023
    5  0.000  0.000  0.009  0.009
    6  0.009  0.002  0.005  0.016
    7  0.001  0.002  0.004  0.007
    8  0.012  0.003  0.005  0.020
    9  0.000  0.005  0.008  0.013
   10  0.000  0.005  0.014  0.019
   11  0.004  0.002  0.009  0.015
   12  0.006  0.001  0.008  0.015
   13  0.005  0.002  0.008  0.014
   14  0.000  0.002  0.014  0.016
   15  0.018  0.003  0.009  0.030
   16  0.005  0.002  0.009  0.016
   17  0.022  0.004  0.007  0.032
   18  0.000  0.000  0.020  0.020
   19  0.006  0.004  0.009  0.019
   20  0.000  0.003  0.019  0.021
   21  0.000  0.001  0.012  0.013
   22  0.008  0.003  0.007  0.018
   23  0.000  0.001  0.013  0.015
   24  0.000  0.001  0.027  0.028
   25  0.000  0.000  0.011  0.011
   26  0.008  0.005  0.008  0.021
   27  0.007  0.003  0.010  0.020
   28  0.000  0.004  0.006  0.010
   29  0.024  0.003  0.009  0.036
   30  0.000  0.002  0.010  0.012
   31  0.021  0.003  0.009  0.033
   32  0.015  0.002  0.009  0.026
   33  0.001  0.003  0.010  0.014
   34  0.020  0.002  0.009  0.030
   35  0.000  0.005  0.008  0.013
   36  0.000  0.000  0.062  0.062
   37  0.000  0.000  0.000  0.000
   38  0.000  0.000  0.000  0.000
tot    0.225  0.088  0.398  0.712
 
band    13 # energy   -5.42209029 # occ.  2.00000000
 
ion      s      p      d    tot
    1  0.000  0.003  0.009  0.012
    2  0.001  0.002  0.004  0.007
    3  0.019  0.004  0.005  0.027
    4  0.003  0.002  0.004  0.009
    5  0.000  0.000  0.009  0.009
    6  0.010  0.002  0.004  0.016
    7  0.017  0.003  0.005  0.025
    8  0.006  0.002  0.004  0.013
    9  0.000  0.005  0.008  0.013
   10  0.008  0.001  0.006  0.015
   11  0.002  0.002  0.012  0.015
   12  0.001  0.004  0.013  0.018
   13  0.001  0.002  0.013  0.016
   14  0.005  0.002  0.006  0.014
   15  0.009  0.002  0.015  0.025
   16  0.003  0.003  0.012  0.017
   17  0.005  0.001  0.017  0.023
   18  0.026  0.004  0.004  0.034
   19  0.003  0.002  0.010  0.015
   20  0.000  0.001  0.011  0.011
   21  0.000  0.002  0.017  0.020
   22  0.002  0.002  0.023  0.026
   23  0.000  0.002  0.016  0.018
   24  0.010  0.004  0.002  0.016
   25  0.009  0.006  0.008  0.023
   26  0.002  0.001  0.010  0.013
   27  0.003  0.002  0.019  0.024
   28  0.000  0.004  0.006  0.010
   29  0.003  0.002  0.010  0.015
   30  0.027  0.002  0.009  0.038
   31  0.006  0.002  0.010  0.018
   32  0.012  0.003  0.009  0.024
   33  0.026  0.002  0.009  0.037
   34  0.007  0.003  0.010  0.020
   35  0.000  0.005  0.008  0.013
   36  0.000  0.000  0.062  0.062
   37  0.000  0.000  0.000  0.000
   38  0.000  0.000  0.000  0.000
tot    0.225  0.088  0.398  0.712
 
band    14 # energy   -5.40676155 # occ.  2.00000000
 
ion      s      p      d    tot
    1  0.001  0.001  0.010  0.012
    2  0.006  0.001  0.010  0.016
    3  0.006  0.001  0.010  0.016
    4  0.006  0.001  0.010  0.016
    5  0.019  0.000  0.007  0.026
    6  0.006  0.001  0.010  0.016
    7  0.006  0.001  0.010  0.016
    8  0.006  0.001  0.010  0.016
    9  0.004  0.001  0.010  0.015
   10  0.011  0.000  0.022  0.033
   11  0.002  0.000  0.022  0.025
   12  0.011  0.000  0.022  0.033
   13  0.002  0.000  0.022  0.025
   14  0.002  0.000  0.022  0.025
   15  0.010  0.000  0.023  0.032
   16  0.011  0.000  0.022  0.033
   17  0.010  0.000  0.023  0.032
   18  0.010  0.000  0.023  0.032
   19  0.009  0.001  0.017  0.027
   20  0.002  0.000  0.024  0.026
   21  0.002  0.000  0.024  0.026
   22  0.005  0.000  0.016  0.021
   23  0.002  0.000  0.024  0.026
   24  0.005  0.000  0.016  0.021
   25  0.009  0.001  0.017  0.027
   26  0.009  0.001  0.017  0.027
   27  0.005  0.000  0.016  0.021
   28  0.000  0.001  0.005  0.007
   29  0.002  0.001  0.009  0.013
   30  0.002  0.001  0.009  0.013
   31  0.002  0.001  0.009  0.013
   32  0.002  0.001  0.009  0.013
   33  0.002  0.001  0.009  0.013
   34  0.002  0.001  0.009  0.013
   35  0.000  0.001  0.005  0.005
   36  0.023  0.000  0.028  0.052
   37  0.000  0.000  0.000  0.000
   38  0.000  0.000  0.000  0.000
tot    0.211  0.021  0.550  0.782
 
band    15 # energy   -5.35332903 # occ.  2.00000000
 
ion      s      p      d    tot
    1  0.000  0.003  0.010  0.013
    2  0.021  0.004  0.006  0.031
    3  0.001  0.002  0.005  0.008
    4  0.021  0.004  0.006  0.030
    5  0.000  0.006  0.010  0.016
    6  0.011  0.003  0.006  0.020
    7  0.002  0.002  0.005  0.009
    8  0.012  0.003  0.006  0.021
    9  0.000  0.001  0.013  0.014
   10  0.019  0.005  0.009  0.032
   11  0.005  0.003  0.021  0.029
   12  0.004  0.001  0.018  0.023
   13  0.004  0.003  0.022  0.029
   14  0.019  0.003  0.005  0.028
   15  0.000  0.003  0.015  0.018
   16  0.005  0.001  0.017  0.024
   17  0.000  0.003  0.015  0.018
   18  0.000  0.000  0.009  0.009
   19  0.001  0.002  0.017  0.020
   20  0.020  0.006  0.003  0.029
   21  0.004  0.002  0.023  0.029
   22  0.001  0.001  0.011  0.014
   23  0.005  0.002  0.022  0.029
   24  0.006  0.003  0.010  0.018
   25  0.003  0.000  0.006  0.009
   26  0.001  0.002  0.018  0.020
   27  0.002  0.001  0.011  0.014
   28  0.000  0.002  0.009  0.012
   29  0.015  0.004  0.006  0.025
   30  0.000  0.001  0.004  0.006
   31  0.015  0.003  0.006  0.024
   32  0.009  0.003  0.006  0.018
   33  0.001  0.001  0.004  0.007
   34  0.010  0.003  0.006  0.019
   35  0.000  0.001  0.008  0.009
   36  0.000  0.009  0.030  0.039
   37  0.000  0.001  0.000  0.001
   38  0.000  0.000  0.000  0.000
tot    0.218  0.097  0.399  0.714
 
band    16 # energy   -5.35330865 # occ.  2.00000000
 
ion      s      p      d    tot
    1  0.000  0.003  0.010  0.013
    2  0.001  0.002  0.006  0.009
    3  0.022  0.004  0.006  0.031
    4  0.002  0.002  0.006  0.010
    5  0.000  0.006  0.010  0.016
    6  0.012  0.003  0.005  0.020
    7  0.021  0.004  0.006  0.031
    8  0.011  0.003  0.005  0.019
    9  0.000  0.000  0.013  0.014
   10  0.000  0.000  0.020  0.020
   11  0.014  0.003  0.011  0.028
   12  0.015  0.004  0.011  0.030
   13  0.015  0.003  0.010  0.028
   14  0.000  0.003  0.027  0.029
   15  0.000  0.001  0.011  0.012
   16  0.014  0.004  0.012  0.029
   17  0.000  0.001  0.011  0.012
   18  0.000  0.004  0.017  0.021
   19  0.002  0.001  0.010  0.013
   20  0.000  0.001  0.029  0.030
   21  0.015  0.005  0.009  0.029
   22  0.005  0.002  0.010  0.017
   23  0.014  0.005  0.010  0.029
   24  0.000  0.001  0.011  0.012
   25  0.000  0.003  0.021  0.024
   26  0.002  0.001  0.009  0.012
   27  0.004  0.002  0.010  0.017
   28  0.000  0.002  0.009  0.012
   29  0.002  0.001  0.005  0.008
   30  0.016  0.004  0.007  0.027
   31  0.002  0.001  0.005  0.009
   32  0.008  0.002  0.005  0.015
   33  0.016  0.004  0.007  0.026
   34  0.007  0.002  0.005  0.014
   35  0.000  0.001  0.008  0.009
   36  0.000  0.009  0.030  0.039
   37  0.000  0.001  0.000  0.001
   38  0.000  0.000  0.000  0.000
tot    0.218  0.097  0.399  0.714
 
band    17 # energy   -5.33778579 # occ.  2.00000000
 
ion      s      p      d    tot
    1  0.037  0.003  0.000  0.041
    2  0.000  0.003  0.010  0.013
    3  0.000  0.003  0.010  0.013
    4  0.000  0.003  0.010  0.013
    5  0.000  0.000  0.001  0.001
    6  0.000  0.003  0.010  0.013
    7  0.000  0.003  0.010  0.013
    8  0.000  0.003  0.010  0.013
    9  0.027  0.003  0.001  0.031
   10  0.008  0.004  0.011  0.023
   11  0.002  0.000  0.014  0.016
   12  0.008  0.004  0.011  0.023
   13  0.002  0.000  0.014  0.016
   14  0.002  0.000  0.014  0.016
   15  0.007  0.003  0.018  0.028
   16  0.008  0.004  0.011  0.023
   17  0.007  0.003  0.018  0.028
   18  0.006  0.003  0.018  0.027
   19  0.005  0.004  0.017  0.026
   20  0.000  0.000  0.014  0.015
   21  0.000  0.000  0.014  0.015
   22  0.012  0.003  0.010  0.025
   23  0.000  0.000  0.014  0.015
   24  0.012  0.003  0.010  0.025
   25  0.005  0.004  0.017  0.026
   26  0.005  0.004  0.017  0.026
   27  0.012  0.003  0.010  0.025
   28  0.039  0.003  0.000  0.043
   29  0.000  0.003  0.010  0.013
   30  0.000  0.003  0.010  0.013
   31  0.000  0.003  0.010  0.013
   32  0.000  0.003  0.010  0.013
   33  0.000  0.003  0.010  0.013
   34  0.000  0.003  0.010  0.013
   35  0.026  0.004  0.002  0.031
   36  0.000  0.000  0.000  0.000
   37  0.000  0.000  0.000  0.000
   38  0.000  0.000  0.000  0.000
tot    0.230  0.093  0.381  0.704
 
band    18 # energy   -5.29492087 # occ.  2.00000000
 
ion      s      p      d    tot
    1  0.011  0.000  0.001  0.012
    2  0.000  0.003  0.010  0.013
    3  0.000  0.003  0.010  0.013
    4  0.000  0.003  0.010  0.013
    5  0.029  0.005  0.002  0.036
    6  0.000  0.003  0.010  0.013
    7  0.000  0.003  0.010  0.013
    8  0.000  0.003  0.010  0.013
    9  0.017  0.001  0.000  0.018
   10  0.000  0.000  0.021  0.022
   11  0.012  0.004  0.016  0.032
   12  0.000  0.000  0.021  0.022
   13  0.012  0.004  0.016  0.032
   14  0.012  0.004  0.016  0.032
   15  0.002  0.001  0.009  0.013
   16  0.000  0.000  0.021  0.022
   17  0.002  0.001  0.009  0.013
   18  0.002  0.001  0.009  0.013
   19  0.001  0.001  0.013  0.015
   20  0.017  0.004  0.010  0.031
   21  0.017  0.004  0.010  0.031
   22  0.000  0.002  0.021  0.023
   23  0.017  0.004  0.010  0.031
   24  0.000  0.002  0.021  0.023
   25  0.001  0.001  0.013  0.015
   26  0.001  0.001  0.013  0.015
   27  0.000  0.002  0.021  0.023
   28  0.009  0.000  0.000  0.010
   29  0.000  0.003  0.012  0.015
   30  0.000  0.003  0.012  0.015
   31  0.000  0.003  0.012  0.015
   32  0.000  0.003  0.012  0.015
   33  0.000  0.003  0.012  0.015
   34  0.000  0.003  0.012  0.015
   35  0.022  0.001  0.001  0.024
   36  0.035  0.015  0.001  0.051
   37  0.001  0.008  0.000  0.009
   38  0.003  0.000  0.000  0.003
tot    0.228  0.101  0.408  0.738
 
band    19 # energy   -4.80595354 # occ.  2.00000000
 
ion      s      p      d    tot
    1  0.000  0.001  0.025  0.026
    2  0.015  0.002  0.007  0.023
    3  0.006  0.001  0.007  0.014
    4  0.015  0.002  0.007  0.023
    5  0.000  0.001  0.013  0.013
    6  0.002  0.001  0.007  0.010
    7  0.006  0.001  0.007  0.014
    8  0.002  0.001  0.007  0.010
    9  0.000  0.003  0.004  0.007
   10  0.000  0.000  0.059  0.059
   11  0.000  0.003  0.015  0.018
   12  0.000  0.000  0.018  0.018
   13  0.000  0.003  0.015  0.018
   14  0.000  0.000  0.004  0.004
   15  0.000  0.005  0.015  0.020
   16  0.000  0.000  0.018  0.018
   17  0.000  0.005  0.015  0.020
   18  0.000  0.000  0.027  0.027
   19  0.006  0.002  0.010  0.018
   20  0.000  0.000  0.057  0.057
   21  0.000  0.000  0.024  0.024
   22  0.004  0.002  0.015  0.021
   23  0.000  0.000  0.023  0.023
   24  0.000  0.001  0.011  0.011
   25  0.000  0.000  0.019  0.019
   26  0.006  0.002  0.010  0.018
   27  0.004  0.002  0.016  0.021
   28  0.000  0.001  0.004  0.004
   29  0.006  0.000  0.020  0.026
   30  0.000  0.001  0.016  0.018
   31  0.006  0.000  0.020  0.026
   32  0.009  0.000  0.018  0.028
   33  0.000  0.001  0.016  0.018
   34  0.009  0.000  0.018  0.028
   35  0.000  0.001  0.006  0.007
   36  0.000  0.000  0.102  0.102
   37  0.000  0.002  0.000  0.002
   38  0.000  0.000  0.000  0.000
tot    0.096  0.044  0.673  0.813
 
band    20 # energy   -4.80587041 # occ.  2.00000000
 
ion      s      p      d    tot
    1  0.000  0.001  0.025  0.026
    2  0.000  0.001  0.007  0.008
    3  0.009  0.001  0.007  0.018
    4  0.000  0.001  0.007  0.008
    5  0.000  0.001  0.013  0.013
    6  0.013  0.001  0.007  0.021
    7  0.009  0.001  0.007  0.018
    8  0.013  0.001  0.007  0.021
    9  0.000  0.003  0.004  0.007
   10  0.000  0.000  0.004  0.005
   11  0.000  0.001  0.008  0.009
   12  0.000  0.000  0.045  0.045
   13  0.000  0.001  0.008  0.009
   14  0.000  0.004  0.018  0.023
   15  0.000  0.002  0.023  0.025
   16  0.000  0.000  0.045  0.045
   17  0.000  0.002  0.023  0.025
   18  0.000  0.007  0.011  0.017
   19  0.002  0.001  0.016  0.019
   20  0.000  0.000  0.012  0.013
   21  0.000  0.000  0.045  0.046
   22  0.001  0.001  0.012  0.014
   23  0.000  0.000  0.046  0.046
   24  0.005  0.002  0.017  0.024
   25  0.008  0.003  0.007  0.018
   26  0.002  0.001  0.016  0.019
   27  0.001  0.001  0.012  0.014
   28  0.000  0.001  0.004  0.004
   29  0.004  0.001  0.016  0.022
   30  0.010  0.000  0.020  0.030
   31  0.004  0.001  0.016  0.021
   32  0.001  0.001  0.018  0.020
   33  0.010  0.000  0.020  0.030
   34  0.001  0.001  0.018  0.020
   35  0.000  0.001  0.006  0.007
   36  0.000  0.000  0.102  0.102
   37  0.000  0.002  0.000  0.002
   38  0.000  0.000  0.000  0.000
tot    0.096  0.044  0.673  0.813
 
band    21 # energy   -4.67548704 # occ.  2.00000000
 
ion      s      p      d    tot
    1  0.018  0.001  0.000  0.019
    2  0.000  0.001  0.016  0.017
    3  0.000  0.001  0.016  0.017
    4  0.000  0.001  0.016  0.017
    5  0.022  0.001  0.002  0.025
    6  0.000  0.001  0.016  0.017
    7  0.000  0.001  0.016  0.017
    8  0.000  0.001  0.016  0.017
    9  0.000  0.000  0.000  0.000
   10  0.000  0.001  0.025  0.026
   11  0.001  0.003  0.032  0.035
   12  0.000  0.001  0.025  0.026
   13  0.001  0.003  0.032  0.035
   14  0.001  0.003  0.032  0.035
   15  0.000  0.001  0.005  0.006
   16  0.000  0.001  0.025  0.026