 vasp.6.2.0 18Jan21 (build Jun 12 2021 23:27:24) complex                        
  
 executed on             LinuxIFC date 2022.05.26  19:31:47
 running on   28 total cores
 distrk:  each k-point on   28 cores,    1 groups
 distr:  one band on NCORE=   1 cores,   28 groups


--------------------------------------------------------------------------------------------------------


 INCAR:
   ISMEAR = -5
   SIGMA = 0.1
   ISPIN = 1
   EDIFF = 1.d-5
   EDIFFG = -0.01
   NSW = 0
   NELM = 150
   ENCUT = 500
   ISIF = 2
   IBRION = 2
   LREAL = Auto
   ALGO = Fast
   ICHARG = 11
   LORBIT = 10
   LCHARG = .F.
   LWAVE = .F.

 POTCAR:    PAW_PBE Au 04Oct2007                  
 POTCAR:    PAW_PBE W 08Apr2002                   
 POTCAR:    PAW_PBE H 15Jun2001                   
 -----------------------------------------------------------------------------
|                                                                             |
|           W    W    AA    RRRRR   N    N  II  N    N   GGGG   !!!           |
|           W    W   A  A   R    R  NN   N  II  NN   N  G    G  !!!           |
|           W    W  A    A  R    R  N N  N  II  N N  N  G       !!!           |
|           W WW W  AAAAAA  RRRRR   N  N N  II  N  N N  G  GGG   !            |
|           WW  WW  A    A  R   R   N   NN  II  N   NN  G    G                |
|           W    W  A    A  R    R  N    N  II  N    N   GGGG   !!!           |
|                                                                             |
|     For optimal performance we recommend to set                             |
|       NCORE = 2 up to number-of-cores-per-socket                            |
|     NCORE specifies how many cores store one orbital (NPAR=cpu/NCORE).      |
|     This setting can greatly improve the performance of VASP for DFT.       |
|     The default, NCORE=1 might be grossly inefficient on modern             |
|     multi-core architectures or massively parallel machines. Do your        |
|     own testing! More info at https://www.vasp.at/wiki/index.php/NCORE      |
|     Unfortunately you need to use the default for GW and RPA                |
|     calculations (for HF NCORE is supported but not extensively tested      |
|     yet).                                                                   |
|                                                                             |
 -----------------------------------------------------------------------------

 POTCAR:    PAW_PBE Au 04Oct2007                  
   VRHFIN =Au: s1d10                                                                                
   LEXCH  = PE                                                                                      
   EATOM  =   926.0867 eV,   68.0654 Ry                                                             
                                                                                                    
   TITEL  = PAW_PBE Au 04Oct2007                                                                    
   LULTRA =        F    use ultrasoft PP ?                                                          
   IUNSCR =        1    unscreen: 0-lin 1-nonlin 2-no                                               
   RPACOR =    2.330    partial core radius                                                         
   POMASS =  196.966; ZVAL   =   11.000    mass and valenz                                          
   RCORE  =    2.500    outmost cutoff radius                                                       
   RWIGS  =    2.840; RWIGS  =    1.503    wigner-seitz radius (au A)                               
   ENMAX  =  229.943; ENMIN  =  172.457 eV                                                          
   ICORE  =        3    local potential                                                             
   LCOR   =        T    correct aug charges                                                         
   LPAW   =        T    paw PP                                                                      
   EAUG   =  356.670                                                                                
   DEXC   =    0.000                                                                                
   RMAX   =    2.562    core radius for proj-oper                                                   
   RAUG   =    1.300    factor for augmentation sphere                                              
   RDEP   =    2.598    radius for radial grids                                                     
   RDEPT  =    2.193    core radius for aug-charge                                                  
                                                                                                    
   Atomic configuration                                                                             
   16 entries                                                                                       
     n  l   j            E        occ.                                                              
     1  0  0.50    -80748.5001   2.0000                                                             
     2  0  0.50    -14244.7466   2.0000                                                             
     2  1  1.50    -12310.9591   6.0000                                                             
     3  0  0.50     -3362.1768   2.0000                                                             
     3  1  1.50     -2801.5463   6.0000                                                             
     3  2  2.50     -2203.8206  10.0000                                                             
     4  0  0.50      -729.8168   2.0000                                                             
     4  1  1.50      -546.0527   6.0000                                                             
     4  2  2.50      -325.7302  10.0000                                                             
     4  3  3.50       -81.1472  14.0000                                                             
     5  0  0.50      -108.3201   2.0000                                                             
     5  1  1.50       -59.7479   6.0000                                                             
     5  2  2.50        -6.8783  10.0000                                                             
     6  0  0.50        -5.7602   1.0000                                                             
     6  1  1.50        -6.8029   0.0000                                                             
     5  3  2.50        -1.3606   0.0000                                                             
   Description                                                                                      
     l       E           TYP  RCUT    TYP  RCUT                                                     
     2     -6.8782861     23  2.500                                                                 
     2     -8.2388687     23  2.500                                                                 
     0     -5.7601759     23  2.500                                                                 
     0     -0.8493231     23  2.500                                                                 
     1     -2.7211652     23  2.500                                                                 
     1     27.2116520     23  2.500                                                                 
     3     -1.3605826     23  2.500                                                                 
  local pseudopotential read in
  partial core-charges read in
  partial kinetic energy density read in
  atomic valenz-charges read in
  non local Contribution for L=           2  read in
    real space projection operators read in
  non local Contribution for L=           2  read in
    real space projection operators read in
  non local Contribution for L=           0  read in
    real space projection operators read in
  non local Contribution for L=           0  read in
    real space projection operators read in
  non local Contribution for L=           1  read in
    real space projection operators read in
  non local Contribution for L=           1  read in
    real space projection operators read in
    PAW grid and wavefunctions read in
 
   number of l-projection  operators is LMAX  =           6
   number of lm-projection operators is LMMAX =          18
 
 POTCAR:    PAW_PBE W 08Apr2002                   
   VRHFIN =W : 6s5d                                                                                 
   LEXCH  = PE                                                                                      
   EATOM  =   204.6103 eV,   15.0384 Ry                                                             
                                                                                                    
   TITEL  = PAW_PBE W 08Apr2002                                                                     
   LULTRA =        F    use ultrasoft PP ?                                                          
   IUNSCR =        1    unscreen: 0-lin 1-nonlin 2-no                                               
   RPACOR =    2.330    partial core radius                                                         
   POMASS =  183.850; ZVAL   =    6.000    mass and valenz                                          
   RCORE  =    2.750    outmost cutoff radius                                                       
   RWIGS  =    2.750; RWIGS  =    1.455    wigner-seitz radius (au A)                               
   ENMAX  =  223.057; ENMIN  =  167.293 eV                                                          
   RCLOC  =    2.147    cutoff for local pot                                                        
   LCOR   =        T    correct aug charges                                                         
   LPAW   =        T    paw PP                                                                      
   EAUG   =  373.438                                                                                
   DEXC   =    0.000                                                                                
   RMAX   =    2.801    core radius for proj-oper                                                   
   RAUG   =    1.300    factor for augmentation sphere                                              
   RDEP   =    2.886    radius for radial grids                                                     
   RDEPT  =    2.230    core radius for aug-charge                                                  
                                                                                                    
   Atomic configuration                                                                             
   16 entries                                                                                       
     n  l   j            E        occ.                                                              
     1  0  0.50    -69465.5836   2.0000                                                             
     2  0  0.50    -11986.2642   2.0000                                                             
     2  1  1.50    -10479.8616   6.0000                                                             
     3  0  0.50     -2759.0758   2.0000                                                             
     3  1  1.50     -2313.1857   6.0000                                                             
     3  2  2.50     -1801.1185  10.0000                                                             
     4  0  0.50      -567.6791   2.0000                                                             
     4  1  1.50      -421.4694   6.0000                                                             
     4  2  2.50      -236.3473  10.0000                                                             
     4  3  3.50       -31.2666  14.0000                                                             
     5  0  0.50       -77.1085   2.0000                                                             
     5  1  1.50       -41.3856   6.0000                                                             
     5  2  2.50        -3.3185   5.0000                                                             
     6  0  0.50        -5.1438   1.0000                                                             
     6  1  0.50        -3.8096   0.0000                                                             
     5  3  2.50        -1.3606   0.0000                                                             
   Description                                                                                      
     l       E           TYP  RCUT    TYP  RCUT                                                     
     2     -3.3185288     23  2.500                                                                 
     2     -1.5965414     23  2.500                                                                 
     0     -5.1438054     23  2.500                                                                 
     0      4.9117504     23  2.500                                                                 
     1      2.7211652     23  2.750                                                                 
     1     27.2116520     23  2.750                                                                 
  local pseudopotential read in
  partial core-charges read in
  partial kinetic energy density read in
  atomic valenz-charges read in
  non local Contribution for L=           2  read in
    real space projection operators read in
  non local Contribution for L=           2  read in
    real space projection operators read in
  non local Contribution for L=           0  read in
    real space projection operators read in
  non local Contribution for L=           0  read in
    real space projection operators read in
  non local Contribution for L=           1  read in
    real space projection operators read in
  non local Contribution for L=           1  read in
    real space projection operators read in
    PAW grid and wavefunctions read in
 
   number of l-projection  operators is LMAX  =           6
   number of lm-projection operators is LMMAX =          18
 
 POTCAR:    PAW_PBE H 15Jun2001                   
   VRHFIN =H: ultrasoft test                                                                        
   LEXCH  = PE                                                                                      
   EATOM  =    12.4884 eV,    0.9179 Ry                                                             
                                                                                                    
   TITEL  = PAW_PBE H 15Jun2001                                                                     
   LULTRA =        F    use ultrasoft PP ?                                                          
   IUNSCR =        0    unscreen: 0-lin 1-nonlin 2-no                                               
   RPACOR =    0.000    partial core radius                                                         
   POMASS =    1.000; ZVAL   =    1.000    mass and valenz                                          
   RCORE  =    1.100    outmost cutoff radius                                                       
   RWIGS  =    0.700; RWIGS  =    0.370    wigner-seitz radius (au A)                               
   ENMAX  =  250.000; ENMIN  =  200.000 eV                                                          
   RCLOC  =    0.701    cutoff for local pot                                                        
   LCOR   =        T    correct aug charges                                                         
   LPAW   =        T    paw PP                                                                      
   EAUG   =  400.000                                                                                
   RMAX   =    1.123    core radius for proj-oper                                                   
   RAUG   =    1.200    factor for augmentation sphere                                              
   RDEP   =    1.112    radius for radial grids                                                     
   RDEPT  =    0.926    core radius for aug-charge                                                  
                                                                                                    
   Atomic configuration                                                                             
    2 entries                                                                                       
     n  l   j            E        occ.                                                              
     1  0  0.50        -6.4927   1.0000                                                             
     2  1  0.50        -3.4015   0.0000                                                             
   Description                                                                                      
     l       E           TYP  RCUT    TYP  RCUT                                                     
     0     -6.4927494     23  1.100                                                                 
     0      6.8029130     23  1.100                                                                 
     1     -4.0817478     23  1.100                                                                 
  local pseudopotential read in
  atomic valenz-charges read in
  non local Contribution for L=           0  read in
    real space projection operators read in
  non local Contribution for L=           0  read in
    real space projection operators read in
  non local Contribution for L=           1  read in
    real space projection operators read in
    PAW grid and wavefunctions read in
 
   number of l-projection  operators is LMAX  =           3
   number of lm-projection operators is LMMAX =           5
 
 Optimization of the real space projectors (new method)

 maximal supplied QI-value         = 15.12
 optimisation between [QCUT,QGAM] = [ 11.34, 22.83] = [ 36.00,145.93] Ry 
 Optimized for a Real-space Cutoff    1.39 Angstroem

   l    n(q)    QCUT    max X(q) W(low)/X(q) W(high)/X(q)  e(spline) 
   2      9    11.338    60.898    0.39E-03    0.42E-03    0.21E-06
   2      9    11.338    58.894    0.40E-03    0.42E-03    0.22E-06
   0      9    11.338   109.617    0.13E-03    0.20E-04    0.13E-06
   0      9    11.338    75.026    0.13E-03    0.20E-04    0.13E-06
   1      9    11.338    16.344    0.33E-04    0.24E-03    0.18E-06
   1      9    11.338    10.160    0.26E-04    0.19E-03    0.15E-06
 Optimization of the real space projectors (new method)

 maximal supplied QI-value         = 13.61
 optimisation between [QCUT,QGAM] = [ 11.43, 22.86] = [ 36.58,146.31] Ry 
 Optimized for a Real-space Cutoff    1.56 Angstroem

   l    n(q)    QCUT    max X(q) W(low)/X(q) W(high)/X(q)  e(spline) 
   2     10    11.429   130.855    0.22E-03    0.64E-03    0.11E-05
   2     10    11.429   114.007    0.22E-03    0.64E-03    0.11E-05
   0     11    11.429    84.709    0.39E-04    0.67E-04    0.23E-06
   0     11    11.429    49.163    0.35E-04    0.62E-04    0.21E-06
   1     10    11.429    15.765    0.84E-04    0.15E-03    0.24E-06
   1     10    11.429    10.638    0.58E-04    0.12E-03    0.19E-06
 Optimization of the real space projectors (new method)

 maximal supplied QI-value         = 34.20
 optimisation between [QCUT,QGAM] = [ 11.29, 22.57] = [ 35.68,142.71] Ry 
 Optimized for a Real-space Cutoff    1.16 Angstroem

   l    n(q)    QCUT    max X(q) W(low)/X(q) W(high)/X(q)  e(spline) 
   0      8    11.287    19.460    0.40E-03    0.73E-03    0.16E-06
   0      8    11.287    12.209    0.38E-03    0.70E-03    0.15E-06
   1      7    11.287     4.655    0.22E-03    0.25E-04    0.22E-06
  PAW_PBE Au 04Oct2007                  :
 energy of atom  1       EATOM= -926.0867
 kinetic energy error for atom=    0.0042 (will be added to EATOM!!)
  PAW_PBE W 08Apr2002                   :
 energy of atom  2       EATOM= -204.6103
 kinetic energy error for atom=    0.0017 (will be added to EATOM!!)
  PAW_PBE H 15Jun2001                   :
 energy of atom  3       EATOM=  -12.4884
 kinetic energy error for atom=    0.0020 (will be added to EATOM!!)
 
 
 POSCAR: Au-W-H
  positions in direct lattice
  velocities in cartesian coordinates
 exchange correlation table for  LEXCH =        8
   RHO(1)=    0.500       N(1)  =     2000
   RHO(2)=  100.500       N(2)  =     4000

 VTST: version 3.2, (02/03/18)

 CHAIN: initializing optimizer
 
 OPT: Using VASP Conjugate-Gradient optimizer
 CHAIN: Read ICHAIN            0
 
 POSCAR: Au-W-H
  positions in direct lattice
  velocities in cartesian coordinates
 


--------------------------------------------------------------------------------------------------------


 ion  position               nearest neighbor table
   1  0.000  0.000  0.238-  16 2.94  12 2.94   6 2.94   8 2.94   7 2.94   3 2.94  10 2.94   4 2.94
                             2 2.94
   2  0.333  0.000  0.238-   9 2.94  11 2.94  17 2.94  10 2.94   8 2.94   4 2.94   5 2.94   1 2.94
                             3 2.94
   3  0.667  0.000  0.238-   7 2.94  18 2.94  12 2.94   1 2.94  11 2.94   5 2.94   6 2.94   9 2.94
                             2 2.94
   4  0.000  0.333  0.238-  10 2.94   6 2.94   5 2.94  13 2.94   2 2.94  15 2.94   9 2.94   1 2.94
                             7 2.94
   5  0.333  0.333  0.238-  13 2.94   7 2.94  11 2.94   4 2.94   2 2.94  14 2.94   3 2.94   8 2.94
                             6 2.94
   6  0.667  0.333  0.238-  15 2.94  14 2.94   1 2.94  12 2.94   4 2.94   9 2.94   8 2.94   3 2.94
                             5 2.94
   7  0.000  0.667  0.238-  18 2.94   3 2.94  16 2.94   5 2.94   1 2.94  13 2.94   8 2.94   4 2.94
                             9 2.94
   8  0.333  0.667  0.238-   9 2.94  17 2.94   1 2.94   2 2.94  14 2.94  16 2.94   6 2.94   7 2.94
                             5 2.94
   9  0.667  0.667  0.238-   2 2.94   8 2.94  17 2.94   6 2.94  15 2.94   4 2.94   3 2.94  18 2.94
                             7 2.94
  10  0.111  0.111  0.346-  20 2.90  11 2.94  17 2.94   2 2.94   4 2.94   1 2.94  12 2.94  16 2.94
                            13 2.94  15 2.94  26 2.96  19 2.96
  11  0.444  0.111  0.346-  20 2.91  21 2.91  13 2.94   2 2.94  10 2.94  17 2.94   5 2.94   3 2.94
                            18 2.94  14 2.94  12 2.94  27 2.94
  12  0.778  0.111  0.346-  21 2.90  16 2.94  18 2.94   1 2.94  14 2.94  15 2.94   3 2.94   6 2.94
                            10 2.94  11 2.94  25 2.96  19 2.96
  13  0.111  0.444  0.346-  23 2.91  20 2.91   5 2.94  18 2.94  11 2.94   7 2.94   4 2.94  16 2.94
                            10 2.94  14 2.94  15 2.94  22 2.94
  14  0.444  0.444  0.346-  21 2.91  23 2.91  15 2.94   6 2.94  12 2.94   8 2.94  17 2.94   5 2.94
                            16 2.94  13 2.94  11 2.94  24 2.94
  15  0.778  0.444  0.346-  24 2.92  22 2.92  14 2.94   6 2.94  17 2.94  12 2.94   9 2.94   4 2.94
                            10 2.94  13 2.94  18 2.94  19 2.95
  16  0.111  0.778  0.346-  23 2.90  18 2.94  12 2.94   7 2.94   1 2.94   8 2.94  13 2.94  10 2.94
                            14 2.94  17 2.94  25 2.96  26 2.96
  17  0.444  0.778  0.346-  27 2.92  24 2.92   9 2.94  15 2.94   2 2.94  10 2.94  11 2.94   8 2.94
                            14 2.94  16 2.94  18 2.94  26 2.95
  18  0.778  0.778  0.346-  22 2.92  27 2.92  16 2.94   7 2.94  13 2.94  12 2.94   3 2.94  11 2.94
                             9 2.94  15 2.94  17 2.94  25 2.95
  19  0.888  0.224  0.455-  24 2.93  22 2.93  21 2.93  20 2.93  28 2.94  15 2.95  26 2.96  25 2.96
                            10 2.96  12 2.96  32 3.04  31 3.04
  20  0.222  0.222  0.452-  36 2.74  10 2.90  11 2.91  13 2.91  26 2.93  19 2.93  23 2.95  21 2.95
                            27 2.96  22 2.96  29 2.98  31 2.98
  21  0.557  0.222  0.452-  36 2.74  12 2.90  14 2.91  11 2.91  25 2.93  19 2.93  20 2.95  23 2.95
                            27 2.96  24 2.96  30 2.98  32 2.98
  22  0.886  0.557  0.454-  24 2.90  27 2.90  18 2.92  15 2.92  25 2.93  19 2.93  13 2.94  35 2.95
                            23 2.96  20 2.96  33 3.02  31 3.02
  23  0.222  0.557  0.452-  36 2.74  16 2.90  13 2.91  14 2.91  25 2.93  26 2.93  20 2.95  21 2.95
                            22 2.96  24 2.96  33 2.98  34 2.98
  24  0.557  0.557  0.454-  27 2.90  22 2.90  15 2.92  17 2.92  26 2.93  19 2.93  14 2.94  35 2.95
                            21 2.96  23 2.96  32 3.02  34 3.02
  25  0.888  0.888  0.455-  22 2.93  27 2.93  23 2.93  21 2.93  28 2.94  18 2.95  19 2.96  26 2.96
                            16 2.96  12 2.96  33 3.04  30 3.04
  26  0.224  0.888  0.455-  27 2.93  24 2.93  20 2.93  23 2.93  28 2.94  17 2.95  19 2.96  25 2.96
                            10 2.96  16 2.96  29 3.04  34 3.04
  27  0.557  0.886  0.454-  24 2.90  22 2.90  17 2.92  18 2.92  26 2.93  25 2.93  11 2.94  35 2.95
                            20 2.96  21 2.96  29 3.02  30 3.02
  28  0.000  0.000  0.563-  25 2.94  19 2.94  26 2.94  34 3.00  32 3.00  33 3.00  30 3.00  31 3.00
                            29 3.00
  29  0.334  0.013  0.566-  30 2.82  31 2.82  36 2.84  20 2.98  35 3.00  28 3.00  27 3.02  26 3.04
                            34 3.17
  30  0.653  0.013  0.566-  29 2.82  32 2.82  36 2.84  21 2.98  35 3.00  28 3.00  27 3.02  25 3.04
                            33 3.17
  31  0.013  0.334  0.566-  33 2.82  29 2.82  36 2.84  20 2.98  35 3.00  28 3.00  22 3.02  19 3.04
                            32 3.17
  32  0.653  0.334  0.566-  34 2.82  30 2.82  36 2.84  21 2.98  35 3.00  28 3.00  24 3.02  19 3.04
                            31 3.17
  33  0.013  0.653  0.566-  31 2.82  34 2.82  36 2.84  23 2.98  35 3.00  28 3.00  22 3.02  25 3.04
                            30 3.17
  34  0.334  0.653  0.566-  32 2.82  33 2.82  36 2.84  23 2.98  35 3.00  28 3.00  24 3.02  26 3.04
                            29 3.17
  35  0.667  0.667  0.563-  24 2.95  27 2.95  22 2.95  29 3.00  34 3.00  32 3.00  31 3.00  30 3.00
                            33 3.00
  36  0.333  0.333  0.549-  37 1.71  20 2.74  23 2.74  21 2.74  33 2.84  31 2.84  29 2.84  30 2.84
                            34 2.84  32 2.84
  37  0.333  0.333  0.626-  36 1.71
 
  LATTYP: Found a hexagonal cell.
 ALAT       =     8.8135128021
 C/A-ratio  =     2.5184286595
  
  Lattice vectors:
  
 A1 = (  -4.4067569092,  -7.6327256898,   0.0000000000)
 A2 = (   8.8135128021,   0.0000000000,   0.0000000000)
 A3 = (   0.0000000000,   0.0000000000,  22.1962032318)


Analysis of symmetry for initial positions (statically):
=====================================================================
 Subroutine PRICEL returns:
 Original cell was already a primitive cell.
 

 Routine SETGRP: Setting up the symmetry group for a 
 hexagonal supercell.


 Subroutine GETGRP returns: Found  6 space group operations
 (whereof  6 operations were pure point group operations)
 out of a pool of 24 trial point group operations.


The static configuration has the point symmetry C_3v.


Analysis of symmetry for dynamics (positions and initial velocities):
=====================================================================
 Subroutine PRICEL returns:
 Original cell was already a primitive cell.
 

 Routine SETGRP: Setting up the symmetry group for a 
 hexagonal supercell.


 Subroutine GETGRP returns: Found  6 space group operations
 (whereof  6 operations were pure point group operations)
 out of a pool of 24 trial point group operations.


The dynamic configuration has the point symmetry C_3v.


Analysis of constrained symmetry for selective dynamics:
=====================================================================
 Subroutine PRICEL returns:
 Original cell was already a primitive cell.
 

 Routine SETGRP: Setting up the symmetry group for a 
 hexagonal supercell.


 Subroutine GETGRP returns: Found  6 space group operations
 (whereof  6 operations were pure point group operations)
 out of a pool of 24 trial point group operations.


The constrained configuration has the point symmetry C_3v.


 Subroutine INISYM returns: Found  6 space group operations
 (whereof  6 operations are pure point group operations),
 and found     1 'primitive' translations


----------------------------------------------------------------------------------------

                                     Primitive cell                                     

  volume of cell :    1493.1636

  direct lattice vectors                    reciprocal lattice vectors
     8.813512802  0.000000000  0.000000000     0.113462137 -0.065507406  0.000000000
     4.406756909  7.632725690  0.000000000     0.000000000  0.131014796  0.000000000
     0.000000000  0.000000000 22.196203232     0.000000000  0.000000000  0.045052750

  length of vectors
     8.813512802  8.813512802 22.196203232     0.131014796  0.131014796  0.045052750

  position of ions in fractional coordinates (direct lattice)
     0.000000000  0.000000000  0.237895638
     0.333333343  0.000000000  0.237895638
     0.666666687  0.000000000  0.237895638
     1.000000000  0.333333343  0.237895638
     0.333333313  0.333333343  0.237895638
     0.666666687  0.333333343  0.237895638
     1.000000000  0.666666687  0.237895638
     0.333333343  0.666666687  0.237895638
     0.666666627  0.666666687  0.237895638
     0.111111119  0.111111112  0.345965207
     0.444444418  0.111111112  0.345965207
     0.777777791  0.111111112  0.345965207
     0.111111127  0.444444448  0.345965207
     0.444444478  0.444444448  0.345965207
     0.777777731  0.444444448  0.345965207
     0.111111090  0.777777791  0.345965207
     0.444444448  0.777777791  0.345965207
     0.777777851  0.777777791  0.345965207
     0.888108940  0.223782136  0.455069452
     0.221743954  0.221743939  0.452335038
     0.556512152  0.221743939  0.452335038
     0.886138604  0.556930728  0.453520865
     0.221743909  0.556512152  0.452335038
     0.556930728  0.556930728  0.453520865
     0.888108940  0.888108940  0.455069452
     0.223782166  0.888108940  0.455069452
     0.556930668  0.886138604  0.453520865
     0.000000000  0.000000000  0.563124211
     0.333684557  0.013163897  0.565613076
     0.653151576  0.013163897  0.565613076
     0.013163897  0.333684557  0.565613076
     0.653151576  0.333684557  0.565613076
     0.013163897  0.653151576  0.565613076
     0.333684557  0.653151576  0.565613076
     0.666666627  0.666666687  0.563100484
     0.333333313  0.333333343  0.548994823
     0.333333313  0.333333343  0.625852414

  ion indices of the primitive-cell ions
   primitive index   ion index
                 1           1
                 2           2
                 3           3
                 4           4
                 5           5
                 6           6
                 7           7
                 8           8
                 9           9
                10          10
                11          11
                12          12
                13          13
                14          14
                15          15
                16          16
                17          17
                18          18
                19          19
                20          20
                21          21
                22          22
                23          23
                24          24
                25          25
                26          26
                27          27
                28          28
                29          29
                30          30
                31          31
                32          32
                33          33
                34          34
                35          35
                36          36
                37          37

----------------------------------------------------------------------------------------

 
 
 KPOINTS: Automatic mesh                          

Automatic generation of k-mesh.
 Grid dimensions read from file:
 generate k-points for:    8    8    1

 Generating k-lattice:

  Cartesian coordinates                     Fractional coordinates (reciprocal lattice)
     0.014182767 -0.008188426  0.000000000     0.125000000 -0.000000000  0.000000000
     0.000000000  0.016376850  0.000000000     0.000000000  0.125000000  0.000000000
     0.000000000  0.000000000  0.045052750     0.000000000  0.000000000  1.000000000

  Length of vectors
     0.016376850  0.016376850  0.045052750

  Shift w.r.t. Gamma in fractional coordinates (k-lattice)
     0.000000000  0.000000000  0.000000000

 TETIRR: Found     36 inequivalent tetrahedra from      384
 
 Subroutine IBZKPT returns following result:
 ===========================================
 
 Found     10 irreducible k-points:
 
 Following reciprocal coordinates:
            Coordinates               Weight
  0.000000  0.000000  0.000000      1.000000
  0.125000 -0.000000  0.000000      6.000000
  0.250000 -0.000000  0.000000      6.000000
  0.375000  0.000000  0.000000      6.000000
  0.500000 -0.000000  0.000000      3.000000
  0.250000  0.125000  0.000000      6.000000
  0.375000  0.125000  0.000000     12.000000
  0.500000  0.125000  0.000000     12.000000
  0.500000  0.250000  0.000000      6.000000
 -0.375000  0.250000  0.000000      6.000000
 
 Following cartesian coordinates:
            Coordinates               Weight
  0.000000  0.000000  0.000000      1.000000
  0.014183 -0.008188  0.000000      6.000000
  0.028366 -0.016377  0.000000      6.000000
  0.042548 -0.024565  0.000000      6.000000
  0.056731 -0.032754  0.000000      3.000000
  0.028366 -0.000000  0.000000      6.000000
  0.042548 -0.008188  0.000000     12.000000
  0.056731 -0.016377  0.000000     12.000000
  0.056731 -0.000000  0.000000      6.000000
 -0.042548  0.057319  0.000000      6.000000
 


--------------------------------------------------------------------------------------------------------




 Dimension of arrays:
   k-points           NKPTS =     10   k-points in BZ     NKDIM =     10   number of bands    NBANDS=    252
   number of dos      NEDOS =    301   number of ions     NIONS =     37
   non local maximal  LDIM  =      6   non local SUM 2l+1 LMDIM =     18
   total plane-waves  NPLWV = 290304
   max r-space proj   IRMAX =   3166   max aug-charges    IRDMAX=  12088
   dimension x,y,z NGX =    48 NGY =   48 NGZ =  126
   dimension x,y,z NGXF=    96 NGYF=   96 NGZF=  252
   support grid    NGXF=    96 NGYF=   96 NGZF=  252
   ions per type =              35   1   1
   NGX,Y,Z   is equivalent  to a cutoff of   9.05,  9.05,  9.44 a.u.
   NGXF,Y,Z  is equivalent  to a cutoff of  18.11, 18.11, 18.87 a.u.

 SYSTEM =  unknown system                          
 POSCAR =  Au-W-H                                  

 Startparameter for this run:
   NWRITE =      2    write-flag & timer
   PREC   = normal    normal or accurate (medium, high low for compatibility)
   ISTART =      0    job   : 0-new  1-cont  2-samecut
   ICHARG =     11    charge: 1-file 2-atom 10-const
   ISPIN  =      1    spin polarized calculation?
   LNONCOLLINEAR =      F non collinear calculations
   LSORBIT =      F    spin-orbit coupling
   INIWAV =      1    electr: 0-lowe 1-rand  2-diag
   LASPH  =      F    aspherical Exc in radial PAW
   METAGGA=      F    non-selfconsistent MetaGGA calc.

 Electronic Relaxation 1
   ENCUT  =  500.0 eV  36.75 Ry    6.06 a.u.  16.07 16.07 40.47*2*pi/ulx,y,z
   ENINI  =  500.0     initial cutoff
   ENAUG  =  400.0 eV  augmentation charge cutoff
   NELM   =    150;   NELMIN=  2; NELMDL= -5     # of ELM steps 
   EDIFF  = 0.1E-04   stopping-criterion for ELM
   LREAL  =      T    real-space projection
   NLSPLINE    = F    spline interpolate recip. space projectors
   LCOMPAT=      F    compatible to vasp.4.4
   GGA_COMPAT  = T    GGA compatible to vasp.4.4-vasp.4.6
   LMAXPAW     = -100 max onsite density
   LMAXMIX     =    2 max onsite mixed and CHGCAR
   VOSKOWN=      0    Vosko Wilk Nusair interpolation
   ROPT   =   -0.00050  -0.00050  -0.00050
 Ionic relaxation
   EDIFFG = -.1E-01   stopping-criterion for IOM
   NSW    =      0    number of steps for IOM
   NBLOCK =      1;   KBLOCK =      1    inner block; outer block 
   IBRION =     -1    ionic relax: 0-MD 1-quasi-New 2-CG
   NFREE  =      1    steps in history (QN), initial steepest desc. (CG)
   ISIF   =      2    stress and relaxation
   IWAVPR =     10    prediction:  0-non 1-charg 2-wave 3-comb
   ISYM   =      2    0-nonsym 1-usesym 2-fastsym
   LCORR  =      T    Harris-Foulkes like correction to forces

   POTIM  = 0.5000    time-step for ionic-motion
   TEIN   =    0.0    initial temperature
   TEBEG  =    0.0;   TEEND  =   0.0 temperature during run
   SMASS  =  -3.00    Nose mass-parameter (am)
   estimated Nose-frequenzy (Omega)   =  0.10E-29 period in steps = 0.13E+47 mass=  -0.178E-26a.u.
   SCALEE = 1.0000    scale energy and forces
   NPACO  =    256;   APACO  = 16.0  distance and # of slots for P.C.
   PSTRESS=    0.0 pullay stress

  Mass of Ions in am
   POMASS = 196.97183.85  1.00
  Ionic Valenz
   ZVAL   =  11.00  6.00  1.00
  Atomic Wigner-Seitz radii
   RWIGS  =  -1.00 -1.00 -1.00
  virtual crystal weights 
   VCA    =   1.00  1.00  1.00
   NELECT =     392.0000    total number of electrons
   NUPDOWN=      -1.0000    fix difference up-down

 DOS related values:
   EMIN   =  10.00;   EMAX   =-10.00  energy-range for DOS
   EFERMI =   0.00
   ISMEAR =    -5;   SIGMA  =   0.10  broadening in eV -4-tet -1-fermi 0-gaus

 Electronic relaxation 2 (details)
   IALGO  =     68    algorithm
   LDIAG  =      T    sub-space diagonalisation (order eigenvalues)
   LSUBROT=      F    optimize rotation matrix (better conditioning)
   TURBO    =      0    0=normal 1=particle mesh
   IRESTART =      0    0=no restart 2=restart with 2 vectors
   NREBOOT  =      0    no. of reboots
   NMIN     =      0    reboot dimension
   EREF     =   0.00    reference energy to select bands
   IMIX   =      4    mixing-type and parameters
     AMIX     =   0.40;   BMIX     =  1.00
     AMIX_MAG =   1.60;   BMIX_MAG =  1.00
     AMIN     =   0.10
     WC   =   100.;   INIMIX=   1;  MIXPRE=   1;  MAXMIX= -45

 Intra band minimization:
   WEIMIN = 0.0000     energy-eigenvalue tresh-hold
   EBREAK =  0.99E-08  absolut break condition
   DEPER  =   0.30     relativ break condition  

   TIME   =   0.40     timestep for ELM

  volume/ion in A,a.u.               =      40.36       272.33
  Fermi-wavevector in a.u.,A,eV,Ry     =   1.048257  1.980918 14.950660  1.098843
  Thomas-Fermi vector in A             =   2.183171
 
 Write flags
   LWAVE        =      F    write WAVECAR
   LDOWNSAMPLE  =      F    k-point downsampling of WAVECAR
   LCHARG       =      F    write CHGCAR
   LVTOT        =      F    write LOCPOT, total local potential
   LVHAR        =      F    write LOCPOT, Hartree potential only
   LELF         =      F    write electronic localiz. function (ELF)
   LORBIT       =     10    0 simple, 1 ext, 2 COOP (PROOUT), +10 PAW based schemes


 Dipole corrections
   LMONO  =      F    monopole corrections only (constant potential shift)
   LDIPOL =      F    correct potential (dipole corrections)
   IDIPOL =      0    1-x, 2-y, 3-z, 4-all directions 
   EPSILON=  1.0000000 bulk dielectric constant

 Exchange correlation treatment:
   GGA     =    --    GGA type
   LEXCH   =     8    internal setting for exchange type
   VOSKOWN=      0    Vosko Wilk Nusair interpolation
   LHFCALC =     F    Hartree Fock is set to
   LHFONE  =     F    Hartree Fock one center treatment
   AEXX    =    0.0000 exact exchange contribution

 Linear response parameters
   LEPSILON=     F    determine dielectric tensor
   LRPA    =     F    only Hartree local field effects (RPA)
   LNABLA  =     F    use nabla operator in PAW spheres
   LVEL    =     F    velocity operator in full k-point grid
   LINTERFAST=   F  fast interpolation
   KINTER  =     0    interpolate to denser k-point grid
   CSHIFT  =0.1000    complex shift for real part using Kramers Kronig
   OMEGAMAX=  -1.0    maximum frequency
   DEG_THRESHOLD= 0.2000000E-02 threshold for treating states as degnerate
   RTIME   =   -0.100 relaxation time in fs
  (WPLASMAI=    0.000 imaginary part of plasma frequency in eV, 0.658/RTIME)
   DFIELD  = 0.0000000 0.0000000 0.0000000 field for delta impulse in time
 
 Orbital magnetization related:
   ORBITALMAG=     F  switch on orbital magnetization
   LCHIMAG   =     F  perturbation theory with respect to B field
   DQ        =  0.001000  dq finite difference perturbation B field
   LLRAUG    =     F  two centre corrections for induced B field



--------------------------------------------------------------------------------------------------------


 Static calculation
 charge density and potential remain constant during run
 non-spin polarized calculation
 RMM-DIIS sequential band-by-band and
  variant of blocked Davidson during initial phase
 perform sub-space diagonalisation
    before iterative eigenvector-optimisation
 no mixing
 using additional bands           56
 real space projection scheme for non local part
 use partial core corrections
 calculate Harris-corrections to forces 
   (improved forces if not selfconsistent)
 use gradient corrections 
 WARNING: stress and forces are not correct
  (second derivative of E(xc) not defined)
 use of overlap-Matrix (Vanderbilt PP)
 Fermi weights with tetrahedron method with Bloechl corrections


--------------------------------------------------------------------------------------------------------


  energy-cutoff  :      500.00
  volume of cell :     1493.16
      direct lattice vectors                 reciprocal lattice vectors
     8.813512802  0.000000000  0.000000000     0.113462137 -0.065507406  0.000000000
     4.406756909  7.632725690  0.000000000     0.000000000  0.131014796  0.000000000
     0.000000000  0.000000000 22.196203232     0.000000000  0.000000000  0.045052750

  length of vectors
     8.813512802  8.813512802 22.196203232     0.131014796  0.131014796  0.045052750


 
 k-points in units of 2pi/SCALE and weight: Automatic mesh                          
   0.00000000  0.00000000  0.00000000       0.016
   0.01418277 -0.00818843  0.00000000       0.094
   0.02836553 -0.01637685  0.00000000       0.094
   0.04254830 -0.02456528  0.00000000       0.094
   0.05673107 -0.03275370  0.00000000       0.047
   0.02836553 -0.00000000  0.00000000       0.094
   0.04254830 -0.00818843  0.00000000       0.188
   0.05673107 -0.01637685  0.00000000       0.188
   0.05673107 -0.00000000  0.00000000       0.094
  -0.04254830  0.05731898  0.00000000       0.094
 
 k-points in reciprocal lattice and weights: Automatic mesh                          
   0.00000000  0.00000000  0.00000000       0.016
   0.12500000 -0.00000000  0.00000000       0.094
   0.25000000 -0.00000000  0.00000000       0.094
   0.37500000  0.00000000  0.00000000       0.094
   0.50000000 -0.00000000  0.00000000       0.047
   0.25000000  0.12500000  0.00000000       0.094
   0.37500000  0.12500000  0.00000000       0.188
   0.50000000  0.12500000  0.00000000       0.188
   0.50000000  0.25000000  0.00000000       0.094
  -0.37500000  0.25000000  0.00000000       0.094
 
 position of ions in fractional coordinates (direct lattice) 
   0.00000000  0.00000000  0.23789564
   0.33333334  0.00000000  0.23789564
   0.66666669  0.00000000  0.23789564
   0.00000000  0.33333334  0.23789564
   0.33333331  0.33333334  0.23789564
   0.66666669  0.33333334  0.23789564
   0.00000000  0.66666669  0.23789564
   0.33333334  0.66666669  0.23789564
   0.66666663  0.66666669  0.23789564
   0.11111112  0.11111111  0.34596521
   0.44444442  0.11111111  0.34596521
   0.77777779  0.11111111  0.34596521
   0.11111113  0.44444445  0.34596521
   0.44444448  0.44444445  0.34596521
   0.77777773  0.44444445  0.34596521
   0.11111109  0.77777779  0.34596521
   0.44444445  0.77777779  0.34596521
   0.77777785  0.77777779  0.34596521
   0.88810894  0.22378214  0.45506945
   0.22174395  0.22174394  0.45233504
   0.55651215  0.22174394  0.45233504
   0.88613860  0.55693073  0.45352087
   0.22174391  0.55651215  0.45233504
   0.55693073  0.55693073  0.45352087
   0.88810894  0.88810894  0.45506945
   0.22378217  0.88810894  0.45506945
   0.55693067  0.88613860  0.45352087
   0.00000000  0.00000000  0.56312421
   0.33368456  0.01316390  0.56561308
   0.65315158  0.01316390  0.56561308
   0.01316390  0.33368456  0.56561308
   0.65315158  0.33368456  0.56561308
   0.01316390  0.65315158  0.56561308
   0.33368456  0.65315158  0.56561308
   0.66666663  0.66666669  0.56310048
   0.33333331  0.33333334  0.54899482
   0.33333331  0.33333334  0.62585241
 
 position of ions in cartesian coordinates  (Angst):
   0.00000000  0.00000000  5.28037993
   2.93783769  0.00000000  5.28037993
   5.87567538  0.00000000  5.28037993
   1.46891901  2.54424197  5.28037993
   4.40675643  2.54424197  5.28037993
   7.34459439  2.54424197  5.28037993
   2.93783803  5.08848395  5.28037993
   5.87567571  5.08848395  5.28037993
   8.81351288  5.08848395  5.28037993
   1.46891893  0.84808064  7.67911405
   4.40675623  0.84808064  7.67911405
   7.34459418  0.84808064  7.67911405
   2.93783798  3.39232256  7.67911405
   5.87567574  3.39232256  7.67911405
   8.81351263  3.39232256  7.67911405
   4.40675667  5.93656453  7.67911405
   7.34459449  5.93656453  7.67911405
  10.28243270  5.93656453  7.67911405
   8.81351299  1.70806766 10.10081404
   2.93151481  1.69251066 10.04012044
   5.88199861  1.69251066 10.04012044
  10.26425226  4.25089948 10.06644130
   4.40675655  4.24770460 10.04012044
   7.36277444  4.25089948 10.06644130
  11.74103972  6.77869192 10.10081404
   5.88598719  6.77869192 10.10081404
   8.81351299  6.76365289 10.06644130
   0.00000000  0.00000000 12.49921944
   2.99894321  0.10047641 12.55446278
   5.81456987  0.10047641 12.55446278
   1.58648690  2.54692269 12.55446278
   7.22702651  2.54692269 12.55446278
   2.99430039  4.98532682 12.55446278
   5.81921334  4.98532682 12.55446278
   8.81351288  5.08848395 12.49869278
   4.40675643  2.54424197 12.18560065
   4.40675643  2.54424197 13.89154737
 


--------------------------------------------------------------------------------------------------------


 k-point   1 :   0.0000 0.0000 0.0000  plane waves:   37827
 k-point   2 :   0.1250-0.0000 0.0000  plane waves:   37876
 k-point   3 :   0.2500-0.0000 0.0000  plane waves:   37924
 k-point   4 :   0.3750 0.0000 0.0000  plane waves:   37904
 k-point   5 :   0.5000-0.0000 0.0000  plane waves:   37912
 k-point   6 :   0.2500 0.1250 0.0000  plane waves:   37858
 k-point   7 :   0.3750 0.1250 0.0000  plane waves:   37928
 k-point   8 :   0.5000 0.1250 0.0000  plane waves:   37924
 k-point   9 :   0.5000 0.2500 0.0000  plane waves:   37926
 k-point  10 :  -0.3750 0.2500 0.0000  plane waves:   37916

 maximum and minimum number of plane-waves per node :     37928    37827

 maximum number of plane-waves:     37928
 maximum index in each direction: 
   IXMAX=   16   IYMAX=   16   IZMAX=   40
   IXMIN=  -16   IYMIN=  -16   IZMIN=  -40


 serial   3D FFT for wavefunctions
 parallel 3D FFT for charge:
    minimum data exchange during FFTs selected (reduces bandwidth)


 total amount of memory used by VASP MPI-rank0   122606. kBytes
=======================================================================

   base      :      30000. kBytes
   nonlr-proj:      14221. kBytes
   fftplans  :       4330. kBytes
   grid      :      17879. kBytes
   one-center:        575. kBytes
   wavefun   :      55601. kBytes
 
     INWAV:  cpu time    0.0000: real time    0.0000
 initial charge density was supplied:
 number of electron     391.9999998 magnetization 
 keeping initial charge density in first step


--------------------------------------------------------------------------------------------------------


 Maximum index for non-local projection operator         3035
 Maximum index for augmentation-charges          850 (set IRDMAX)


--------------------------------------------------------------------------------------------------------


 First call to EWALD:  gamma=   0.155
 Maximum number of real-space cells 4x 4x 2
 Maximum number of reciprocal cells 2x 2x 5

    FEWALD:  cpu time    0.0013: real time    0.0013


--------------------------------------- Iteration      1(   1)  ---------------------------------------


    POTLOK:  cpu time    0.0442: real time    0.0447
    SETDIJ:  cpu time    0.0047: real time    0.0048
     EDDAV:  cpu time    7.1285: real time    7.1304
 BZINTS: Fermi energy:   11.138171;  392.000000 electrons
         Band energy: 0.146877E+04;  BLOECHL correction:   -0.003429
       DOS:  cpu time    0.0102: real time    0.0102
    --------------------------------------------
      LOOP:  cpu time    7.1877: real time    7.1901

 eigenvalue-minimisations  :  5040
 total energy-change (2. order) : 0.2559236E+04  (-0.1772273E+05)
 number of electron     391.9999998 magnetization 
 augmentation part      391.9999998 magnetization 

 Free energy of the ion-electron system (eV)
  ---------------------------------------------------
  alpha Z        PSCENC =      1005.50965734
  Ewald energy   TEWEN  =     94786.66914494
  -Hartree energ DENC   =   -128588.79180920
  -exchange      EXHF   =         0.00000000
  -V(xc)+E(xc)   XCENC  =       472.15631471
  PAW double counting   =     35692.51161523   -34907.57371920
  entropy T*S    EENTRO =         0.00000000
  eigenvalues    EBANDS =      1468.77364894
  atomic energy  EATOM  =     32629.98126424
  Solvation  Ediel_sol  =         0.00000000
  ---------------------------------------------------
  free energy    TOTEN  =      2559.23611700 eV

  energy without entropy =     2559.23611700  energy(sigma->0) =     2559.23611700


--------------------------------------------------------------------------------------------------------




--------------------------------------- Iteration      1(   2)  ---------------------------------------


     EDDAV:  cpu time    7.7607: real time    7.7642
 BZINTS: Fermi energy:    1.354117;  392.000000 electrons
         Band energy:-0.108998E+04;  BLOECHL correction:   -0.036344
       DOS:  cpu time    0.0094: real time    0.0094
    --------------------------------------------
      LOOP:  cpu time    7.7701: real time    7.7736

 eigenvalue-minimisations  :  5628
 total energy-change (2. order) :-0.2558755E+04  (-0.2352671E+04)
 number of electron     391.9999998 magnetization 
 augmentation part      391.9999998 magnetization 

 Free energy of the ion-electron system (eV)
  ---------------------------------------------------
  alpha Z        PSCENC =      1005.50965734
  Ewald energy   TEWEN  =     94786.66914494
  -Hartree energ DENC   =   -128588.79180920
  -exchange      EXHF   =         0.00000000
  -V(xc)+E(xc)   XCENC  =       472.15631471
  PAW double counting   =     35692.51161523   -34907.57371920
  entropy T*S    EENTRO =         0.00000000
  eigenvalues    EBANDS =     -1089.98092409
  atomic energy  EATOM  =     32629.98126424
  Solvation  Ediel_sol  =         0.00000000
  ---------------------------------------------------
  free energy    TOTEN  =         0.48154396 eV

  energy without entropy =        0.48154396  energy(sigma->0) =        0.48154396


--------------------------------------------------------------------------------------------------------




--------------------------------------- Iteration      1(   3)  ---------------------------------------


     EDDAV:  cpu time    8.0642: real time    8.0647
 BZINTS: Fermi energy:    0.664546;  392.000000 electrons
         Band energy:-0.120879E+04;  BLOECHL correction:   -0.030207
       DOS:  cpu time    0.0099: real time    0.0099
    --------------------------------------------
      LOOP:  cpu time    8.0741: real time    8.0746

 eigenvalue-minimisations  :  5880
 total energy-change (2. order) :-0.1188100E+03  (-0.1145950E+03)
 number of electron     391.9999998 magnetization 
 augmentation part      391.9999998 magnetization 

 Free energy of the ion-electron system (eV)
  ---------------------------------------------------
  alpha Z        PSCENC =      1005.50965734
  Ewald energy   TEWEN  =     94786.66914494
  -Hartree energ DENC   =   -128588.79180920
  -exchange      EXHF   =         0.00000000
  -V(xc)+E(xc)   XCENC  =       472.15631471
  PAW double counting   =     35692.51161523   -34907.57371920
  entropy T*S    EENTRO =         0.00000000
  eigenvalues    EBANDS =     -1208.79087730
  atomic energy  EATOM  =     32629.98126424
  Solvation  Ediel_sol  =         0.00000000
  ---------------------------------------------------
  free energy    TOTEN  =      -118.32840924 eV

  energy without entropy =     -118.32840924  energy(sigma->0) =     -118.32840924


--------------------------------------------------------------------------------------------------------




--------------------------------------- Iteration      1(   4)  ---------------------------------------


     EDDAV:  cpu time    8.2231: real time    8.2236
 BZINTS: Fermi energy:    0.647464;  392.000000 electrons
         Band energy:-0.121108E+04;  BLOECHL correction:   -0.030265
       DOS:  cpu time    0.0097: real time    0.0097
    --------------------------------------------
      LOOP:  cpu time    8.2329: real time    8.2333

 eigenvalue-minimisations  :  6020
 total energy-change (2. order) :-0.2292588E+01  (-0.2288304E+01)
 number of electron     391.9999998 magnetization 
 augmentation part      391.9999998 magnetization 

 Free energy of the ion-electron system (eV)
  ---------------------------------------------------
  alpha Z        PSCENC =      1005.50965734
  Ewald energy   TEWEN  =     94786.66914494
  -Hartree energ DENC   =   -128588.79180920
  -exchange      EXHF   =         0.00000000
  -V(xc)+E(xc)   XCENC  =       472.15631471
  PAW double counting   =     35692.51161523   -34907.57371920
  entropy T*S    EENTRO =         0.00000000
  eigenvalues    EBANDS =     -1211.08346548
  atomic energy  EATOM  =     32629.98126424
  Solvation  Ediel_sol  =         0.00000000
  ---------------------------------------------------
  free energy    TOTEN  =      -120.62099742 eV

  energy without entropy =     -120.62099742  energy(sigma->0) =     -120.62099742


--------------------------------------------------------------------------------------------------------




--------------------------------------- Iteration      1(   5)  ---------------------------------------


     EDDAV:  cpu time    8.2643: real time    8.2647
 BZINTS: Fermi energy:    0.647050;  392.000000 electrons
         Band energy:-0.121113E+04;  BLOECHL correction:   -0.030259
       DOS:  cpu time    0.0097: real time    0.0097
    --------------------------------------------
      LOOP:  cpu time    8.2740: real time    8.2744

 eigenvalue-minimisations  :  6076
 total energy-change (2. order) :-0.4986562E-01  (-0.4985426E-01)
 number of electron     391.9999998 magnetization 
 augmentation part      391.9999998 magnetization 

 Free energy of the ion-electron system (eV)
  ---------------------------------------------------
  alpha Z        PSCENC =      1005.50965734
  Ewald energy   TEWEN  =     94786.66914494
  -Hartree energ DENC   =   -128588.79180920
  -exchange      EXHF   =         0.00000000
  -V(xc)+E(xc)   XCENC  =       472.15631471
  PAW double counting   =     35692.51161523   -34907.57371920
  entropy T*S    EENTRO =         0.00000000
  eigenvalues    EBANDS =     -1211.13333109
  atomic energy  EATOM  =     32629.98126424
  Solvation  Ediel_sol  =         0.00000000
  ---------------------------------------------------
  free energy    TOTEN  =      -120.67086304 eV

  energy without entropy =     -120.67086304  energy(sigma->0) =     -120.67086304


--------------------------------------------------------------------------------------------------------




--------------------------------------- Iteration      1(   6)  ---------------------------------------


    EDDIAG:  cpu time    1.3902: real time    1.3907
  RMM-DIIS:  cpu time    3.9233: real time    3.9236
    ORTHCH:  cpu time    0.2613: real time    0.2613
 BZINTS: Fermi energy:    0.647039;  392.000000 electrons
         Band energy:-0.121113E+04;  BLOECHL correction:   -0.030259
       DOS:  cpu time    0.0097: real time    0.0097
    --------------------------------------------
      LOOP:  cpu time    5.5845: real time    5.5853

 eigenvalue-minimisations  :  5014
 total energy-change (2. order) :-0.1504003E-02  (-0.1504279E-02)
 number of electron     391.9999998 magnetization 
 augmentation part      391.9999998 magnetization 

 Free energy of the ion-electron system (eV)
  ---------------------------------------------------
  alpha Z        PSCENC =      1005.50965734
  Ewald energy   TEWEN  =     94786.66914494
  -Hartree energ DENC   =   -128588.79180920
  -exchange      EXHF   =         0.00000000
  -V(xc)+E(xc)   XCENC  =       472.15631471
  PAW double counting   =     35692.51161523   -34907.57371920
  entropy T*S    EENTRO =         0.00000000
  eigenvalues    EBANDS =     -1211.13483509
  atomic energy  EATOM  =     32629.98126424
  Solvation  Ediel_sol  =         0.00000000
  ---------------------------------------------------
  free energy    TOTEN  =      -120.67236704 eV

  energy without entropy =     -120.67236704  energy(sigma->0) =     -120.67236704


--------------------------------------------------------------------------------------------------------




--------------------------------------- Iteration      1(   7)  ---------------------------------------


    EDDIAG:  cpu time    1.3924: real time    1.3926
  RMM-DIIS:  cpu time    5.1502: real time    5.1505
    ORTHCH:  cpu time    0.2604: real time    0.2604
 BZINTS: Fermi energy:    0.647036;  392.000000 electrons
         Band energy:-0.121114E+04;  BLOECHL correction:   -0.030259
       DOS:  cpu time    0.0099: real time    0.0099
    --------------------------------------------
      LOOP:  cpu time    6.8129: real time    6.8134

 eigenvalue-minimisations  :  6682
 total energy-change (2. order) :-0.4547171E-03  (-0.4536108E-03)
 number of electron     391.9999998 magnetization 
 augmentation part      391.9999998 magnetization 

 Free energy of the ion-electron system (eV)
  ---------------------------------------------------
  alpha Z        PSCENC =      1005.50965734
  Ewald energy   TEWEN  =     94786.66914494
  -Hartree energ DENC   =   -128588.79180920
  -exchange      EXHF   =         0.00000000
  -V(xc)+E(xc)   XCENC  =       472.15631471
  PAW double counting   =     35692.51161523   -34907.57371920
  entropy T*S    EENTRO =         0.00000000
  eigenvalues    EBANDS =     -1211.13528981
  atomic energy  EATOM  =     32629.98126424
  Solvation  Ediel_sol  =         0.00000000
  ---------------------------------------------------
  free energy    TOTEN  =      -120.67282176 eV

  energy without entropy =     -120.67282176  energy(sigma->0) =     -120.67282176


--------------------------------------------------------------------------------------------------------




--------------------------------------- Iteration      1(   8)  ---------------------------------------


    EDDIAG:  cpu time    1.3952: real time    1.3952
  RMM-DIIS:  cpu time    4.5950: real time    4.5953
    ORTHCH:  cpu time    0.2605: real time    0.2605
 BZINTS: Fermi energy:    0.647036;  392.000000 electrons
         Band energy:-0.121114E+04;  BLOECHL correction:   -0.030259
       DOS:  cpu time    0.0099: real time    0.0099
    --------------------------------------------
      LOOP:  cpu time    6.2606: real time    6.2610

 eigenvalue-minimisations  :  5880
 total energy-change (2. order) :-0.3826931E-04  (-0.3796364E-04)
 number of electron     391.9999998 magnetization 
 augmentation part      391.9999998 magnetization 

 Free energy of the ion-electron system (eV)
  ---------------------------------------------------
  alpha Z        PSCENC =      1005.50965734
  Ewald energy   TEWEN  =     94786.66914494
  -Hartree energ DENC   =   -128588.79180920
  -exchange      EXHF   =         0.00000000
  -V(xc)+E(xc)   XCENC  =       472.15631471
  PAW double counting   =     35692.51161523   -34907.57371920
  entropy T*S    EENTRO =         0.00000000
  eigenvalues    EBANDS =     -1211.13532808
  atomic energy  EATOM  =     32629.98126424
  Solvation  Ediel_sol  =         0.00000000
  ---------------------------------------------------
  free energy    TOTEN  =      -120.67286002 eV

  energy without entropy =     -120.67286002  energy(sigma->0) =     -120.67286002


--------------------------------------------------------------------------------------------------------




--------------------------------------- Iteration      1(   9)  ---------------------------------------


    EDDIAG:  cpu time    1.3938: real time    1.3940
  RMM-DIIS:  cpu time    3.0493: real time    3.0495
    ORTHCH:  cpu time    0.2607: real time    0.2607
 BZINTS: Fermi energy:    0.647035;  392.000000 electrons
         Band energy:-0.121114E+04;  BLOECHL correction:   -0.030259
       DOS:  cpu time    0.0099: real time    0.0099
    --------------------------------------------
      LOOP:  cpu time    4.7137: real time    4.7141

 eigenvalue-minimisations  :  3314
 total energy-change (2. order) :-0.2813336E-05  (-0.2743232E-05)
 number of electron     391.9999998 magnetization 
 augmentation part      391.9999998 magnetization 

 Free energy of the ion-electron system (eV)
  ---------------------------------------------------
  alpha Z        PSCENC =      1005.50965734
  Ewald energy   TEWEN  =     94786.66914494
  -Hartree energ DENC   =   -128588.79180920
  -exchange      EXHF   =         0.00000000
  -V(xc)+E(xc)   XCENC  =       472.15631471
  PAW double counting   =     35692.51161523   -34907.57371920
  entropy T*S    EENTRO =         0.00000000
  eigenvalues    EBANDS =     -1211.13533089
  atomic energy  EATOM  =     32629.98126424
  Solvation  Ediel_sol  =         0.00000000
  ---------------------------------------------------
  free energy    TOTEN  =      -120.67286284 eV

  energy without entropy =     -120.67286284  energy(sigma->0) =     -120.67286284


--------------------------------------------------------------------------------------------------------




 average (electrostatic) potential at core
  the test charge radii are     1.2098  1.1823  0.5201
  (the norm of the test charge is              1.0000)
       1 -72.3806       2 -72.3793       3 -72.3792       4 -72.3793       5 -72.3647
       6 -72.3790       7 -72.3792       8 -72.3790       9 -72.3747      10 -72.7306
      11 -72.6901      12 -72.7305      13 -72.6901      14 -72.6897      15 -72.7010
      16 -72.7305      17 -72.7010      18 -72.7012      19 -72.6554      20 -72.9938
      21 -72.9936      22 -72.6614      23 -72.9936      24 -72.6611      25 -72.6557
      26 -72.6554      27 -72.6614      28 -72.3795      29 -72.5165      30 -72.5166
      31 -72.5165      32 -72.5163      33 -72.5166      34 -72.5163      35 -72.3554
      36 -45.7059      37 -34.7403
 
 
 
 E-fermi :   0.6470     XC(G=0):  -6.1160     alpha+bet : -5.7396

 Fermi energy:         0.6470354861

 k-point     1 :       0.0000    0.0000    0.0000
  band No.  band energies     occupation 
      1      -8.1962      2.00000
      2      -7.0727      2.00000
      3      -6.1516      2.00000
      4      -6.0644      2.00000
      5      -6.0638      2.00000
      6      -6.0638      2.00000
      7      -6.0222      2.00000
      8      -5.9729      2.00000
      9      -5.9595      2.00000
     10      -5.9595      2.00000
     11      -5.5877      2.00000
     12      -5.5739      2.00000
     13      -5.5738      2.00000
     14      -5.5492      2.00000
     15      -5.4819      2.00000
     16      -5.4819      2.00000
     17      -5.2161      2.00000
     18      -5.2074      2.00000
     19      -5.2074      2.00000
     20      -5.1703      2.00000
     21      -5.1282      2.00000
     22      -5.1282      2.00000
     23      -5.0917      2.00000
     24      -4.9903      2.00000
     25      -4.9902      2.00000
     26      -4.9792      2.00000
     27      -4.9792      2.00000
     28      -4.9653      2.00000
     29      -4.8553      2.00000
     30      -4.8552      2.00000
     31      -4.8408      2.00000
     32      -4.8270      2.00000
     33      -4.8030      2.00000
     34      -4.8030      2.00000
     35      -4.7918      2.00000
     36      -4.7918      2.00000
     37      -4.7654      2.00000
     38      -4.7499      2.00000
     39      -4.7499      2.00000
     40      -4.7491      2.00000
     41      -4.3524      2.00000
     42      -4.3247      2.00000
     43      -4.3247      2.00000
     44      -4.2976      2.00000
     45      -4.2976      2.00000
     46      -4.2577      2.00000
     47      -4.2346      2.00000
     48      -4.2345      2.00000
     49      -4.2009      2.00000
     50      -4.2008      2.00000
     51      -4.1321      2.00000
     52      -4.1279      2.00000
     53      -4.1160      2.00000
     54      -4.0231      2.00000
     55      -3.8303      2.00000
     56      -3.7612      2.00000
     57      -3.7612      2.00000
     58      -3.7335      2.00000
     59      -3.7323      2.00000
     60      -3.7323      2.00000
     61      -3.7304      2.00000
     62      -3.6517      2.00000
     63      -3.6517      2.00000
     64      -3.6039      2.00000
     65      -3.6039      2.00000
     66      -3.5810      2.00000
     67      -3.5556      2.00000
     68      -3.5556      2.00000
     69      -3.5403      2.00000
     70      -3.5377      2.00000
     71      -3.5377      2.00000
     72      -3.5186      2.00000
     73      -3.4611      2.00000
     74      -3.4611      2.00000
     75      -3.4515      2.00000
     76      -3.4515      2.00000
     77      -3.4462      2.00000
     78      -3.4385      2.00000
     79      -3.4384      2.00000
     80      -3.3996      2.00000
     81      -3.3862      2.00000
     82      -3.3862      2.00000
     83      -3.3756      2.00000
     84      -3.3653      2.00000
     85      -3.3653      2.00000
     86      -3.2832      2.00000
     87      -3.2832      2.00000
     88      -3.2466      2.00000
     89      -3.2466      2.00000
     90      -3.2400      2.00000
     91      -3.2228      2.00000
     92      -3.2228      2.00000
     93      -3.1968      2.00000
     94      -3.1968      2.00000
     95      -3.0300      2.00000
     96      -3.0201      2.00000
     97      -3.0201      2.00000
     98      -3.0152      2.00000
     99      -3.0152      2.00000
    100      -2.8786      2.00000
    101      -2.8626      2.00000
    102      -2.8626      2.00000
    103      -2.8338      2.00000
    104      -2.8338      2.00000
    105      -2.7835      2.00000
    106      -2.7348      2.00000
    107      -2.7348      2.00000
    108      -2.6871      2.00000
    109      -2.6515      2.00000
    110      -2.6515      2.00000
    111      -2.6107      2.00000
    112      -2.6107      2.00000
    113      -2.5598      2.00000
    114      -2.5325      2.00000
    115      -2.5300      2.00000
    116      -2.4154      2.00000
    117      -2.4154      2.00000
    118      -2.4096      2.00000
    119      -2.3449      2.00000
    120      -2.3448      2.00000
    121      -2.3382      2.00000
    122      -2.3123      2.00000
    123      -2.3123      2.00000
    124      -2.2801      2.00000
    125      -2.2801      2.00000
    126      -2.2508      2.00000
    127      -2.2508      2.00000
    128      -2.2040      2.00000
    129      -2.1463      2.00000
    130      -2.1463      2.00000
    131      -2.1309      2.00000
    132      -2.0988      2.00000
    133      -2.0988      2.00000
    134      -2.0767      2.00000
    135      -2.0718      2.00000
    136      -2.0715      2.00000
    137      -2.0715      2.00000
    138      -2.0678      2.00000
    139      -2.0678      2.00000
    140      -1.9530      2.00000
    141      -1.9530      2.00000
    142      -1.8923      2.00000
    143      -1.8923      2.00000
    144      -1.8788      2.00000
    145      -1.8735      2.00000
    146      -1.8735      2.00000
    147      -1.8624      2.00000
    148      -1.8149      2.00000
    149      -1.8149      2.00000
    150      -1.8023      2.00000
    151      -1.8020      2.00000
    152      -1.7682      2.00000
    153      -1.7468      2.00000
    154      -1.7468      2.00000
    155      -1.7271      2.00000
    156      -1.7205      2.00000
    157      -1.7205      2.00000
    158      -1.6836      2.00000
    159      -1.6630      2.00000
    160      -1.6505      2.00000
    161      -1.6505      2.00000
    162      -1.6086      2.00000
    163      -1.6086      2.00000
    164      -1.5860      2.00000
    165      -1.5846      2.00000
    166      -1.5838      2.00000
    167      -1.5838      2.00000
    168      -1.5687      2.00000
    169      -1.5687      2.00000
    170      -1.5612      2.00000
    171      -1.5199      2.00000
    172      -1.5198      2.00000
    173      -1.5039      2.00000
    174      -1.4993      2.00000
    175      -1.4882      2.00000
    176      -1.4881      2.00000
    177      -1.4855      2.00000
    178      -1.4551      2.00000
    179      -1.4551      2.00000
    180      -1.4093      2.00000
    181      -1.4093      2.00000
    182      -1.4048      2.00000
    183      -1.3542      2.00000
    184      -1.3542      2.00000
    185      -1.2507      2.00000
    186      -1.2501      2.00000
    187      -1.2501      2.00000
    188      -1.2110      2.00000
    189      -1.2110      2.00000
    190      -1.1979      2.00000
    191      -1.1572      2.00000
    192      -0.3275      2.00000
    193      -0.1620      2.00000
    194      -0.1620      2.00000
    195      -0.1511      2.00000
    196       0.0276      2.00000
    197       0.0277      2.00000
    198       0.0754      2.00000
    199       0.7506      0.00000
    200       0.7506      0.00000
    201       1.0010      0.00000
    202       1.0010      0.00000
    203       1.0570      0.00000
    204       1.8893      0.00000
    205       2.1482      0.00000
    206       2.2159      0.00000
    207       2.2159      0.00000
    208       2.6784      0.00000
    209       2.6784      0.00000
    210       3.4441      0.00000
    211       3.4634      0.00000
    212       3.4634      0.00000
    213       3.5852      0.00000
    214       3.5852      0.00000
    215       3.6231      0.00000
    216       4.0067      0.00000
    217       4.2801      0.00000
    218       4.9973      0.00000
    219       5.2732      0.00000
    220       5.2930      0.00000
    221       5.2931      0.00000
    222       5.2999      0.00000
    223       5.3790      0.00000
    224       5.3791      0.00000
    225       5.4216      0.00000
    226       5.4216      0.00000
    227       5.6185      0.00000
    228       5.6185      0.00000
    229       5.7095      0.00000
    230       5.8735      0.00000
    231       6.0679      0.00000
    232       6.8701      0.00000
    233       6.9663      0.00000
    234       6.9701      0.00000
    235       6.9702      0.00000
    236       6.9866      0.00000
    237       6.9867      0.00000
    238       7.0450      0.00000
    239       7.0872      0.00000
    240       7.1152      0.00000
    241       7.1153      0.00000
    242       7.1794      0.00000
    243       7.1802      0.00000
    244       7.2820      0.00000
    245       7.3278      0.00000
    246       7.3283      0.00000
    247       7.4479      0.00000
    248       7.4756      0.00000
    249       7.4776      0.00000
    250       7.5821      0.00000
    251       7.7765      0.00000
    252       7.9554      0.00000

 k-point     2 :       0.1250   -0.0000    0.0000
  band No.  band energies     occupation 
      1      -8.1454      2.00000
      2      -7.0243      2.00000
      3      -6.2958      2.00000
      4      -6.1229      2.00000
      5      -6.1010      2.00000
      6      -6.0382      2.00000
      7      -5.9793      2.00000
      8      -5.9201      2.00000
      9      -5.8842      2.00000
     10      -5.8760      2.00000
     11      -5.6094      2.00000
     12      -5.5849      2.00000
     13      -5.5509      2.00000
     14      -5.5273      2.00000
     15      -5.4891      2.00000
     16      -5.4575      2.00000
     17      -5.2326      2.00000
     18      -5.1934      2.00000
     19      -5.1916      2.00000
     20      -5.1757      2.00000
     21      -5.1135      2.00000
     22      -5.1044      2.00000
     23      -5.0996      2.00000
     24      -5.0493      2.00000
     25      -5.0183      2.00000
     26      -4.9421      2.00000
     27      -4.9370      2.00000
     28      -4.9107      2.00000
     29      -4.8879      2.00000
     30      -4.8820      2.00000
     31      -4.8690      2.00000
     32      -4.8447      2.00000
     33      -4.8393      2.00000
     34      -4.8293      2.00000
     35      -4.8054      2.00000
     36      -4.7465      2.00000
     37      -4.7298      2.00000
     38      -4.7072      2.00000
     39      -4.6564      2.00000
     40      -4.6484      2.00000
     41      -4.3970      2.00000
     42      -4.3617      2.00000
     43      -4.3610      2.00000
     44      -4.3385      2.00000
     45      -4.3283      2.00000
     46      -4.3080      2.00000
     47      -4.2545      2.00000
     48      -4.2200      2.00000
     49      -4.1903      2.00000
     50      -4.1626      2.00000
     51      -4.1117      2.00000
     52      -4.1108      2.00000
     53      -4.0816      2.00000
     54      -4.0271      2.00000
     55      -3.8588      2.00000
     56      -3.7919      2.00000
     57      -3.7739      2.00000
     58      -3.7676      2.00000
     59      -3.7404      2.00000
     60      -3.7388      2.00000
     61      -3.7367      2.00000
     62      -3.7058      2.00000
     63      -3.6898      2.00000
     64      -3.6547      2.00000
     65      -3.6524      2.00000
     66      -3.6413      2.00000
     67      -3.6178      2.00000
     68      -3.6152      2.00000
     69      -3.5935      2.00000
     70      -3.5686      2.00000
     71      -3.5683      2.00000
     72      -3.5362      2.00000
     73      -3.5283      2.00000
     74      -3.5266      2.00000
     75      -3.5100      2.00000
     76      -3.4888      2.00000
     77      -3.4468      2.00000
     78      -3.4287      2.00000
     79      -3.4150      2.00000
     80      -3.3937      2.00000
     81      -3.3726      2.00000
     82      -3.3557      2.00000
     83      -3.3242      2.00000
     84      -3.3230      2.00000
     85      -3.3062      2.00000
     86      -3.2780      2.00000
     87      -3.2581      2.00000
     88      -3.2432      2.00000
     89      -3.2287      2.00000
     90      -3.2212      2.00000
     91      -3.1894      2.00000
     92      -3.1849      2.00000
     93      -3.1532      2.00000
     94      -3.1426      2.00000
     95      -3.1045      2.00000
     96      -3.1007      2.00000
     97      -3.0556      2.00000
     98      -2.9799      2.00000
     99      -2.9577      2.00000
    100      -2.9173      2.00000
    101      -2.8814      2.00000
    102      -2.8812      2.00000
    103      -2.8618      2.00000
    104      -2.8358      2.00000
    105      -2.8018      2.00000
    106      -2.7879      2.00000
    107      -2.7184      2.00000
    108      -2.6992      2.00000
    109      -2.6822      2.00000
    110      -2.6663      2.00000
    111      -2.6493      2.00000
    112      -2.6411      2.00000
    113      -2.6162      2.00000
    114      -2.6016      2.00000
    115      -2.6010      2.00000
    116      -2.5616      2.00000
    117      -2.5555      2.00000
    118      -2.5310      2.00000
    119      -2.5251      2.00000
    120      -2.4723      2.00000
    121      -2.4190      2.00000
    122      -2.3400      2.00000
    123      -2.3278      2.00000
    124      -2.3171      2.00000
    125      -2.3164      2.00000
    126      -2.2705      2.00000
    127      -2.2637      2.00000
    128      -2.2614      2.00000
    129      -2.2347      2.00000
    130      -2.2251      2.00000
    131      -2.2035      2.00000
    132      -2.1945      2.00000
    133      -2.1795      2.00000
    134      -2.1033      2.00000
    135      -2.1019      2.00000
    136      -2.0720      2.00000
    137      -2.0687      2.00000
    138      -2.0446      2.00000
    139      -2.0152      2.00000
    140      -2.0090      2.00000
    141      -1.9962      2.00000
    142      -1.9924      2.00000
    143      -1.9358      2.00000
    144      -1.9108      2.00000
    145      -1.9050      2.00000
    146      -1.8779      2.00000
    147      -1.8507      2.00000
    148      -1.8075      2.00000
    149      -1.8014      2.00000
    150      -1.7901      2.00000
    151      -1.7782      2.00000
    152      -1.7643      2.00000
    153      -1.7530      2.00000
    154      -1.7084      2.00000
    155      -1.6921      2.00000
    156      -1.6896      2.00000
    157      -1.6687      2.00000
    158      -1.6571      2.00000
    159      -1.6404      2.00000
    160      -1.6153      2.00000
    161      -1.6008      2.00000
    162      -1.5846      2.00000
    163      -1.5820      2.00000
    164      -1.5696      2.00000
    165      -1.5450      2.00000
    166      -1.5428      2.00000
    167      -1.5378      2.00000
    168      -1.5165      2.00000
    169      -1.5117      2.00000
    170      -1.4926      2.00000
    171      -1.4830      2.00000
    172      -1.4550      2.00000
    173      -1.4497      2.00000
    174      -1.4096      2.00000
    175      -1.3983      2.00000
    176      -1.3839      2.00000
[...]
  0.000   0.000   0.000   0.000   0.000   0.000   0.000   0.000   0.000   0.000   0.000   0.000   0.000   0.000   0.000   0.000
  0.000   0.000   0.000   0.000   0.000   0.000   0.000   0.000   0.000   0.000   0.000   0.000   0.000   0.000   0.000   0.000
  0.000   0.000   0.000   0.000   0.000   0.000   0.000   0.000   0.000   0.000   0.000   0.000   0.000   0.000   0.000   0.000
  0.000   0.000   0.000   0.000   0.000   0.000   0.000   0.000   0.000   0.000   0.000   0.000   0.000   0.000   0.000   0.000
  0.000   0.000   0.000   0.000   0.000   0.000   0.000   0.000   0.000   0.000   0.000   0.000   0.000   0.000   0.000   0.000
  0.000   0.000   0.000   0.000   0.000   0.000   0.000   0.000   0.000   0.000   1.000   0.000   0.000   0.000   0.000   0.000
  0.000   0.000   0.000   0.000   0.000   0.000   0.000   0.000   0.000   0.000   0.000   0.000   0.000   0.000   0.000   0.000
  0.000   0.000   0.000   0.000   0.000   0.000   0.000   0.000   0.000   0.000   0.000   0.000   0.000   0.000   0.000   0.000
  0.000   0.000   0.000   0.000   0.000   0.000   0.000   0.000   0.000   0.000   0.000   0.000   0.000   0.000   0.000   0.000
  0.000   0.000   0.000   0.000   0.000   0.000   0.000   0.000   0.000   0.000   0.000   0.000   0.000   0.000   0.000   0.000
  0.000   0.000   0.000   0.000   0.000   0.000   0.000   0.000   0.000   0.000   0.000   0.000   0.000   0.000   0.000   0.000
  0.000   0.000   0.000   0.000   0.000   0.000   0.000   0.000   0.000   0.000   0.000   0.000   0.000   0.000   0.000   0.000
  0.000   0.000   0.000   0.000   0.000   0.000   0.000   0.000   0.000   0.000   0.000   0.000   0.000   0.000   0.000   0.000


------------------------ aborting loop because EDIFF is reached ----------------------------------------





 total charge

# of ion       s       p       d       tot
------------------------------------------
    1        0.549   0.235   8.770   9.554
    2        0.541   0.241   8.765   9.547
    3        0.541   0.241   8.765   9.547
    4        0.541   0.241   8.765   9.547
    5        0.549   0.239   8.761   9.549
    6        0.541   0.241   8.765   9.547
    7        0.541   0.241   8.765   9.547
    8        0.541   0.241   8.765   9.547
    9        0.543   0.239   8.766   9.549
   10        0.528   0.306   8.766   9.600
   11        0.521   0.308   8.780   9.609
   12        0.528   0.306   8.766   9.600
   13        0.521   0.308   8.780   9.609
   14        0.521   0.308   8.780   9.609
   15        0.516   0.307   8.776   9.599
   16        0.528   0.306   8.766   9.600
   17        0.516   0.307   8.776   9.599
   18        0.516   0.307   8.776   9.599
   19        0.515   0.294   8.773   9.582
   20        0.581   0.343   8.726   9.649
   21        0.581   0.343   8.726   9.649
   22        0.506   0.306   8.778   9.590
   23        0.581   0.343   8.726   9.649
   24        0.506   0.306   8.778   9.590
   25        0.515   0.294   8.773   9.582
   26        0.515   0.294   8.773   9.582
   27        0.506   0.306   8.778   9.590
   28        0.538   0.225   8.753   9.516
   29        0.583   0.251   8.727   9.561
   30        0.583   0.251   8.727   9.561
   31        0.583   0.251   8.727   9.561
   32        0.583   0.251   8.727   9.561
   33        0.583   0.251   8.727   9.561
   34        0.583   0.251   8.727   9.561
   35        0.535   0.223   8.758   9.516
   36        0.601   0.522   3.847   4.970
   37        0.532   0.014   0.000   0.546
--------------------------------------------------
tot         20.089  10.237 310.408 340.735
 
    CHARGE:  cpu time    0.3194: real time    0.3194
    FORLOC:  cpu time    0.0100: real time    0.0100
    FORNL :  cpu time    1.4445: real time    1.4447
    STRESS:  cpu time    4.3273: real time    4.3276
    FORCOR:  cpu time    0.0417: real time    0.0417
    FORHAR:  cpu time    0.0165: real time    0.0166
    OFIELD:  cpu time    0.0002: real time    0.0002

  FORCE on cell =-STRESS in cart. coord.  units (eV):
  Direction    XX          YY          ZZ          XY          YZ          ZX
  --------------------------------------------------------------------------------------
  Alpha Z  1005.50966  1005.50966  1005.50966
  Ewald  117185.42289117185.42328************    -0.00032    -0.00009    -0.00017
  Hartree125663.70652125663.70651************     0.00000    -0.00002    -0.00005
  E(xc)   -1755.61495 -1755.61494 -1764.60737    -0.00001     0.00000     0.00000
  Local  ************************255221.24806     0.00168     0.00005     0.00010
  n-local   -84.47911   -35.53644   -29.65642    24.10225    -1.57779     1.56577
  augment  2366.77857  2366.78001  2389.10820    -0.00125     0.00003     0.00007
  Kinetic  5415.39745  5424.28635  5491.67954     5.25519    -0.14580     0.41341
  Fock        0.00000     0.00000     0.00000     0.00000     0.00000     0.00000
  -------------------------------------------------------------------------------------
  Total     -23.10372   -23.10371     3.59821    -0.00000     0.00000     0.00000
  in kB     -24.79049   -24.79048     3.86092    -0.00000     0.00000     0.00000
  external pressure =      -15.24 kB  Pullay stress =        0.00 kB


 VOLUME and BASIS-vectors are now :
 -----------------------------------------------------------------------------
  energy-cutoff  :      500.00
  volume of cell :     1493.16
      direct lattice vectors                 reciprocal lattice vectors
     8.813512802  0.000000000  0.000000000     0.113462137 -0.065507406  0.000000000
     4.406756909  7.632725690  0.000000000     0.000000000  0.131014796  0.000000000
     0.000000000  0.000000000 22.196203232     0.000000000  0.000000000  0.045052750

  length of vectors
     8.813512802  8.813512802 22.196203232     0.131014796  0.131014796  0.045052750


 FORCES acting on ions
    electron-ion (+dipol)            ewald-force                    non-local-force                 convergence-correction
 -----------------------------------------------------------------------------------------------
   -.197E-04 -.162E-04 0.246E+04   0.519E-04 0.433E-04 -.245E+04   -.545E-17 0.591E-17 -.795E+00   -.201E-03 -.129E-03 -.242E+00
   0.657E+00 -.150E+00 0.246E+04   -.697E+00 -.697E-01 -.246E+04   0.485E-01 0.180E+00 -.323E+00   -.102E-01 0.185E-01 -.265E+00
   -.657E+00 -.150E+00 0.246E+04   0.697E+00 -.697E-01 -.246E+04   -.485E-01 0.180E+00 -.323E+00   0.105E-01 0.205E-01 -.264E+00
   0.199E+00 0.644E+00 0.246E+04   -.409E+00 -.569E+00 -.246E+04   0.180E+00 -.480E-01 -.323E+00   0.110E-01 -.182E-01 -.265E+00
   0.726E-05 -.243E-04 0.246E+04   0.951E-04 0.175E-05 -.246E+04   0.340E-17 -.218E-17 0.228E+00   0.430E-02 0.262E-02 -.195E+00
   -.199E+00 0.644E+00 0.246E+04   0.409E+00 -.569E+00 -.246E+04   -.180E+00 -.480E-01 -.323E+00   -.125E-01 -.172E-01 -.264E+00
   -.458E+00 -.494E+00 0.246E+04   0.288E+00 0.639E+00 -.246E+04   0.132E+00 -.132E+00 -.323E+00   0.231E-01 -.114E-02 -.264E+00
   0.458E+00 -.494E+00 0.246E+04   -.288E+00 0.639E+00 -.246E+04   -.132E+00 -.132E+00 -.323E+00   -.212E-01 -.223E-02 -.264E+00
   0.199E-04 -.415E-04 0.246E+04   0.166E-03 -.200E-04 -.246E+04   -.112E-17 0.324E-18 -.447E+00   -.464E-02 -.240E-02 -.176E+00
   0.698E+01 0.403E+01 0.789E+03   -.650E+01 -.375E+01 -.788E+03   -.455E+00 -.263E+00 -.630E+00   -.743E-01 -.430E-01 0.173E-01
   0.142E-04 0.206E+01 0.794E+03   0.148E-03 -.201E+01 -.794E+03   -.453E-09 -.681E-02 -.625E-01   0.379E-02 -.949E-01 0.726E-01
   -.698E+01 0.403E+01 0.789E+03   0.650E+01 -.375E+01 -.788E+03   0.455E+00 -.263E+00 -.630E+00   0.730E-01 -.415E-01 0.170E-01
   0.178E+01 -.103E+01 0.794E+03   -.174E+01 0.100E+01 -.794E+03   -.590E-02 0.340E-02 -.625E-01   -.800E-01 0.510E-01 0.726E-01
   -.178E+01 -.103E+01 0.794E+03   0.174E+01 0.100E+01 -.794E+03   0.590E-02 0.340E-02 -.625E-01   0.879E-01 0.506E-01 0.725E-01
   0.318E-04 0.571E+01 0.794E+03   0.235E-03 -.592E+01 -.794E+03   0.214E-08 0.321E-01 -.559E+00   -.239E-02 0.955E-01 0.875E-01
   -.212E-04 -.806E+01 0.789E+03   0.163E-03 0.750E+01 -.788E+03   0.350E-07 0.525E+00 -.630E+00   0.296E-03 0.840E-01 0.170E-01
   0.494E+01 -.285E+01 0.794E+03   -.512E+01 0.296E+01 -.794E+03   0.278E-01 -.160E-01 -.559E+00   0.818E-01 -.494E-01 0.875E-01
   -.494E+01 -.285E+01 0.794E+03   0.512E+01 0.296E+01 -.794E+03   -.278E-01 -.160E-01 -.559E+00   -.818E-01 -.475E-01 0.872E-01
   -.431E-04 0.199E+01 -.904E+03   0.558E-04 -.211E+01 0.903E+03   -.911E-09 -.137E-01 0.593E+00   -.232E-03 0.993E-01 0.468E+00
   -.520E+01 -.300E+01 -.873E+03   0.627E+01 0.362E+01 0.874E+03   -.123E+01 -.713E+00 -.148E+01   0.792E-01 0.456E-01 0.664E+00
   0.520E+01 -.300E+01 -.873E+03   -.627E+01 0.362E+01 0.874E+03   0.123E+01 -.713E+00 -.148E+01   -.784E-01 0.476E-01 0.664E+00
   -.136E+02 0.784E+01 -.883E+03   0.132E+02 -.764E+01 0.882E+03   0.485E+00 -.280E+00 0.593E+00   -.100E+00 0.537E-01 0.443E+00
   -.982E-05 0.601E+01 -.873E+03   0.138E-03 -.725E+01 0.874E+03   0.949E-07 0.143E+01 -.148E+01   0.178E-02 -.917E-01 0.664E+00
   0.136E+02 0.784E+01 -.883E+03   -.132E+02 -.764E+01 0.882E+03   -.485E+00 -.280E+00 0.593E+00   0.936E-01 0.541E-01 0.443E+00
   -.172E+01 -.996E+00 -.904E+03   0.183E+01 0.106E+01 0.903E+03   0.119E-01 0.684E-02 0.593E+00   -.843E-01 -.487E-01 0.467E+00
   0.172E+01 -.996E+00 -.904E+03   -.183E+01 0.106E+01 0.903E+03   -.119E-01 0.684E-02 0.593E+00   0.862E-01 -.498E-01 0.468E+00
   0.984E-05 -.157E+02 -.883E+03   0.198E-03 0.153E+02 0.882E+03   0.373E-07 0.560E+00 0.593E+00   -.429E-02 -.114E+00 0.443E+00
   -.113E-04 -.112E-04 -.245E+04   0.286E-04 0.310E-04 0.245E+04   -.479E-17 -.288E-17 0.695E+00   0.135E-02 0.761E-03 0.318E+00
   0.630E+01 0.702E+01 -.247E+04   -.522E+01 -.534E+01 0.247E+04   -.124E+01 -.193E+01 -.210E+00   0.157E+00 0.177E+00 0.245E+00
   -.630E+01 0.702E+01 -.247E+04   0.522E+01 -.534E+01 0.247E+04   0.124E+01 -.193E+01 -.210E+00   -.163E+00 0.178E+00 0.245E+00
   0.923E+01 0.194E+01 -.247E+04   -.723E+01 -.185E+01 0.247E+04   -.229E+01 -.114E+00 -.210E+00   0.231E+00 0.474E-01 0.245E+00
   -.923E+01 0.194E+01 -.247E+04   0.723E+01 -.185E+01 0.247E+04   0.229E+01 -.114E+00 -.210E+00   -.239E+00 0.485E-01 0.245E+00
   0.293E+01 -.896E+01 -.247E+04   -.201E+01 0.719E+01 0.247E+04   -.105E+01 0.204E+01 -.210E+00   0.730E-01 -.230E+00 0.245E+00
   -.293E+01 -.896E+01 -.247E+04   0.201E+01 0.719E+01 0.247E+04   0.105E+01 0.204E+01 -.210E+00   -.772E-01 -.231E+00 0.245E+00
   0.345E-04 -.325E-04 -.246E+04   0.141E-03 -.468E-04 0.245E+04   -.527E-17 -.244E-17 0.796E+00   -.353E-02 -.174E-02 0.212E+00
   -.229E-04 -.189E-05 -.124E+04   0.638E-04 0.589E-05 0.125E+04   -.239E-18 -.180E-17 -.243E+01   0.119E-02 0.699E-03 0.261E+00
   0.580E-05 -.401E-05 -.268E+03   0.461E-05 0.285E-06 0.271E+03   -.449E-19 0.704E-19 -.245E+01   0.137E-03 0.810E-04 -.533E-01
 -----------------------------------------------------------------------------------------------
   -.808E-03 -.779E-03 0.735E+01   -.267E-13 -.399E-13 -.313E-11   -.228E-15 -.417E-17 -.122E+02   -.170E-01 -.927E-02 0.526E+01
 
 
 POSITION                                       TOTAL-FORCE (eV/Angst)
 -----------------------------------------------------------------------------------
      0.00000      0.00000      5.28038         0.000000      0.000000     -0.190052
      2.93784      0.00000      5.28038        -0.001022     -0.020009     -0.058740
      5.87568      0.00000      5.28038         0.001022     -0.020009     -0.058740
      1.46892      2.54424      5.28038        -0.017839      0.009120     -0.058740
      4.40676      2.54424      5.28038         0.000000      0.000000     -0.102172
      7.34459      2.54424      5.28038         0.017839      0.009120     -0.058740
      2.93784      5.08848      5.28038        -0.016817      0.010889     -0.058740
      5.87568      5.08848      5.28038         0.016817      0.010889     -0.058740
      8.81351      5.08848      5.28038         0.000000      0.000000     -0.092156
      1.46892      0.84808      7.67911        -0.043427     -0.025073      0.123656
      4.40676      0.84808      7.67911        -0.000000     -0.053203     -0.002019
      7.34459      0.84808      7.67911         0.043427     -0.025073      0.123656
      2.93784      3.39232      7.67911        -0.046075      0.026601     -0.002019
      5.87568      3.39232      7.67911         0.046075      0.026601     -0.002019
      8.81351      3.39232      7.67911        -0.000000     -0.084264      0.097122
      4.40676      5.93656      7.67911         0.000000      0.050146      0.123656
      7.34459      5.93656      7.67911        -0.072975      0.042132      0.097122
     10.28243      5.93656      7.67911         0.072975      0.042132      0.097122
      8.81351      1.70807     10.10081        -0.000000     -0.035794     -0.009846
      2.93151      1.69251     10.04012        -0.083650     -0.048295     -0.111292
      5.88200      1.69251     10.04012         0.083650     -0.048295     -0.111292
     10.26425      4.25090     10.06644         0.048453     -0.027974      0.008752
      4.40676      4.24770     10.04012         0.000000      0.096591     -0.111292
      7.36277      4.25090     10.06644        -0.048453     -0.027974      0.008752
     11.74104      6.77869     10.10081         0.030998      0.017897     -0.009846
      5.88599      6.77869     10.10081        -0.030998      0.017897     -0.009846
      8.81351      6.76365     10.06644         0.000000      0.055949      0.008752
      0.00000      0.00000     12.49922         0.000000      0.000000     -0.001576
      2.99894      0.10048     12.55446        -0.009283     -0.062223     -0.036142
      5.81457      0.10048     12.55446         0.009283     -0.062223     -0.036142
      1.58649      2.54692     12.55446        -0.058528      0.023072     -0.036142
      7.22703      2.54692     12.55446         0.058528      0.023072     -0.036142
      2.99430      4.98533     12.55446        -0.049245      0.039151     -0.036142
      5.81921      4.98533     12.55446         0.049245      0.039151     -0.036142
      8.81351      5.08848     12.49869         0.000000      0.000000      0.093189
      4.40676      2.54424     12.18560         0.000000      0.000000      0.531184
      4.40676      2.54424     13.89155         0.000000      0.000000      0.011760
 -----------------------------------------------------------------------------------
    total drift:                               -0.017829     -0.010046      0.380649


--------------------------------------------------------------------------------------------------------



  FREE ENERGIE OF THE ION-ELECTRON SYSTEM (eV)
  ---------------------------------------------------
  free  energy   TOTEN  =      -120.67286284 eV

  energy  without entropy=     -120.67286284  energy(sigma->0) =     -120.67286284
 


--------------------------------------------------------------------------------------------------------


    POTLOK:  cpu time    0.0431: real time    0.0431


--------------------------------------------------------------------------------------------------------


 stress matrix after NEB project (eV)
    -23.10372     -0.00000      0.00000
     -0.00000    -23.10371      0.00000
      0.00000      0.00000      3.59821
  FORCES: max atom, RMS     0.011760    0.001933
  FORCE total and by dimension    0.011760    0.011760
  Stress total and by dimension   32.871119   23.103716
     LOOP+:  cpu time   69.1606: real time   69.1747
 -----------------------------------------------------------------------------
|                                                                             |
|           W    W    AA    RRRRR   N    N  II  N    N   GGGG   !!!           |
|           W    W   A  A   R    R  NN   N  II  NN   N  G    G  !!!           |
|           W    W  A    A  R    R  N N  N  II  N N  N  G       !!!           |
|           W WW W  AAAAAA  RRRRR   N  N N  II  N  N N  G  GGG   !            |
|           WW  WW  A    A  R   R   N   NN  II  N   NN  G    G                |
|           W    W  A    A  R    R  N    N  II  N    N   GGGG   !!!           |
|                                                                             |
|     Tetrahedron method does not include variations of the Fermi             |
|     occupations, so forces and stress will be inaccurate. We suggest        |
|     using a different smearing scheme ISMEAR = 1 or 2 for metals in         |
|     relaxations.                                                            |
|                                                                             |
 -----------------------------------------------------------------------------

    4ORBIT:  cpu time    0.0000: real time    0.0000



 total charge

# of ion       s       p       d       tot
------------------------------------------
    1        0.549   0.235   8.770   9.554
    2        0.541   0.241   8.765   9.547
    3        0.541   0.241   8.765   9.547
    4        0.541   0.241   8.765   9.547
    5        0.549   0.239   8.761   9.549
    6        0.541   0.241   8.765   9.547
    7        0.541   0.241   8.765   9.547
    8        0.541   0.241   8.765   9.547
    9        0.543   0.239   8.766   9.549
   10        0.528   0.306   8.766   9.600
   11        0.521   0.308   8.780   9.609
   12        0.528   0.306   8.766   9.600
   13        0.521   0.308   8.780   9.609
   14        0.521   0.308   8.780   9.609
   15        0.516   0.307   8.776   9.599
   16        0.528   0.306   8.766   9.600
   17        0.516   0.307   8.776   9.599
   18        0.516   0.307   8.776   9.599
   19        0.515   0.294   8.773   9.582
   20        0.581   0.343   8.726   9.649
   21        0.581   0.343   8.726   9.649
   22        0.506   0.306   8.778   9.590
   23        0.581   0.343   8.726   9.649
   24        0.506   0.306   8.778   9.590
   25        0.515   0.294   8.773   9.582
   26        0.515   0.294   8.773   9.582
   27        0.506   0.306   8.778   9.590
   28        0.538   0.225   8.753   9.516
   29        0.583   0.251   8.727   9.561
   30        0.583   0.251   8.727   9.561
   31        0.583   0.251   8.727   9.561
   32        0.583   0.251   8.727   9.561
   33        0.583   0.251   8.727   9.561
   34        0.583   0.251   8.727   9.561
   35        0.535   0.223   8.758   9.516
   36        0.601   0.522   3.847   4.970
   37        0.532   0.014   0.000   0.546
--------------------------------------------------
tot         20.089  10.237 310.408 340.735
 
 BZINTS: Fermi energy:    0.647035;  392.000000 electrons
         Band energy:-0.121114E+04;  BLOECHL correction:   -0.030259

 total amount of memory used by VASP MPI-rank0   122606. kBytes
=======================================================================

   base      :      30000. kBytes
   nonlr-proj:      14221. kBytes
   fftplans  :       4330. kBytes
   grid      :      17879. kBytes
   one-center:        575. kBytes
   wavefun   :      55601. kBytes
 
  
  
 General timing and accounting informations for this job:
 ========================================================
  
                  Total CPU time used (sec):       76.465
                            User time (sec):       73.670
                          System time (sec):        2.795
                         Elapsed time (sec):       76.849
  
                   Maximum memory used (kb):      382304.
                   Average memory used (kb):          N/A
  
                          Minor page faults:        74178
                          Major page faults:            0
                 Voluntary context switches:         5198
