PROCAR new format
# of k-points:   10         # of bands:  252         # of ions:   37

 k-point     1 :    0.00000000 0.00000000 0.00000000     weight = 0.01562500

band     1 # energy   -8.19617884 # occ.  2.00000000
 
ion      s      p      d    tot
    1  0.006  0.001  0.000  0.007
    2  0.006  0.000  0.000  0.006
    3  0.006  0.000  0.000  0.006
    4  0.006  0.000  0.000  0.006
    5  0.006  0.001  0.000  0.007
    6  0.006  0.000  0.000  0.006
    7  0.006  0.000  0.000  0.006
    8  0.006  0.000  0.000  0.006
    9  0.006  0.000  0.000  0.006
   10  0.025  0.000  0.000  0.025
   11  0.026  0.000  0.000  0.026
   12  0.025  0.000  0.000  0.025
   13  0.026  0.000  0.000  0.026
   14  0.026  0.000  0.000  0.026
   15  0.024  0.000  0.000  0.024
   16  0.025  0.000  0.000  0.025
   17  0.024  0.000  0.000  0.024
   18  0.024  0.000  0.000  0.024
   19  0.022  0.000  0.000  0.023
   20  0.030  0.000  0.000  0.031
   21  0.030  0.000  0.000  0.031
   22  0.024  0.000  0.000  0.024
   23  0.030  0.000  0.000  0.031
   24  0.024  0.000  0.000  0.024
   25  0.022  0.000  0.000  0.023
   26  0.022  0.000  0.000  0.023
   27  0.024  0.000  0.000  0.024
   28  0.005  0.000  0.000  0.005
   29  0.006  0.000  0.000  0.006
   30  0.006  0.000  0.000  0.006
   31  0.006  0.000  0.000  0.006
   32  0.006  0.000  0.000  0.006
   33  0.006  0.000  0.000  0.006
   34  0.006  0.000  0.000  0.006
   35  0.005  0.000  0.000  0.005
   36  0.016  0.001  0.000  0.017
   37  0.001  0.000  0.000  0.001
tot    0.569  0.012  0.004  0.585
 
band     2 # energy   -7.07269363 # occ.  2.00000000
 
ion      s      p      d    tot
    1  0.016  0.000  0.001  0.017
    2  0.016  0.000  0.001  0.017
    3  0.016  0.000  0.001  0.017
    4  0.016  0.000  0.001  0.017
    5  0.016  0.000  0.001  0.017
    6  0.016  0.000  0.001  0.017
    7  0.016  0.000  0.001  0.017
    8  0.016  0.000  0.001  0.017
    9  0.017  0.001  0.001  0.018
   10  0.012  0.001  0.003  0.016
   11  0.011  0.001  0.002  0.015
   12  0.012  0.001  0.003  0.016
   13  0.011  0.001  0.002  0.015
   14  0.011  0.001  0.002  0.015
   15  0.013  0.001  0.002  0.016
   16  0.012  0.001  0.003  0.016
   17  0.013  0.001  0.002  0.016
   18  0.013  0.001  0.002  0.016
   19  0.008  0.001  0.003  0.012
   20  0.016  0.002  0.002  0.020
   21  0.016  0.002  0.002  0.020
   22  0.009  0.001  0.003  0.012
   23  0.016  0.002  0.002  0.020
   24  0.009  0.001  0.003  0.012
   25  0.008  0.001  0.003  0.012
   26  0.008  0.001  0.003  0.012
   27  0.009  0.001  0.003  0.012
   28  0.012  0.000  0.001  0.013
   29  0.016  0.001  0.002  0.018
   30  0.016  0.001  0.002  0.018
   31  0.016  0.001  0.002  0.018
   32  0.016  0.001  0.002  0.018
   33  0.016  0.001  0.002  0.018
   34  0.016  0.001  0.002  0.018
   35  0.012  0.000  0.001  0.013
   36  0.041  0.001  0.000  0.041
   37  0.002  0.000  0.000  0.002
tot    0.511  0.033  0.063  0.607
 
band     3 # energy   -6.15162170 # occ.  2.00000000
 
ion      s      p      d    tot
    1  0.013  0.000  0.000  0.013
    2  0.003  0.000  0.004  0.007
    3  0.003  0.000  0.004  0.007
    4  0.003  0.000  0.004  0.007
    5  0.006  0.000  0.002  0.009
    6  0.003  0.000  0.004  0.007
    7  0.003  0.000  0.004  0.007
    8  0.003  0.000  0.004  0.007
    9  0.000  0.001  0.004  0.005
   10  0.002  0.000  0.014  0.017
   11  0.002  0.001  0.006  0.009
   12  0.002  0.000  0.014  0.017
   13  0.002  0.001  0.006  0.009
   14  0.002  0.001  0.006  0.009
   15  0.015  0.002  0.003  0.020
   16  0.002  0.000  0.014  0.017
   17  0.015  0.002  0.003  0.020
   18  0.015  0.002  0.003  0.020
   19  0.010  0.000  0.017  0.027
   20  0.005  0.001  0.034  0.040
   21  0.005  0.001  0.034  0.040
   22  0.029  0.002  0.005  0.036
   23  0.005  0.001  0.034  0.040
   24  0.029  0.002  0.005  0.036
   25  0.010  0.000  0.017  0.027
   26  0.010  0.000  0.017  0.027
   27  0.029  0.002  0.005  0.036
   28  0.000  0.000  0.008  0.009
   29  0.007  0.001  0.012  0.020
   30  0.007  0.001  0.012  0.020
   31  0.007  0.001  0.012  0.020
   32  0.007  0.001  0.012  0.020
   33  0.007  0.001  0.012  0.020
   34  0.007  0.001  0.012  0.020
   35  0.000  0.001  0.007  0.008
   36  0.070  0.001  0.000  0.071
   37  0.004  0.000  0.000  0.004
tot    0.341  0.034  0.349  0.723
 
band     4 # energy   -6.06443260 # occ.  2.00000000
 
ion      s      p      d    tot
    1  0.003  0.000  0.013  0.016
    2  0.010  0.000  0.009  0.019
    3  0.010  0.000  0.009  0.019
    4  0.010  0.000  0.009  0.019
    5  0.007  0.000  0.007  0.014
    6  0.010  0.000  0.009  0.020
    7  0.010  0.000  0.009  0.019
    8  0.010  0.000  0.009  0.020
    9  0.027  0.000  0.005  0.032
   10  0.012  0.001  0.010  0.023
   11  0.008  0.002  0.008  0.017
   12  0.010  0.001  0.010  0.021
   13  0.008  0.002  0.008  0.017
   14  0.006  0.002  0.007  0.016
   15  0.003  0.001  0.009  0.013
   16  0.010  0.001  0.010  0.021
   17  0.003  0.001  0.009  0.013
   18  0.002  0.001  0.009  0.013
   19  0.001  0.001  0.012  0.014
   20  0.020  0.002  0.014  0.035
   21  0.016  0.002  0.014  0.032
   22  0.003  0.001  0.005  0.009
   23  0.016  0.002  0.014  0.032
   24  0.003  0.001  0.005  0.009
   25  0.001  0.001  0.011  0.013
   26  0.001  0.001  0.012  0.014
   27  0.003  0.001  0.005  0.009
   28  0.012  0.000  0.004  0.016
   29  0.012  0.000  0.009  0.021
   30  0.012  0.000  0.009  0.022
   31  0.012  0.000  0.010  0.021
   32  0.012  0.000  0.009  0.022
   33  0.012  0.000  0.009  0.022
   34  0.012  0.000  0.009  0.022
   35  0.023  0.000  0.005  0.028
   36  0.001  0.003  0.014  0.018
   37  0.000  0.000  0.000  0.000
tot    0.331  0.028  0.331  0.690
 
band     5 # energy   -6.06384254 # occ.  2.00000000
 
ion      s      p      d    tot
    1  0.000  0.000  0.008  0.008
    2  0.001  0.000  0.003  0.004
    3  0.003  0.001  0.002  0.007
    4  0.006  0.001  0.003  0.010
    5  0.000  0.001  0.006  0.007
    6  0.002  0.001  0.002  0.005
    7  0.006  0.001  0.003  0.010
    8  0.000  0.000  0.003  0.003
    9  0.000  0.000  0.001  0.001
   10  0.006  0.000  0.028  0.034
   11  0.017  0.003  0.020  0.039
   12  0.036  0.002  0.006  0.045
   13  0.046  0.001  0.011  0.058
   14  0.008  0.003  0.022  0.033
   15  0.000  0.002  0.007  0.009
   16  0.013  0.001  0.023  0.036
   17  0.001  0.000  0.011  0.012
   18  0.000  0.003  0.006  0.008
   19  0.004  0.003  0.007  0.013
   20  0.011  0.002  0.033  0.045
   21  0.069  0.001  0.014  0.083
   22  0.015  0.002  0.005  0.022
   23  0.024  0.002  0.028  0.054
   24  0.002  0.001  0.022  0.025
   25  0.002  0.003  0.005  0.010
   26  0.010  0.000  0.013  0.023
   27  0.005  0.001  0.018  0.024
   28  0.000  0.000  0.001  0.001
   29  0.001  0.000  0.003  0.004
   30  0.007  0.001  0.005  0.013
   31  0.001  0.000  0.003  0.004
   32  0.007  0.001  0.005  0.013
   33  0.002  0.001  0.003  0.006
   34  0.003  0.001  0.003  0.007
   35  0.000  0.000  0.004  0.004
   36  0.000  0.004  0.011  0.015
   37  0.000  0.000  0.000  0.000
tot    0.307  0.045  0.345  0.696
 
band     6 # energy   -6.06384214 # occ.  2.00000000
 
ion      s      p      d    tot
    1  0.000  0.000  0.008  0.008
    2  0.006  0.001  0.002  0.009
    3  0.003  0.001  0.003  0.006
    4  0.001  0.000  0.002  0.004
    5  0.000  0.001  0.006  0.007
    6  0.004  0.001  0.003  0.008
    7  0.000  0.000  0.002  0.003
    8  0.005  0.001  0.003  0.009
    9  0.000  0.000  0.001  0.001
   10  0.029  0.002  0.010  0.041
   11  0.030  0.002  0.016  0.047
   12  0.001  0.000  0.032  0.032
   13  0.001  0.004  0.024  0.028
   14  0.041  0.001  0.013  0.055
   15  0.000  0.001  0.009  0.010
   16  0.024  0.002  0.015  0.041
   17  0.000  0.003  0.005  0.008
   18  0.001  0.001  0.010  0.011
   19  0.007  0.002  0.009  0.017
   20  0.056  0.001  0.018  0.075
   21  0.001  0.002  0.036  0.039
   22  0.000  0.000  0.025  0.026
   23  0.046  0.001  0.021  0.069
   24  0.012  0.001  0.008  0.022
   25  0.009  0.001  0.012  0.022
   26  0.000  0.004  0.003  0.007
   27  0.010  0.001  0.012  0.023
   28  0.000  0.000  0.001  0.001
   29  0.006  0.001  0.004  0.011
   30  0.000  0.000  0.002  0.003
   31  0.006  0.001  0.004  0.012
   32  0.000  0.000  0.002  0.002
   33  0.004  0.001  0.004  0.009
   34  0.004  0.001  0.004  0.009
   35  0.000  0.000  0.004  0.004
   36  0.000  0.004  0.011  0.015
   37  0.000  0.000  0.000  0.000
tot    0.307  0.045  0.345  0.696
 
band     7 # energy   -6.02221293 # occ.  2.00000000
 
ion      s      p      d    tot
    1  0.019  0.000  0.009  0.028
    2  0.009  0.000  0.012  0.021
    3  0.009  0.000  0.012  0.021
    4  0.009  0.000  0.012  0.021
    5  0.005  0.000  0.013  0.019
    6  0.009  0.000  0.012  0.021
    7  0.009  0.000  0.012  0.021
    8  0.009  0.000  0.012  0.021
    9  0.007  0.000  0.010  0.017
   10  0.000  0.000  0.028  0.029
   11  0.010  0.000  0.021  0.031
   12  0.000  0.000  0.028  0.029
   13  0.010  0.000  0.021  0.031
   14  0.010  0.000  0.021  0.031
   15  0.011  0.000  0.019  0.030
   16  0.000  0.000  0.028  0.029
   17  0.011  0.000  0.019  0.030
   18  0.011  0.000  0.019  0.030
   19  0.009  0.000  0.012  0.022
   20  0.005  0.000  0.029  0.035
   21  0.005  0.000  0.029  0.034
   22  0.000  0.000  0.017  0.017
   23  0.005  0.000  0.029  0.034
   24  0.000  0.000  0.017  0.017
   25  0.009  0.000  0.012  0.022
   26  0.009  0.000  0.012  0.022
   27  0.000  0.000  0.017  0.017
   28  0.001  0.000  0.004  0.004
   29  0.004  0.000  0.005  0.009
   30  0.004  0.000  0.005  0.009
   31  0.004  0.000  0.005  0.009
   32  0.004  0.000  0.005  0.009
   33  0.004  0.000  0.005  0.009
   34  0.004  0.000  0.005  0.009
   35  0.008  0.000  0.002  0.010
   36  0.001  0.001  0.009  0.012
   37  0.000  0.000  0.000  0.000
tot    0.225  0.006  0.527  0.758
 
band     8 # energy   -5.97288467 # occ.  2.00000000
 
ion      s      p      d    tot
    1  0.005  0.001  0.002  0.008
    2  0.000  0.001  0.007  0.008
    3  0.000  0.001  0.006  0.008
    4  0.000  0.001  0.007  0.008
    5  0.020  0.002  0.000  0.022
    6  0.000  0.001  0.006  0.008
    7  0.000  0.001  0.006  0.008
    8  0.000  0.001  0.006  0.008
    9  0.000  0.000  0.003  0.003
   10  0.024  0.003  0.001  0.028
   11  0.019  0.001  0.023  0.043
   12  0.024  0.003  0.001  0.028
   13  0.019  0.001  0.023  0.043
   14  0.019  0.001  0.023  0.043
   15  0.002  0.001  0.024  0.026
   16  0.024  0.003  0.001  0.028
   17  0.002  0.001  0.024  0.026
   18  0.002  0.001  0.024  0.026
   19  0.018  0.002  0.009  0.029
   20  0.008  0.003  0.016  0.027
   21  0.008  0.003  0.016  0.027
   22  0.008  0.000  0.026  0.034
   23  0.008  0.003  0.016  0.027
   24  0.008  0.000  0.026  0.034
   25  0.018  0.002  0.009  0.029
   26  0.018  0.002  0.009  0.029
   27  0.008  0.000  0.026  0.034
   28  0.016  0.001  0.000  0.017
   29  0.001  0.000  0.004  0.006
   30  0.001  0.000  0.004  0.005
   31  0.001  0.000  0.004  0.006
   32  0.001  0.000  0.004  0.006
   33  0.001  0.000  0.004  0.005
   34  0.001  0.000  0.004  0.006
   35  0.001  0.001  0.005  0.007
   36  0.000  0.000  0.000  0.000
   37  0.000  0.000  0.000  0.000
tot    0.290  0.037  0.371  0.698
 
band     9 # energy   -5.95954451 # occ.  2.00000000
 
ion      s      p      d    tot
    1  0.000  0.001  0.003  0.004
    2  0.004  0.001  0.004  0.009
    3  0.008  0.001  0.004  0.013
    4  0.004  0.001  0.004  0.009
    5  0.000  0.000  0.005  0.005
    6  0.001  0.000  0.003  0.004
    7  0.008  0.001  0.004  0.013
    8  0.001  0.000  0.003  0.004
    9  0.000  0.001  0.011  0.012
   10  0.024  0.000  0.017  0.041
   11  0.003  0.001  0.022  0.026
   12  0.006  0.004  0.006  0.016
   13  0.002  0.001  0.022  0.026
   14  0.010  0.001  0.007  0.018
   15  0.017  0.001  0.033  0.051
   16  0.006  0.003  0.007  0.016
   17  0.015  0.001  0.033  0.050
   18  0.064  0.002  0.006  0.071
   19  0.010  0.001  0.027  0.037
   20  0.000  0.001  0.015  0.016
   21  0.000  0.002  0.012  0.014
   22  0.009  0.003  0.016  0.027
   23  0.000  0.002  0.012  0.014
   24  0.036  0.001  0.011  0.048
   25  0.038  0.002  0.003  0.043
   26  0.009  0.001  0.027  0.037
   27  0.009  0.003  0.015  0.028
   28  0.000  0.000  0.006  0.006
   29  0.000  0.000  0.002  0.002
   30  0.002  0.000  0.002  0.004
   31  0.000  0.000  0.002  0.002
   32  0.004  0.001  0.002  0.007
   33  0.002  0.000  0.001  0.004
   34  0.004  0.001  0.003  0.007
   35  0.000  0.001  0.004  0.005
   36  0.000  0.000  0.001  0.001
   37  0.000  0.000  0.000  0.000
tot    0.296  0.041  0.355  0.693
 
band    10 # energy   -5.95951636 # occ.  2.00000000
 
ion      s      p      d    tot
    1  0.000  0.001  0.003  0.004
    2  0.005  0.001  0.003  0.009
    3  0.001  0.000  0.004  0.005
    4  0.004  0.001  0.003  0.009
    5  0.000  0.000  0.005  0.005
    6  0.008  0.001  0.004  0.014
    7  0.000  0.000  0.004  0.005
    8  0.008  0.001  0.004  0.014
    9  0.000  0.001  0.011  0.012
   10  0.000  0.005  0.003  0.008
   11  0.007  0.001  0.012  0.021
   12  0.018  0.001  0.013  0.033
   13  0.007  0.001  0.012  0.021
   14  0.000  0.001  0.027  0.028
   15  0.047  0.001  0.015  0.064
   16  0.018  0.001  0.013  0.032
   17  0.049  0.001  0.015  0.065
   18  0.000  0.001  0.042  0.043
   19  0.028  0.002  0.011  0.041
   20  0.000  0.002  0.011  0.013
   21  0.000  0.001  0.014  0.015
   22  0.027  0.001  0.013  0.041
   23  0.000  0.001  0.014  0.015
   24  0.000  0.004  0.017  0.021
   25  0.000  0.000  0.035  0.035
   26  0.029  0.002  0.011  0.041
   27  0.026  0.002  0.013  0.041
   28  0.000  0.000  0.006  0.006
   29  0.004  0.001  0.002  0.007
   30  0.002  0.000  0.002  0.005
   31  0.004  0.001  0.002  0.007
   32  0.000  0.000  0.001  0.002
   33  0.002  0.000  0.002  0.005
   34  0.000  0.000  0.001  0.002
   35  0.000  0.001  0.004  0.005
   36  0.000  0.000  0.001  0.001
   37  0.000  0.000  0.000  0.000
tot    0.296  0.041  0.355  0.693
 
band    11 # energy   -5.58774144 # occ.  2.00000000
 
ion      s      p      d    tot
    1  0.003  0.000  0.000  0.004
    2  0.000  0.001  0.006  0.007
    3  0.000  0.001  0.006  0.007
    4  0.000  0.001  0.006  0.007
    5  0.013  0.001  0.000  0.015
    6  0.000  0.001  0.006  0.007
    7  0.000  0.001  0.006  0.007
    8  0.000  0.001  0.006  0.007
    9  0.003  0.001  0.002  0.005
   10  0.000  0.000  0.029  0.029
   11  0.010  0.002  0.001  0.012
   12  0.000  0.000  0.029  0.029
   13  0.010  0.002  0.001  0.012
   14  0.010  0.002  0.001  0.012
   15  0.011  0.001  0.027  0.040
   16  0.000  0.000  0.029  0.029
   17  0.011  0.001  0.027  0.040
   18  0.011  0.001  0.028  0.040
   19  0.012  0.002  0.009  0.022
   20  0.003  0.002  0.029  0.035
   21  0.003  0.002  0.029  0.035
   22  0.002  0.001  0.037  0.039
   23  0.003  0.002  0.029  0.035
   24  0.002  0.001  0.036  0.039
   25  0.012  0.002  0.009  0.022
   26  0.012  0.002  0.009  0.022
   27  0.002  0.001  0.037  0.039
   28  0.018  0.001  0.000  0.019
   29  0.001  0.001  0.012  0.014
   30  0.001  0.001  0.012  0.014
   31  0.001  0.001  0.012  0.014
   32  0.001  0.001  0.012  0.014
   33  0.001  0.001  0.012  0.014
   34  0.001  0.001  0.012  0.014
   35  0.004  0.000  0.002  0.007
   36  0.033  0.002  0.003  0.038
   37  0.002  0.000  0.000  0.003
tot    0.194  0.040  0.511  0.745
 
band    12 # energy   -5.57385514 # occ.  2.00000000
 
ion      s      p      d    tot
    1  0.000  0.001  0.004  0.004
    2  0.001  0.001  0.005  0.006
    3  0.009  0.001  0.004  0.015
    4  0.001  0.001  0.005  0.006
    5  0.000  0.001  0.009  0.011
    6  0.004  0.001  0.004  0.008
    7  0.009  0.001  0.004  0.015
    8  0.004  0.001  0.004  0.008
    9  0.000  0.000  0.008  0.008
   10  0.000  0.001  0.049  0.050
   11  0.017  0.001  0.020  0.038
   12  0.007  0.001  0.018  0.027
   13  0.017  0.001  0.019  0.038
   14  0.000  0.000  0.048  0.048
   15  0.002  0.000  0.019  0.021
   16  0.007  0.001  0.018  0.027
   17  0.002  0.000  0.019  0.021
   18  0.000  0.001  0.012  0.013
   19  0.003  0.000  0.017  0.020
   20  0.000  0.000  0.086  0.086
   21  0.015  0.001  0.026  0.042
   22  0.004  0.001  0.018  0.023
   23  0.015  0.001  0.026  0.042
   24  0.000  0.001  0.032  0.032
   25  0.000  0.001  0.009  0.010
   26  0.003  0.000  0.017  0.020
   27  0.004  0.001  0.018  0.024
   28  0.000  0.000  0.008  0.008
   29  0.004  0.001  0.006  0.011
   30  0.009  0.001  0.005  0.016
   31  0.004  0.001  0.006  0.011
   32  0.001  0.000  0.004  0.005
   33  0.009  0.001  0.005  0.016
   34  0.001  0.000  0.004  0.005
   35  0.000  0.000  0.002  0.003
   36  0.000  0.004  0.010  0.014
   37  0.000  0.000  0.000  0.000
tot    0.152  0.032  0.568  0.752
 
band    13 # energy   -5.57382532 # occ.  2.00000000
 
ion      s      p      d    tot
    1  0.000  0.001  0.004  0.004
    2  0.008  0.001  0.004  0.013
    3  0.000  0.000  0.004  0.005
    4  0.008  0.001  0.004  0.013
    5  0.000  0.001  0.009  0.011
    6  0.005  0.001  0.005  0.011
    7  0.000  0.000  0.004  0.005
    8  0.005  0.001  0.005  0.011
    9  0.000  0.000  0.008  0.008
   10  0.009  0.002  0.008  0.019
   11  0.006  0.000  0.038  0.045
   12  0.002  0.001  0.039  0.042
   13  0.006  0.000  0.038  0.045
   14  0.023  0.001  0.010  0.035
   15  0.001  0.001  0.014  0.016
   16  0.002  0.001  0.039  0.042
   17  0.001  0.001  0.014  0.016
   18  0.002  0.000  0.021  0.023
   19  0.001  0.001  0.012  0.014
   20  0.019  0.001  0.006  0.027
   21  0.005  0.000  0.066  0.072
   22  0.001  0.001  0.027  0.029
   23  0.005  0.000  0.066  0.072
   24  0.005  0.001  0.014  0.021
   25  0.004  0.000  0.020  0.024
   26  0.001  0.001  0.012  0.014
   27  0.001  0.001  0.027  0.029
   28  0.000  0.000  0.008  0.008
   29  0.005  0.001  0.004  0.010
   30  0.000  0.000  0.004  0.005
   31  0.005  0.001  0.004  0.010
   32  0.009  0.001  0.006  0.016
   33  0.000  0.000  0.004  0.005
   34  0.009  0.001  0.006  0.016
   35  0.000  0.000  0.002  0.003
   36  0.000  0.004  0.010  0.014
   37  0.000  0.000  0.000  0.000
tot    0.152  0.032  0.568  0.752
 
band    14 # energy   -5.54918645 # occ.  2.00000000
 
ion      s      p      d    tot
    1  0.010  0.001  0.003  0.015
    2  0.000  0.001  0.009  0.009
    3  0.000  0.001  0.009  0.009
    4  0.000  0.001  0.009  0.009
    5  0.002  0.000  0.002  0.004
    6  0.000  0.001  0.009  0.009
    7  0.000  0.001  0.009  0.009
    8  0.000  0.001  0.009  0.009
    9  0.020  0.002  0.000  0.023
   10  0.011  0.001  0.023  0.035
   11  0.001  0.000  0.048  0.049
   12  0.011  0.001  0.023  0.035
   13  0.001  0.000  0.048  0.049
   14  0.001  0.000  0.048  0.049
   15  0.008  0.002  0.012  0.022
   16  0.011  0.001  0.023  0.035
   17  0.008  0.002  0.012  0.022
   18  0.008  0.002  0.012  0.022
   19  0.001  0.000  0.018  0.019
   20  0.003  0.001  0.049  0.053
   21  0.003  0.001  0.049  0.053
   22  0.010  0.001  0.012  0.024
   23  0.003  0.001  0.049  0.053
   24  0.010  0.001  0.012  0.024
   25  0.001  0.000  0.018  0.019
   26  0.001  0.000  0.018  0.019
   27  0.010  0.001  0.012  0.024
   28  0.007  0.000  0.000  0.007
   29  0.000  0.000  0.004  0.005
   30  0.000  0.000  0.004  0.005
   31  0.000  0.000  0.004  0.005
   32  0.000  0.000  0.004  0.005
   33  0.000  0.000  0.004  0.005
   34  0.000  0.000  0.004  0.005
   35  0.009  0.001  0.003  0.012
   36  0.002  0.000  0.005  0.006
   37  0.001  0.000  0.000  0.001
tot    0.150  0.028  0.581  0.759
 
band    15 # energy   -5.48188815 # occ.  2.00000000
 
ion      s      p      d    tot
    1  0.000  0.001  0.014  0.015
    2  0.009  0.001  0.004  0.014
    3  0.001  0.000  0.005  0.006
    4  0.009  0.001  0.004  0.014
    5  0.000  0.000  0.006  0.006
    6  0.004  0.001  0.005  0.010
    7  0.001  0.000  0.005  0.006
    8  0.004  0.001  0.005  0.010
    9  0.000  0.001  0.006  0.007
   10  0.000  0.001  0.033  0.033
   11  0.000  0.001  0.020  0.021
   12  0.008  0.000  0.021  0.030
   13  0.000  0.001  0.020  0.021
   14  0.000  0.001  0.016  0.017
   15  0.009  0.002  0.020  0.031
   16  0.008  0.000  0.021  0.030
   17  0.010  0.002  0.020  0.031
   18  0.000  0.000  0.060  0.061
   19  0.015  0.001  0.020  0.035
   20  0.000  0.002  0.022  0.023
   21  0.000  0.001  0.025  0.026
   22  0.017  0.001  0.020  0.038
   23  0.000  0.001  0.025  0.026
   24  0.000  0.001  0.029  0.029
   25  0.000  0.000  0.068  0.068
   26  0.015  0.001  0.020  0.035
   27  0.017  0.001  0.020  0.038
   28  0.000  0.001  0.005  0.006
   29  0.005  0.001  0.004  0.010
   30  0.000  0.000  0.006  0.006
   31  0.005  0.001  0.004  0.010
   32  0.005  0.001  0.003  0.009
   33  0.000  0.000  0.006  0.006
   34  0.005  0.001  0.003  0.009
   35  0.000  0.001  0.008  0.009
   36  0.000  0.000  0.004  0.004
   37  0.000  0.000  0.000  0.000
tot    0.147  0.028  0.575  0.751
 
band    16 # energy   -5.48186188 # occ.  2.00000000
 
ion      s      p      d    tot
    1  0.000  0.001  0.014  0.015
    2  0.000  0.001  0.005  0.006
    3  0.009  0.001  0.004  0.014
    4  0.000  0.001  0.005  0.006
    5  0.000  0.000  0.006  0.006
    6  0.005  0.001  0.004  0.010
    7  0.009  0.001  0.004  0.014
    8  0.005  0.001  0.004  0.010
    9  0.000  0.001  0.006  0.007
   10  0.011  0.000  0.017  0.029
   11  0.000  0.001  0.017  0.019
   12  0.003  0.000  0.029  0.032
   13  0.000  0.001  0.017  0.019
   14  0.000  0.001  0.021  0.022
   15  0.003  0.001  0.047  0.051
   16  0.003  0.000  0.029  0.032
   17  0.003  0.001  0.047  0.051
   18  0.013  0.002  0.006  0.021
   19  0.005  0.001  0.052  0.057
   20  0.000  0.000  0.026  0.026
   21  0.000  0.001  0.023  0.024
   22  0.006  0.001  0.026  0.032
   23  0.000  0.001  0.023  0.024
   24  0.022  0.001  0.018  0.040
   25  0.019  0.001  0.004  0.024
   26  0.005  0.001  0.052  0.057
   27  0.006  0.001  0.026  0.032
   28  0.000  0.001  0.005  0.006
   29  0.002  0.000  0.005  0.007
   30  0.007  0.001  0.002  0.010
   31  0.002  0.000  0.005  0.007
   32  0.002  0.001  0.005  0.008
   33  0.007  0.001  0.002  0.010
   34  0.002  0.001  0.005  0.008
   35  0.000  0.001  0.008  0.009
   36  0.000  0.000  0.004  0.004
   37  0.000  0.000  0.000  0.000
tot    0.147  0.028  0.575  0.751
 
band    17 # energy   -5.21611454 # occ.  2.00000000
 
ion      s      p      d    tot
    1  0.014  0.000  0.006  0.021
    2  0.000  0.001  0.020  0.021
    3  0.000  0.001  0.020  0.021
    4  0.000  0.001  0.020  0.021
    5  0.001  0.000  0.000  0.001
    6  0.000  0.001  0.020  0.021
    7  0.000  0.001  0.020  0.021
    8  0.000  0.001  0.020  0.021
    9  0.022  0.001  0.004  0.027
   10  0.001  0.001  0.017  0.018
   11  0.000  0.000  0.009  0.009
   12  0.001  0.001  0.017  0.018
   13  0.000  0.000  0.009  0.009
   14  0.000  0.000  0.009  0.009
   15  0.000  0.000  0.033  0.033
   16  0.001  0.001  0.017  0.018
   17  0.000  0.000  0.033  0.033
   18  0.000  0.000  0.033  0.033
   19  0.000  0.000  0.033  0.033
   20  0.000  0.000  0.030  0.031
   21  0.000  0.000  0.030  0.030
   22  0.000  0.000  0.025  0.025
   23  0.000  0.000  0.030  0.030
   24  0.000  0.000  0.025  0.025
   25  0.000  0.000  0.033  0.033
   26  0.000  0.000  0.033  0.033
   27  0.000  0.000  0.025  0.025
   28  0.004  0.000  0.015  0.019
   29  0.000  0.001  0.023  0.024
   30  0.000  0.001  0.023  0.024
   31  0.000  0.001  0.023  0.024
   32  0.000  0.001  0.023  0.024
   33  0.000  0.001  0.023  0.024
   34  0.000  0.001  0.023  0.024
   35  0.010  0.000  0.000  0.011
   36  0.023  0.000  0.003  0.026
   37  0.001  0.000  0.000  0.001
tot    0.083  0.015  0.726  0.823
 
band    18 # energy   -5.20744999 # occ.  2.00000000
 
ion      s      p      d    tot
    1  0.000  0.000  0.022  0.022
    2  0.004  0.001  0.007  0.012
    3  0.001  0.000  0.010  0.012
    4  0.004  0.001  0.007  0.012
    5  0.000  0.001  0.014  0.016
    6  0.010  0.001  0.008  0.019
    7  0.001  0.000  0.010  0.012
    8  0.010  0.001  0.008  0.019
    9  0.000  0.001  0.005  0.006
   10  0.000  0.001  0.024  0.025
   11  0.000  0.000  0.046  0.047
   12  0.000  0.000  0.012  0.012
   13  0.000  0.000  0.046  0.047
   14  0.001  0.001  0.043  0.045
   15  0.000  0.000  0.010  0.010
   16  0.000  0.000  0.012  0.012
   17  0.000  0.000  0.010  0.010
   18  0.000  0.000  0.014  0.015
   19  0.000  0.000  0.007  0.007
   20  0.001  0.000  0.099  0.101
   21  0.000  0.001  0.057  0.058
   22  0.000  0.000  0.020  0.021
   23  0.000  0.001  0.057  0.058
   24  0.001  0.000  0.013  0.015
   25  0.000  0.000  0.015  0.015
   26  0.000  0.000  0.007  0.007
   27  0.000  0.000  0.020  0.021
   28  0.000  0.001  0.002  0.003
   29  0.010  0.001  0.023  0.035
   30  0.003  0.000  0.013  0.017
   31  0.010  0.001  0.023  0.035
   32  0.002  0.000  0.009  0.012
   33  0.003  0.000  0.013  0.017
   34  0.002  0.000  0.009  0.012
   35  0.000  0.000  0.020  0.020
   36  0.000  0.003  0.021  0.025
   37  0.000  0.000  0.000  0.000
tot    0.069  0.019  0.741  0.829
 
band    19 # energy   -5.20742455 # occ.  2.00000000
 
ion      s      p      d    tot
    1  0.000  0.000  0.022  0.022
    2  0.006  0.000  0.010  0.017
    3  0.009  0.001  0.007  0.017
    4  0.006  0.000  0.010  0.017
    5  0.000  0.001  0.014  0.016
    6  0.000  0.000  0.009  0.010
    7  0.009  0.001  0.007  0.017
    8  0.000  0.000  0.009  0.010
    9  0.000  0.001  0.005  0.006
   10  0.000  0.000  0.008  0.008
   11  0.001  0.001  0.044  0.046
   12  0.000  0.000  0.020  0.021
   13  0.001  0.001  0.044  0.046
   14  0.000  0.000  0.047  0.047
   15  0.000  0.000  0.013  0.013
   16  0.000  0.000  0.020  0.021
   17  0.000  0.000  0.013  0.013
   18  0.000  0.000  0.008  0.008
   19  0.000  0.000  0.012  0.012
   20  0.000  0.001  0.043  0.044
   21  0.001  0.000  0.085  0.087
   22  0.001  0.000  0.015  0.017
   23  0.001  0.000  0.085  0.087
   24  0.000  0.000  0.022  0.022
   25  0.000  0.000  0.005  0.005
   26  0.000  0.000  0.012  0.012
   27  0.001  0.000  0.015  0.017
   28  0.000  0.001  0.002  0.003
   29  0.000  0.000  0.007  0.008
   30  0.007  0.001  0.017  0.026
   31  0.000  0.000  0.007  0.008
   32  0.008  0.001  0.021  0.030
   33  0.007  0.001  0.017  0.026
   34  0.008  0.001  0.021  0.030
   35  0.000  0.000  0.020  0.020
   36  0.000  0.003  0.021  0.025
   37  0.000  0.000  0.000  0.000
tot    0.069  0.019  0.741  0.829
 
band    20 # energy   -5.17032995 # occ.  2.00000000
 
ion      s      p      d    tot
    1  0.001  0.000  0.000  0.002
    2  0.000  0.000  0.003  0.004
    3  0.000  0.000  0.003  0.004
    4  0.000  0.000  0.003  0.004
    5  0.000  0.000  0.011  0.011
    6  0.000  0.000  0.003  0.004
    7  0.000  0.000  0.003  0.004
    8  0.000  0.000  0.003  0.004
    9  0.000  0.000  0.004  0.005
   10  0.000  0.000  0.014  0.014
   11  0.000  0.000  0.047  0.047
   12  0.000  0.000  0.014  0.014
   13  0.000  0.000  0.047  0.047
   14  0.000  0.000  0.047  0.047
   15  0.000  0.000  0.026  0.027
   16  0.000  0.000  0.014  0.014
   17  0.000  0.000  0.026  0.027
   18  0.000  0.000  0.026  0.027
   19  0.000  0.000  0.022  0.022
   20  0.001  0.000  0.057  0.059
   21  0.001  0.000  0.057  0.059
   22  0.001  0.000  0.032  0.033
   23  0.001  0.000  0.057  0.059
   24  0.001  0.000  0.032  0.033
   25  0.000  0.000  0.022  0.022
   26  0.000  0.000  0.022  0.022
   27  0.001  0.000  0.032  0.033
   28  0.019  0.001  0.002  0.021
   29  0.000  0.001  0.020  0.021
   30  0.000  0.001  0.020  0.021
   31  0.000  0.001  0.020  0.021
   32  0.000  0.001  0.020  0.021
   33  0.000  0.001  0.020  0.021
   34  0.000  0.001  0.020  0.021
   35  0.015  0.000  0.004  0.020
   36  0.004  0.000  0.013  0.017
   37  0.002  0.000  0.000  0.002
tot    0.050  0.012  0.772  0.834
 
band    21 # energy   -5.12821847 # occ.  2.00000000
 
ion      s      p      d    tot
    1  0.000  0.002  0.008  0.010
    2  0.012  0.001  0.020  0.033
    3  0.011  0.001  0.014  0.025
    4  0.012  0.001  0.020  0.033
    5  0.000  0.001  0.029  0.029
    6  0.000  0.000  0.015  0.016
    7  0.011  0.001  0.014  0.025
    8  0.000  0.000  0.015  0.016
    9  0.000  0.000  0.043  0.043
   10  0.001  0.001  0.037  0.039
   11  0.000  0.000  0.017  0.017
   12  0.000  0.000  0.020  0.021
   13  0.000  0.000  0.017  0.017
   14  0.000  0.000  0.013  0.013
   15  0.000  0.001  0.033  0.034
   16  0.000  0.000  0.020  0.020
   17  0.000  0.001  0.033  0.034
   18  0.000  0.001  0.034  0.035
   19  0.000  0.000  0.016  0.016
   20  0.000  0.000  0.013  0.013
   21  0.000  0.000  0.017  0.018
   22  0.000  0.000  0.020  0.021
   23  0.000  0.000  0.017  0.018
   24  0.002  0.001  0.030  0.032
   25  0.000  0.000  0.018  0.019
   26  0.000  0.000  0.016  0.016
   27  0.000  0.000  0.020  0.021
   28  0.000  0.000  0.025  0.025
   29  0.000  0.000  0.013  0.014
   30  0.009  0.001  0.008  0.018
   31  0.000  0.000  0.013  0.014
   32  0.010  0.001  0.019  0.031
   33  0.010  0.001  0.008  0.018
   34  0.011  0.001  0.019  0.031
   35  0.000  0.001  0.004  0.005
   36  0.000  0.001  0.017  0.018