PROCAR new format
# of k-points:   10         # of bands:  252         # of ions:   38

 k-point     1 :    0.00000000 0.00000000 0.00000000     weight = 0.01562500

band     1 # energy  -19.60781014 # occ.  2.00000000
 
ion      s      p      d    tot
    1  0.000  0.000  0.000  0.000
    2  0.000  0.000  0.000  0.000
    3  0.000  0.000  0.000  0.000
    4  0.000  0.000  0.000  0.000
    5  0.000  0.000  0.000  0.000
    6  0.000  0.000  0.000  0.000
    7  0.000  0.000  0.000  0.000
    8  0.000  0.000  0.000  0.000
    9  0.000  0.000  0.000  0.000
   10  0.000  0.000  0.000  0.000
   11  0.000  0.000  0.000  0.000
   12  0.000  0.000  0.000  0.000
   13  0.000  0.000  0.000  0.000
   14  0.000  0.000  0.000  0.000
   15  0.000  0.000  0.000  0.000
   16  0.000  0.000  0.000  0.000
   17  0.000  0.000  0.000  0.000
   18  0.000  0.000  0.000  0.000
   19  0.000  0.000  0.000  0.000
   20  0.000  0.000  0.000  0.000
   21  0.000  0.000  0.000  0.000
   22  0.000  0.000  0.000  0.000
   23  0.000  0.000  0.000  0.000
   24  0.000  0.000  0.000  0.000
   25  0.000  0.000  0.000  0.000
   26  0.000  0.000  0.000  0.000
   27  0.000  0.000  0.000  0.000
   28  0.000  0.000  0.000  0.000
   29  0.000  0.000  0.000  0.000
   30  0.000  0.000  0.000  0.000
   31  0.000  0.000  0.000  0.000
   32  0.000  0.000  0.000  0.000
   33  0.000  0.000  0.000  0.000
   34  0.000  0.000  0.000  0.000
   35  0.000  0.000  0.000  0.000
   36  0.018  0.028  0.031  0.077
   37  0.745  0.016  0.000  0.761
   38  0.116  0.024  0.000  0.140
tot    0.879  0.069  0.031  0.978
 
band     2 # energy   -8.07157483 # occ.  2.00000000
 
ion      s      p      d    tot
    1  0.001  0.000  0.000  0.001
    2  0.001  0.000  0.000  0.001
    3  0.001  0.000  0.000  0.001
    4  0.001  0.000  0.000  0.001
    5  0.001  0.000  0.000  0.001
    6  0.001  0.000  0.000  0.001
    7  0.001  0.000  0.000  0.001
    8  0.001  0.000  0.000  0.001
    9  0.001  0.000  0.000  0.001
   10  0.005  0.000  0.000  0.005
   11  0.005  0.000  0.000  0.005
   12  0.005  0.000  0.000  0.005
   13  0.005  0.000  0.000  0.005
   14  0.005  0.000  0.000  0.005
   15  0.005  0.000  0.000  0.005
   16  0.005  0.000  0.000  0.005
   17  0.005  0.000  0.000  0.005
   18  0.005  0.000  0.000  0.005
   19  0.006  0.000  0.000  0.006
   20  0.012  0.000  0.001  0.013
   21  0.012  0.000  0.001  0.013
   22  0.006  0.000  0.000  0.006
   23  0.012  0.000  0.001  0.013
   24  0.006  0.000  0.000  0.006
   25  0.006  0.000  0.000  0.006
   26  0.006  0.000  0.000  0.006
   27  0.006  0.000  0.000  0.006
   28  0.002  0.000  0.000  0.002
   29  0.003  0.000  0.000  0.003
   30  0.003  0.000  0.000  0.003
   31  0.003  0.000  0.000  0.003
   32  0.003  0.000  0.000  0.003
   33  0.003  0.000  0.000  0.003
   34  0.003  0.000  0.000  0.003
   35  0.002  0.000  0.000  0.002
   36  0.077  0.039  0.115  0.231
   37  0.019  0.398  0.000  0.416
   38  0.132  0.014  0.000  0.146
tot    0.373  0.454  0.121  0.948
 
band     3 # energy   -7.81295826 # occ.  2.00000000
 
ion      s      p      d    tot
    1  0.006  0.000  0.000  0.006
    2  0.006  0.000  0.000  0.006
    3  0.006  0.000  0.000  0.006
    4  0.006  0.000  0.000  0.006
    5  0.006  0.000  0.000  0.006
    6  0.006  0.000  0.000  0.006
    7  0.006  0.000  0.000  0.006
    8  0.006  0.000  0.000  0.006
    9  0.006  0.000  0.000  0.006
   10  0.022  0.000  0.000  0.022
   11  0.023  0.000  0.000  0.023
   12  0.022  0.000  0.000  0.022
   13  0.023  0.000  0.000  0.023
   14  0.023  0.000  0.000  0.023
   15  0.023  0.000  0.000  0.023
   16  0.022  0.000  0.000  0.022
   17  0.023  0.000  0.000  0.023
   18  0.023  0.000  0.000  0.023
   19  0.017  0.000  0.000  0.017
   20  0.015  0.000  0.000  0.016
   21  0.015  0.000  0.000  0.016
   22  0.018  0.000  0.000  0.018
   23  0.015  0.000  0.000  0.016
   24  0.018  0.000  0.000  0.018
   25  0.017  0.000  0.000  0.017
   26  0.017  0.000  0.000  0.017
   27  0.018  0.000  0.000  0.018
   28  0.003  0.000  0.000  0.003
   29  0.002  0.000  0.000  0.003
   30  0.002  0.000  0.000  0.003
   31  0.002  0.000  0.000  0.003
   32  0.002  0.000  0.000  0.003
   33  0.002  0.000  0.000  0.003
   34  0.002  0.000  0.000  0.003
   35  0.003  0.000  0.000  0.003
   36  0.007  0.025  0.040  0.073
   37  0.008  0.133  0.000  0.142
   38  0.044  0.004  0.000  0.048
tot    0.483  0.173  0.046  0.702
 
band     4 # energy   -6.67549044 # occ.  2.00000000
 
ion      s      p      d    tot
    1  0.017  0.000  0.001  0.019
    2  0.017  0.000  0.001  0.018
    3  0.017  0.000  0.001  0.018
    4  0.017  0.000  0.001  0.018
    5  0.016  0.000  0.001  0.018
    6  0.017  0.000  0.001  0.018
    7  0.017  0.000  0.001  0.018
    8  0.017  0.000  0.001  0.018
    9  0.017  0.000  0.001  0.018
   10  0.010  0.002  0.002  0.014
   11  0.009  0.002  0.003  0.013
   12  0.010  0.002  0.002  0.014
   13  0.009  0.002  0.003  0.013
   14  0.009  0.002  0.003  0.013
   15  0.009  0.002  0.002  0.013
   16  0.010  0.002  0.002  0.014
   17  0.009  0.002  0.002  0.013
   18  0.009  0.002  0.002  0.013
   19  0.015  0.001  0.004  0.020
   20  0.016  0.001  0.004  0.021
   21  0.016  0.001  0.004  0.021
   22  0.016  0.001  0.004  0.021
   23  0.016  0.001  0.004  0.021
   24  0.016  0.001  0.004  0.021
   25  0.015  0.001  0.004  0.020
   26  0.015  0.001  0.004  0.020
   27  0.016  0.001  0.004  0.021
   28  0.014  0.001  0.000  0.014
   29  0.013  0.001  0.001  0.014
   30  0.013  0.001  0.001  0.014
   31  0.013  0.001  0.001  0.014
   32  0.013  0.001  0.001  0.014
   33  0.013  0.001  0.001  0.014
   34  0.013  0.001  0.001  0.014
   35  0.014  0.001  0.000  0.014
   36  0.004  0.005  0.005  0.014
   37  0.001  0.007  0.000  0.009
   38  0.002  0.000  0.000  0.002
tot    0.484  0.043  0.079  0.607
 
band     5 # energy   -5.75861963 # occ.  2.00000000
 
ion      s      p      d    tot
    1  0.004  0.001  0.018  0.022
    2  0.012  0.000  0.013  0.025
    3  0.012  0.000  0.013  0.025
    4  0.012  0.000  0.013  0.025
    5  0.007  0.000  0.010  0.017
    6  0.012  0.000  0.013  0.025
    7  0.012  0.000  0.013  0.025
    8  0.012  0.000  0.013  0.025
    9  0.034  0.001  0.007  0.042
   10  0.015  0.001  0.019  0.034
   11  0.014  0.002  0.014  0.030
   12  0.015  0.001  0.019  0.034
   13  0.014  0.002  0.014  0.030
   14  0.014  0.002  0.014  0.030
   15  0.002  0.001  0.020  0.023
   16  0.015  0.001  0.019  0.034
   17  0.002  0.001  0.020  0.023
   18  0.002  0.001  0.020  0.023
   19  0.000  0.001  0.010  0.011
   20  0.012  0.001  0.011  0.024
   21  0.012  0.001  0.011  0.024
   22  0.008  0.001  0.001  0.011
   23  0.012  0.001  0.011  0.024
   24  0.008  0.001  0.001  0.011
   25  0.000  0.001  0.010  0.011
   26  0.000  0.001  0.010  0.011
   27  0.008  0.001  0.001  0.011
   28  0.005  0.000  0.000  0.006
   29  0.003  0.000  0.004  0.007
   30  0.003  0.000  0.004  0.007
   31  0.003  0.000  0.004  0.007
   32  0.003  0.000  0.004  0.007
   33  0.003  0.000  0.004  0.007
   34  0.003  0.000  0.004  0.007
   35  0.011  0.000  0.001  0.012
   36  0.000  0.003  0.001  0.004
   37  0.000  0.000  0.000  0.000
   38  0.000  0.000  0.000  0.000
tot    0.308  0.029  0.364  0.701
 
band     6 # energy   -5.74050131 # occ.  2.00000000
 
ion      s      p      d    tot
    1  0.000  0.000  0.008  0.008
    2  0.003  0.001  0.003  0.006
    3  0.001  0.000  0.003  0.004
    4  0.003  0.001  0.003  0.006
    5  0.000  0.001  0.007  0.008
    6  0.007  0.001  0.003  0.011
    7  0.001  0.000  0.003  0.005
    8  0.007  0.001  0.003  0.011
    9  0.000  0.000  0.001  0.001
   10  0.032  0.002  0.005  0.039
   11  0.011  0.003  0.023  0.037
   12  0.009  0.001  0.026  0.036
   13  0.015  0.003  0.022  0.039
   14  0.053  0.001  0.010  0.064
   15  0.001  0.003  0.006  0.009
   16  0.007  0.000  0.028  0.035
   17  0.001  0.003  0.006  0.010
   18  0.002  0.000  0.013  0.016
   19  0.002  0.003  0.005  0.010
   20  0.062  0.001  0.010  0.073
   21  0.017  0.002  0.028  0.047
   22  0.006  0.001  0.023  0.029
   23  0.013  0.002  0.030  0.045
   24  0.020  0.002  0.004  0.027
   25  0.008  0.000  0.013  0.021
   26  0.002  0.003  0.006  0.011
   27  0.004  0.001  0.024  0.029
   28  0.000  0.000  0.001  0.001
   29  0.007  0.001  0.004  0.012
   30  0.001  0.001  0.003  0.005
   31  0.007  0.001  0.004  0.012
   32  0.002  0.001  0.002  0.005
   33  0.001  0.000  0.003  0.005
   34  0.002  0.000  0.002  0.004
   35  0.000  0.000  0.005  0.005
   36  0.000  0.003  0.004  0.007
   37  0.000  0.000  0.000  0.000
   38  0.000  0.000  0.000  0.000
tot    0.306  0.044  0.343  0.693
 
band     7 # energy   -5.74049741 # occ.  2.00000000
 
ion      s      p      d    tot
    1  0.000  0.000  0.008  0.008
    2  0.004  0.001  0.004  0.009
    3  0.006  0.001  0.003  0.010
    4  0.004  0.001  0.004  0.008
    5  0.000  0.001  0.007  0.008
    6  0.000  0.000  0.003  0.003
    7  0.006  0.001  0.003  0.010
    8  0.000  0.000  0.003  0.003
    9  0.000  0.000  0.001  0.001
   10  0.000  0.000  0.034  0.035
   11  0.042  0.001  0.014  0.057
   12  0.023  0.001  0.013  0.037
   13  0.038  0.002  0.015  0.054
   14  0.000  0.003  0.026  0.029
   15  0.002  0.001  0.011  0.014
   16  0.025  0.002  0.011  0.038
   17  0.002  0.001  0.010  0.013
   18  0.000  0.004  0.004  0.007
   19  0.006  0.001  0.011  0.018
   20  0.000  0.003  0.035  0.038
   21  0.044  0.002  0.017  0.063
   22  0.014  0.001  0.012  0.027
   23  0.048  0.001  0.015  0.065
   24  0.000  0.000  0.030  0.030
   25  0.000  0.004  0.003  0.007
   26  0.005  0.001  0.010  0.017
   27  0.016  0.001  0.010  0.027
   28  0.000  0.000  0.001  0.001
   29  0.000  0.000  0.002  0.003
   30  0.005  0.001  0.003  0.009
   31  0.000  0.000  0.002  0.003
   32  0.004  0.001  0.004  0.009
   33  0.006  0.001  0.003  0.010
   34  0.005  0.001  0.004  0.010
   35  0.000  0.000  0.005  0.005
   36  0.000  0.003  0.004  0.007
   37  0.000  0.000  0.000  0.000
   38  0.000  0.000  0.000  0.000
tot    0.306  0.044  0.343  0.693
 
band     8 # energy   -5.73939261 # occ.  2.00000000
 
ion      s      p      d    tot
    1  0.024  0.000  0.005  0.029
    2  0.009  0.000  0.012  0.021
    3  0.009  0.000  0.012  0.021
    4  0.009  0.000  0.012  0.021
    5  0.013  0.000  0.011  0.024
    6  0.009  0.000  0.012  0.021
    7  0.009  0.000  0.012  0.021
    8  0.009  0.000  0.012  0.021
    9  0.000  0.001  0.014  0.015
   10  0.000  0.000  0.033  0.033
   11  0.000  0.001  0.021  0.023
   12  0.000  0.000  0.033  0.033
   13  0.000  0.001  0.021  0.023
   14  0.000  0.001  0.021  0.023
   15  0.033  0.002  0.010  0.045
   16  0.000  0.000  0.033  0.033
   17  0.033  0.002  0.010  0.045
   18  0.033  0.002  0.010  0.045
   19  0.001  0.001  0.016  0.018
   20  0.016  0.000  0.016  0.032
   21  0.017  0.000  0.015  0.032
   22  0.006  0.002  0.008  0.016
   23  0.017  0.000  0.015  0.032
   24  0.006  0.002  0.008  0.016
   25  0.001  0.001  0.016  0.018
   26  0.001  0.001  0.016  0.018
   27  0.007  0.002  0.008  0.017
   28  0.000  0.000  0.000  0.000
   29  0.000  0.000  0.002  0.003
   30  0.000  0.000  0.002  0.003
   31  0.000  0.000  0.002  0.003
   32  0.000  0.000  0.002  0.003
   33  0.000  0.000  0.002  0.003
   34  0.000  0.000  0.002  0.003
   35  0.004  0.000  0.000  0.005
   36  0.002  0.005  0.000  0.007
   37  0.000  0.002  0.000  0.002
   38  0.001  0.000  0.000  0.001
tot    0.271  0.028  0.428  0.726
 
band     9 # energy   -5.71102154 # occ.  2.00000000
 
ion      s      p      d    tot
    1  0.007  0.001  0.001  0.009
    2  0.000  0.001  0.006  0.007
    3  0.000  0.001  0.006  0.007
    4  0.000  0.001  0.006  0.007
    5  0.017  0.002  0.001  0.020
    6  0.000  0.001  0.006  0.007
    7  0.000  0.001  0.006  0.007
    8  0.000  0.001  0.006  0.007
    9  0.000  0.000  0.002  0.002
   10  0.022  0.003  0.002  0.028
   11  0.024  0.001  0.020  0.044
   12  0.022  0.003  0.002  0.028
   13  0.024  0.001  0.020  0.044
   14  0.024  0.001  0.020  0.044
   15  0.000  0.001  0.025  0.026
   16  0.022  0.003  0.002  0.028
   17  0.000  0.001  0.025  0.026
   18  0.000  0.001  0.025  0.026
   19  0.027  0.002  0.006  0.035
   20  0.006  0.003  0.017  0.025
   21  0.006  0.003  0.017  0.025
   22  0.007  0.000  0.027  0.034
   23  0.006  0.003  0.017  0.025
   24  0.007  0.000  0.027  0.034
   25  0.027  0.002  0.006  0.034
   26  0.027  0.002  0.006  0.035
   27  0.007  0.000  0.027  0.034
   28  0.011  0.001  0.001  0.014
   29  0.000  0.000  0.004  0.004
   30  0.000  0.000  0.004  0.004
   31  0.000  0.000  0.004  0.004
   32  0.000  0.000  0.004  0.004
   33  0.000  0.000  0.004  0.004
   34  0.000  0.000  0.004  0.004
   35  0.004  0.001  0.002  0.006
   36  0.001  0.000  0.000  0.001
   37  0.000  0.000  0.000  0.000
   38  0.000  0.000  0.000  0.000
tot    0.299  0.040  0.355  0.695
 
band    10 # energy   -5.68619641 # occ.  2.00000000
 
ion      s      p      d    tot
    1  0.000  0.001  0.004  0.005
    2  0.005  0.001  0.004  0.010
    3  0.007  0.001  0.004  0.012
    4  0.005  0.001  0.004  0.011
    5  0.000  0.000  0.004  0.004
    6  0.000  0.000  0.003  0.004
    7  0.008  0.001  0.004  0.013
    8  0.000  0.000  0.003  0.004
    9  0.000  0.001  0.011  0.012
   10  0.030  0.000  0.017  0.047
   11  0.002  0.002  0.018  0.021
   12  0.006  0.004  0.008  0.018
   13  0.001  0.002  0.019  0.022
   14  0.006  0.001  0.009  0.015
   15  0.018  0.001  0.033  0.052
   16  0.009  0.003  0.009  0.021
   17  0.013  0.001  0.036  0.050
   18  0.062  0.002  0.005  0.068
   19  0.012  0.001  0.027  0.040
   20  0.001  0.001  0.012  0.014
   21  0.000  0.002  0.013  0.015
   22  0.007  0.003  0.014  0.024
   23  0.000  0.002  0.013  0.015
   24  0.032  0.001  0.012  0.044
   25  0.042  0.002  0.003  0.048
   26  0.009  0.001  0.029  0.039
   27  0.009  0.003  0.014  0.026
   28  0.000  0.000  0.006  0.007
   29  0.000  0.000  0.002  0.002
   30  0.003  0.001  0.002  0.005
   31  0.000  0.000  0.002  0.002
   32  0.004  0.001  0.003  0.007
   33  0.002  0.000  0.002  0.004
   34  0.004  0.001  0.003  0.007
   35  0.000  0.001  0.003  0.004
   36  0.000  0.000  0.001  0.001
   37  0.000  0.000  0.000  0.000
   38  0.000  0.000  0.000  0.000
tot    0.298  0.041  0.355  0.694
 
band    11 # energy   -5.68618951 # occ.  2.00000000
 
ion      s      p      d    tot
    1  0.000  0.001  0.004  0.005
    2  0.004  0.001  0.003  0.008
    3  0.001  0.001  0.004  0.006
    4  0.003  0.001  0.003  0.007
    5  0.000  0.000  0.004  0.004
    6  0.008  0.001  0.004  0.014
    7  0.001  0.000  0.004  0.005
    8  0.008  0.001  0.004  0.014
    9  0.000  0.001  0.011  0.012
   10  0.000  0.005  0.005  0.010
   11  0.004  0.001  0.013  0.018
   12  0.024  0.001  0.014  0.039
   13  0.004  0.001  0.011  0.017
   14  0.000  0.002  0.022  0.024
   15  0.044  0.001  0.016  0.062
   16  0.021  0.001  0.013  0.036
   17  0.049  0.002  0.013  0.064
   18  0.000  0.001  0.045  0.046
   19  0.030  0.002  0.013  0.044
   20  0.000  0.002  0.013  0.015
   21  0.001  0.001  0.013  0.015
   22  0.025  0.001  0.013  0.039
   23  0.001  0.001  0.013  0.015
   24  0.000  0.004  0.014  0.018
   25  0.000  0.000  0.036  0.036
   26  0.033  0.002  0.010  0.045
   27  0.023  0.001  0.013  0.037
   28  0.000  0.000  0.006  0.007
   29  0.004  0.001  0.002  0.007
   30  0.002  0.000  0.002  0.004
   31  0.004  0.001  0.002  0.007
   32  0.000  0.000  0.001  0.002
   33  0.002  0.000  0.002  0.005
   34  0.001  0.000  0.001  0.002
   35  0.000  0.001  0.003  0.004
   36  0.000  0.000  0.001  0.001
   37  0.000  0.000  0.000  0.000
   38  0.000  0.000  0.000  0.000
tot    0.298  0.041  0.355  0.694
 
band    12 # energy   -5.61973737 # occ.  2.00000000
 
ion      s      p      d    tot
    1  0.002  0.000  0.000  0.002
    2  0.000  0.000  0.001  0.001
    3  0.000  0.000  0.001  0.001
    4  0.000  0.000  0.001  0.001
    5  0.002  0.000  0.000  0.002
    6  0.000  0.000  0.001  0.001
    7  0.000  0.000  0.001  0.001
    8  0.000  0.000  0.001  0.001
    9  0.001  0.000  0.001  0.001
   10  0.001  0.000  0.006  0.007
   11  0.001  0.001  0.003  0.005
   12  0.001  0.000  0.006  0.007
   13  0.001  0.001  0.003  0.005
   14  0.001  0.001  0.003  0.005
   15  0.004  0.001  0.004  0.008
   16  0.001  0.000  0.006  0.007
   17  0.004  0.001  0.004  0.008
   18  0.004  0.001  0.004  0.008
   19  0.004  0.001  0.017  0.022
   20  0.001  0.000  0.032  0.034
   21  0.001  0.000  0.032  0.034
   22  0.011  0.002  0.020  0.033
   23  0.001  0.000  0.032  0.034
   24  0.011  0.002  0.020  0.033
   25  0.004  0.001  0.017  0.022
   26  0.004  0.001  0.017  0.022
   27  0.011  0.002  0.020  0.033
   28  0.025  0.000  0.021  0.045
   29  0.025  0.000  0.020  0.045
   30  0.025  0.000  0.020  0.045
   31  0.025  0.000  0.020  0.045
   32  0.025  0.000  0.020  0.045
   33  0.025  0.000  0.020  0.045
   34  0.025  0.000  0.020  0.045
   35  0.023  0.000  0.022  0.044
   36  0.009  0.000  0.015  0.024
   37  0.001  0.001  0.000  0.002
   38  0.000  0.000  0.000  0.000
tot    0.282  0.015  0.427  0.723
 
band    13 # energy   -5.26560493 # occ.  2.00000000
 
ion      s      p      d    tot
    1  0.015  0.002  0.002  0.019
    2  0.000  0.001  0.008  0.009
    3  0.000  0.001  0.008  0.009
    4  0.000  0.001  0.008  0.009
    5  0.000  0.000  0.002  0.002
    6  0.000  0.001  0.008  0.009
    7  0.000  0.001  0.008  0.009
    8  0.000  0.001  0.008  0.009
    9  0.016  0.001  0.000  0.017
   10  0.010  0.001  0.013  0.024
   11  0.003  0.000  0.043  0.046
   12  0.011  0.001  0.013  0.025
   13  0.003  0.000  0.043  0.046
   14  0.003  0.000  0.043  0.046
   15  0.003  0.001  0.023  0.027
   16  0.010  0.001  0.013  0.025
   17  0.003  0.001  0.023  0.027
   18  0.003  0.001  0.024  0.028
   19  0.004  0.001  0.012  0.017
   20  0.001  0.000  0.054  0.055
   21  0.001  0.000  0.053  0.055
   22  0.011  0.001  0.020  0.032
   23  0.001  0.000  0.053  0.055
   24  0.011  0.001  0.020  0.032
   25  0.004  0.001  0.012  0.017
   26  0.004  0.001  0.012  0.017
   27  0.011  0.001  0.020  0.032
   28  0.012  0.001  0.000  0.013
   29  0.000  0.000  0.006  0.006
   30  0.000  0.000  0.006  0.006
   31  0.000  0.000  0.006  0.006
   32  0.000  0.000  0.006  0.006
   33  0.000  0.000  0.006  0.006
   34  0.000  0.000  0.006  0.006
   35  0.007  0.001  0.003  0.010
   36  0.001  0.000  0.001  0.002
   37  0.000  0.000  0.000  0.000
   38  0.000  0.000  0.000  0.000
tot    0.147  0.027  0.581  0.756
 
band    14 # energy   -5.26418206 # occ.  2.00000000
 
ion      s      p      d    tot
    1  0.000  0.001  0.004  0.005
    2  0.001  0.001  0.005  0.006
    3  0.009  0.001  0.004  0.015
    4  0.001  0.001  0.005  0.006
    5  0.000  0.001  0.010  0.012
    6  0.005  0.001  0.004  0.010
    7  0.009  0.001  0.004  0.015
    8  0.005  0.001  0.004  0.010
    9  0.000  0.000  0.008  0.008
   10  0.000  0.001  0.052  0.053
   11  0.017  0.001  0.020  0.038
   12  0.008  0.002  0.019  0.028
   13  0.017  0.001  0.020  0.038
   14  0.000  0.000  0.047  0.047
   15  0.001  0.000  0.019  0.021
   16  0.008  0.002  0.019  0.028
   17  0.001  0.000  0.019  0.021
   18  0.000  0.001  0.011  0.012
   19  0.006  0.000  0.018  0.024
   20  0.000  0.000  0.079  0.079
   21  0.016  0.001  0.024  0.041
   22  0.002  0.001  0.019  0.022
   23  0.016  0.001  0.024  0.041
   24  0.000  0.001  0.030  0.031
   25  0.000  0.001  0.013  0.014
   26  0.006  0.000  0.018  0.024
   27  0.002  0.001  0.019  0.022
   28  0.000  0.000  0.008  0.009
   29  0.002  0.001  0.004  0.007
   30  0.010  0.001  0.004  0.015
   31  0.002  0.001  0.004  0.007
   32  0.003  0.001  0.004  0.007
   33  0.010  0.001  0.004  0.015
   34  0.003  0.001  0.004  0.007
   35  0.000  0.000  0.003  0.003
   36  0.000  0.004  0.003  0.007
   37  0.000  0.000  0.000  0.000
   38  0.000  0.000  0.000  0.000
tot    0.158  0.033  0.558  0.749
 
band    15 # energy   -5.26416734 # occ.  2.00000000
 
ion      s      p      d    tot
    1  0.000  0.001  0.004  0.005
    2  0.009  0.001  0.004  0.014
    3  0.001  0.000  0.004  0.005
    4  0.009  0.001  0.004  0.014
    5  0.000  0.001  0.010  0.012
    6  0.005  0.001  0.005  0.011
    7  0.001  0.000  0.004  0.005
    8  0.005  0.001  0.005  0.011
    9  0.000  0.000  0.008  0.008
   10  0.011  0.002  0.008  0.020
   11  0.005  0.000  0.038  0.044
   12  0.003  0.001  0.041  0.044
   13  0.005  0.000  0.038  0.044
   14  0.022  0.001  0.011  0.034
   15  0.000  0.001  0.014  0.015
   16  0.003  0.001  0.041  0.044
   17  0.000  0.001  0.014  0.015
   18  0.002  0.000  0.022  0.024
   19  0.002  0.001  0.015  0.017
   20  0.022  0.002  0.006  0.029
   21  0.005  0.000  0.061  0.067
   22  0.001  0.001  0.026  0.028
   23  0.005  0.000  0.061  0.067
   24  0.003  0.001  0.015  0.019
   25  0.007  0.000  0.020  0.028
   26  0.002  0.001  0.015  0.017
   27  0.001  0.001  0.026  0.028
   28  0.000  0.000  0.008  0.009
   29  0.008  0.001  0.003  0.012
   30  0.000  0.000  0.004  0.005
   31  0.008  0.001  0.003  0.012
   32  0.007  0.001  0.004  0.013
   33  0.000  0.000  0.004  0.005
   34  0.007  0.001  0.004  0.013
   35  0.000  0.000  0.003  0.003
   36  0.000  0.004  0.003  0.007
   37  0.000  0.000  0.000  0.000
   38  0.000  0.000  0.000  0.000
tot    0.158  0.033  0.558  0.749
 
band    16 # energy   -5.20905401 # occ.  2.00000000
 
ion      s      p      d    tot
    1  0.007  0.000  0.001  0.008
    2  0.000  0.001  0.009  0.009
    3  0.000  0.001  0.009  0.009
    4  0.000  0.001  0.009  0.009
    5  0.018  0.002  0.001  0.021
    6  0.000  0.001  0.009  0.009
    7  0.000  0.001  0.009  0.009
    8  0.000  0.001  0.009  0.009
    9  0.003  0.001  0.002  0.006
   10  0.000  0.000  0.043  0.044
   11  0.006  0.001  0.011  0.018
   12  0.000  0.000  0.043  0.044
   13  0.006  0.001  0.011  0.018
   14  0.006  0.001  0.011  0.018
   15  0.007  0.001  0.025  0.034
   16  0.000  0.000  0.043  0.044
   17  0.007  0.001  0.025  0.034
   18  0.007  0.001  0.025  0.034
   19  0.010  0.000  0.042  0.052
   20  0.010  0.002  0.009  0.020
   21  0.010  0.002  0.009  0.020
   22  0.001  0.000  0.034  0.035
   23  0.010  0.002  0.009  0.020
   24  0.001  0.000  0.034  0.035
   25  0.010  0.000  0.042  0.052
   26  0.010  0.000  0.042  0.052
   27  0.001  0.000  0.034  0.035
   28  0.001  0.001  0.006  0.008
   29  0.000  0.000  0.005  0.006
   30  0.000  0.000  0.005  0.006
   31  0.000  0.000  0.005  0.006
   32  0.000  0.000  0.005  0.006
   33  0.000  0.000  0.005  0.006
   34  0.000  0.000  0.005  0.006
   35  0.002  0.000  0.000  0.003
   36  0.009  0.007  0.000  0.017
   37  0.000  0.002  0.000  0.002
   38  0.001  0.000  0.000  0.001
tot    0.145  0.035  0.586  0.767
 
band    17 # energy   -5.19310843 # occ.  2.00000000
 
ion      s      p      d    tot
    1  0.000  0.001  0.015  0.016
    2  0.010  0.001  0.005  0.016
    3  0.002  0.000  0.005  0.008
    4  0.010  0.001  0.005  0.016
    5  0.000  0.000  0.005  0.005
    6  0.003  0.001  0.006  0.010
    7  0.002  0.000  0.005  0.008
    8  0.003  0.001  0.006  0.010
    9  0.000  0.001  0.007  0.009
   10  0.000  0.001  0.029  0.029
   11  0.001  0.001  0.020  0.022
   12  0.006  0.000  0.023  0.029
   13  0.001  0.001  0.020  0.022
   14  0.000  0.001  0.020  0.021
   15  0.011  0.002  0.021  0.034
   16  0.006  0.000  0.023  0.029
   17  0.011  0.002  0.021  0.033
   18  0.000  0.000  0.064  0.064
   19  0.013  0.001  0.020  0.034
   20  0.000  0.002  0.020  0.022
   21  0.000  0.001  0.023  0.024
   22  0.018  0.001  0.021  0.039
   23  0.000  0.001  0.023  0.024
   24  0.000  0.000  0.033  0.033
   25  0.000  0.000  0.067  0.067
   26  0.013  0.001  0.019  0.033
   27  0.018  0.001  0.021  0.039
   28  0.000  0.001  0.005  0.005
   29  0.005  0.001  0.004  0.010
   30  0.000  0.000  0.004  0.005
   31  0.005  0.001  0.004  0.010
   32  0.003  0.001  0.002  0.006
   33  0.000  0.000  0.004  0.005
   34  0.003  0.001  0.002  0.006
   35  0.000  0.001  0.007  0.008
   36  0.000  0.000  0.001  0.001
   37  0.000  0.000  0.000  0.000
   38  0.000  0.000  0.000  0.000
tot    0.146  0.028  0.578  0.752
 
band    18 # energy   -5.19309391 # occ.  2.00000000
 
ion      s      p      d    tot
    1  0.000  0.001  0.015  0.016
    2  0.000  0.000  0.006  0.006
    3  0.008  0.001  0.005  0.015
    4  0.000  0.000  0.006  0.006
    5  0.000  0.000  0.005  0.005
    6  0.007  0.001  0.005  0.013
    7  0.008  0.001  0.005  0.015
    8  0.007  0.001  0.005  0.013
    9  0.000  0.001  0.007  0.009
   10  0.009  0.000  0.021  0.029
   11  0.000  0.001  0.020  0.021
   12  0.002  0.001  0.027  0.029
   13  0.000  0.001  0.020  0.021
   14  0.001  0.001  0.020  0.022
   15  0.004  0.001  0.050  0.054
   16  0.002  0.001  0.027  0.029
   17  0.004  0.001  0.050  0.054
   18  0.014  0.002  0.006  0.023
   19  0.004  0.001  0.051  0.056
   20  0.000  0.000  0.025  0.025
   21  0.000  0.001  0.021  0.022
   22  0.006  0.001  0.029  0.035
   23  0.000  0.001  0.021  0.022
   24  0.024  0.001  0.016  0.041
   25  0.017  0.001  0.004  0.022
   26  0.004  0.001  0.051  0.056
   27  0.006  0.001  0.029  0.035
   28  0.000  0.001  0.005  0.005
   29  0.001  0.000  0.003  0.004
   30  0.005  0.001  0.002  0.009
   31  0.001  0.000  0.003  0.004
   32  0.003  0.001  0.005  0.008
   33  0.005  0.001  0.002  0.009
   34  0.003  0.001  0.005  0.008
   35  0.000  0.001  0.007  0.008
   36  0.000  0.000  0.001  0.001
   37  0.000  0.000  0.000  0.000
   38  0.000  0.000  0.000  0.000
tot    0.146  0.028  0.578  0.752
 
band    19 # energy   -4.88010815 # occ.  2.00000000
 
ion      s      p      d    tot
    1  0.000  0.000  0.015  0.015
    2  0.000  0.000  0.010  0.010
    3  0.005  0.000  0.013  0.019
    4  0.000  0.000  0.010  0.010
    5  0.000  0.000  0.026  0.026
    6  0.007  0.001  0.009  0.016
    7  0.005  0.000  0.013  0.019
    8  0.007  0.001  0.009  0.016
    9  0.000  0.001  0.005  0.006
   10  0.000  0.000  0.016  0.016
   11  0.000  0.000  0.045  0.046
   12  0.000  0.000  0.010  0.010
   13  0.000  0.000  0.045  0.046
   14  0.000  0.000  0.044  0.044
   15  0.000  0.000  0.020  0.020
   16  0.000  0.000  0.010  0.011
   17  0.000  0.000  0.020  0.020
   18  0.000  0.000  0.037  0.037
   19  0.000  0.000  0.011  0.011
   20  0.001  0.000  0.063  0.064
   21  0.000  0.000  0.044  0.045
   22  0.000  0.000  0.033  0.033
   23  0.000  0.000  0.044  0.045
   24  0.000  0.001  0.029  0.030
   25  0.000  0.000  0.013  0.013
   26  0.000  0.000  0.011  0.011
   27  0.000  0.000  0.032  0.033
   28  0.000  0.001  0.014  0.014
   29  0.010  0.001  0.014  0.025
   30  0.000  0.001  0.010  0.011
   31  0.010  0.001  0.014  0.025
   32  0.010  0.001  0.006  0.017
   33  0.000  0.001  0.011  0.011
   34  0.010  0.001  0.006  0.017
   35  0.000  0.000  0.021  0.022
   36  0.000  0.005  0.001  0.006
   37  0.000  0.003  0.000  0.003
   38  0.000  0.000  0.000  0.000
tot    0.069  0.021  0.735  0.825
 
band    20 # energy   -4.88010265 # occ.  2.00000000
 
ion      s      p      d    tot
    1  0.000  0.000  0.015  0.015
    2  0.008  0.000  0.012  0.020
    3  0.003  0.001  0.008  0.011
    4  0.008  0.000  0.011  0.020
    5  0.000  0.000  0.026  0.026
    6  0.001  0.000  0.012  0.014
    7  0.003  0.001  0.008  0.011
    8  0.001  0.000  0.012  0.014
    9  0.000  0.001  0.005  0.006
   10  0.000  0.000  0.009  0.009
   11  0.000  0.000  0.044  0.045
   12  0.000  0.000  0.014  0.014
   13  0.000  0.000  0.044  0.045
   14  0.000  0.000  0.046  0.046
   15  0.000  0.000  0.031  0.032
   16  0.000  0.000  0.014  0.014
   17  0.000  0.000  0.031  0.032
   18  0.000  0.000  0.015  0.015
   19  0.000  0.000  0.012  0.012
   20  0.000  0.000  0.038  0.038
   21  0.001  0.000  0.057  0.058
   22  0.000  0.000  0.030  0.031
   23  0.001  0.000  0.057  0.058
   24  0.000  0.000  0.034  0.034
   25  0.000  0.000  0.010  0.010
   26  0.000  0.000  0.012  0.012
   27  0.000  0.000  0.030  0.031
   28  0.000  0.001  0.014  0.014
   29  0.003  0.001  0.007  0.011
   30  0.014  0.001  0.010  0.025
   31  0.003  0.001  0.007  0.011
   32  0.004  0.001  0.014  0.019
   33  0.014  0.001  0.010  0.025
   34  0.003  0.001  0.014  0.018
   35  0.000  0.000  0.022  0.022
   36  0.000  0.005  0.001  0.006
   37  0.000  0.003  0.000  0.003
   38  0.000  0.000  0.000  0.000
tot    0.069  0.021  0.735  0.825
 
band    21 # energy   -4.86397929 # occ.  2.00000000
 
ion      s      p      d    tot
    1  0.009  0.000  0.007  0.017
    2  0.000  0.001  0.011  0.011
    3  0.000  0.001  0.011  0.011
    4  0.000  0.001  0.011  0.011
    5  0.001  0.001  0.010  0.011
    6  0.000  0.001  0.011  0.011
    7  0.000  0.001  0.011  0.011
    8  0.000  0.001  0.011  0.011
    9  0.015  0.001  0.000  0.016
   10  0.000  0.000  0.027  0.028
   11  0.000  0.000  0.049  0.049
   12  0.000  0.000  0.027  0.027
   13  0.000  0.000  0.049  0.049
   14  0.000  0.000  0.049  0.049
   15  0.000  0.000  0.030  0.030
   16  0.000  0.000  0.027  0.027