PROCAR new format
# of k-points:   10         # of bands:  252         # of ions:   38

 k-point     1 :    0.00000000 0.00000000 0.00000000     weight = 0.01562500

band     1 # energy  -20.24847739 # occ.  2.00000000
 
ion      s      p      d    tot
    1  0.000  0.000  0.000  0.000
    2  0.000  0.000  0.000  0.000
    3  0.000  0.000  0.000  0.000
    4  0.000  0.000  0.000  0.000
    5  0.000  0.000  0.000  0.000
    6  0.000  0.000  0.000  0.000
    7  0.000  0.000  0.000  0.000
    8  0.000  0.000  0.000  0.000
    9  0.000  0.000  0.000  0.000
   10  0.000  0.000  0.000  0.000
   11  0.000  0.000  0.000  0.000
   12  0.000  0.000  0.000  0.000
   13  0.000  0.000  0.000  0.000
   14  0.000  0.000  0.000  0.000
   15  0.000  0.000  0.000  0.000
   16  0.000  0.000  0.000  0.000
   17  0.000  0.000  0.000  0.000
   18  0.000  0.000  0.000  0.000
   19  0.000  0.000  0.000  0.000
   20  0.000  0.000  0.000  0.000
   21  0.000  0.000  0.000  0.000
   22  0.000  0.000  0.000  0.000
   23  0.000  0.000  0.000  0.000
   24  0.000  0.000  0.000  0.000
   25  0.000  0.000  0.000  0.000
   26  0.000  0.000  0.000  0.000
   27  0.000  0.000  0.000  0.000
   28  0.000  0.000  0.000  0.000
   29  0.000  0.000  0.000  0.000
   30  0.000  0.000  0.000  0.000
   31  0.000  0.000  0.000  0.000
   32  0.000  0.000  0.000  0.000
   33  0.000  0.000  0.000  0.000
   34  0.000  0.000  0.000  0.000
   35  0.000  0.000  0.000  0.000
   36  0.014  0.023  0.041  0.078
   37  0.745  0.015  0.000  0.760
   38  0.116  0.024  0.000  0.139
tot    0.875  0.062  0.041  0.978
 
band     2 # energy   -8.88052218 # occ.  2.00000000
 
ion      s      p      d    tot
    1  0.000  0.000  0.000  0.000
    2  0.000  0.000  0.000  0.000
    3  0.000  0.000  0.000  0.000
    4  0.000  0.000  0.000  0.000
    5  0.000  0.000  0.000  0.000
    6  0.000  0.000  0.000  0.000
    7  0.000  0.000  0.000  0.000
    8  0.000  0.000  0.000  0.000
    9  0.000  0.000  0.000  0.000
   10  0.002  0.000  0.000  0.002
   11  0.002  0.000  0.000  0.002
   12  0.002  0.000  0.000  0.002
   13  0.002  0.000  0.000  0.002
   14  0.002  0.000  0.000  0.002
   15  0.001  0.000  0.000  0.001
   16  0.002  0.000  0.000  0.002
   17  0.001  0.000  0.000  0.001
   18  0.001  0.000  0.000  0.001
   19  0.003  0.000  0.000  0.003
   20  0.008  0.001  0.001  0.010
   21  0.008  0.001  0.001  0.010
   22  0.003  0.000  0.000  0.003
   23  0.008  0.001  0.001  0.010
   24  0.003  0.000  0.000  0.003
   25  0.003  0.000  0.000  0.003
   26  0.003  0.000  0.000  0.003
   27  0.003  0.000  0.000  0.003
   28  0.001  0.000  0.000  0.001
   29  0.002  0.000  0.000  0.002
   30  0.002  0.000  0.000  0.002
   31  0.002  0.000  0.000  0.002
   32  0.002  0.000  0.000  0.002
   33  0.002  0.000  0.000  0.002
   34  0.002  0.000  0.000  0.002
   35  0.001  0.000  0.000  0.001
   36  0.099  0.034  0.145  0.278
   37  0.019  0.463  0.000  0.482
   38  0.154  0.017  0.000  0.171
tot    0.346  0.517  0.148  1.011
 
band     3 # energy   -8.32751248 # occ.  2.00000000
 
ion      s      p      d    tot
    1  0.006  0.001  0.000  0.007
    2  0.006  0.001  0.000  0.007
    3  0.006  0.001  0.000  0.007
    4  0.006  0.001  0.000  0.007
    5  0.006  0.001  0.000  0.007
    6  0.006  0.001  0.000  0.007
    7  0.006  0.001  0.000  0.007
    8  0.006  0.001  0.000  0.007
    9  0.006  0.001  0.000  0.007
   10  0.023  0.000  0.000  0.023
   11  0.022  0.000  0.000  0.022
   12  0.023  0.000  0.000  0.023
   13  0.022  0.000  0.000  0.022
   14  0.022  0.000  0.000  0.022
   15  0.022  0.000  0.000  0.023
   16  0.023  0.000  0.000  0.023
   17  0.022  0.000  0.000  0.023
   18  0.022  0.000  0.000  0.023
   19  0.022  0.000  0.000  0.022
   20  0.019  0.000  0.000  0.019
   21  0.019  0.000  0.000  0.019
   22  0.021  0.000  0.000  0.021
   23  0.019  0.000  0.000  0.019
   24  0.021  0.000  0.000  0.021
   25  0.022  0.000  0.000  0.022
   26  0.022  0.000  0.000  0.022
   27  0.021  0.000  0.000  0.021
   28  0.006  0.001  0.000  0.007
   29  0.005  0.001  0.000  0.006
   30  0.005  0.001  0.000  0.006
   31  0.005  0.001  0.000  0.006
   32  0.005  0.001  0.000  0.006
   33  0.005  0.001  0.000  0.006
   34  0.005  0.001  0.000  0.006
   35  0.006  0.001  0.000  0.006
   36  0.000  0.016  0.027  0.043
   37  0.005  0.067  0.000  0.071
   38  0.022  0.002  0.000  0.024
tot    0.516  0.100  0.028  0.645
 
band     4 # energy   -7.12530770 # occ.  2.00000000
 
ion      s      p      d    tot
    1  0.017  0.001  0.000  0.018
    2  0.017  0.001  0.000  0.018
    3  0.017  0.001  0.000  0.018
    4  0.017  0.001  0.000  0.018
    5  0.017  0.001  0.000  0.018
    6  0.017  0.001  0.000  0.018
    7  0.017  0.001  0.000  0.018
    8  0.017  0.001  0.000  0.018
    9  0.017  0.001  0.000  0.018
   10  0.011  0.002  0.001  0.013
   11  0.011  0.002  0.001  0.013
   12  0.011  0.002  0.001  0.013
   13  0.011  0.002  0.001  0.013
   14  0.011  0.002  0.001  0.013
   15  0.010  0.002  0.001  0.013
   16  0.011  0.002  0.001  0.013
   17  0.010  0.002  0.001  0.013
   18  0.010  0.002  0.001  0.013
   19  0.009  0.002  0.000  0.011
   20  0.007  0.002  0.000  0.010
   21  0.007  0.002  0.000  0.010
   22  0.009  0.002  0.000  0.011
   23  0.007  0.002  0.000  0.010
   24  0.009  0.002  0.000  0.011
   25  0.009  0.002  0.000  0.011
   26  0.009  0.002  0.000  0.011
   27  0.009  0.002  0.000  0.011
   28  0.019  0.001  0.001  0.021
   29  0.020  0.001  0.001  0.022
   30  0.020  0.001  0.001  0.022
   31  0.020  0.001  0.001  0.022
   32  0.020  0.001  0.001  0.022
   33  0.020  0.001  0.001  0.022
   34  0.020  0.001  0.001  0.022
   35  0.019  0.001  0.001  0.020
   36  0.023  0.006  0.017  0.046
   37  0.002  0.009  0.000  0.010
   38  0.003  0.000  0.000  0.003
tot    0.506  0.066  0.036  0.608
 
band     5 # energy   -5.58123935 # occ.  2.00000000
 
ion      s      p      d    tot
    1  0.015  0.000  0.005  0.020
    2  0.016  0.000  0.005  0.021
    3  0.016  0.000  0.005  0.021
    4  0.016  0.000  0.005  0.021
    5  0.013  0.000  0.005  0.018
    6  0.016  0.000  0.005  0.021
    7  0.016  0.000  0.005  0.021
    8  0.016  0.000  0.005  0.021
    9  0.020  0.000  0.004  0.024
   10  0.003  0.004  0.001  0.008
   11  0.004  0.004  0.001  0.009
   12  0.003  0.004  0.001  0.008
   13  0.004  0.004  0.001  0.009
   14  0.004  0.004  0.001  0.009
   15  0.001  0.003  0.002  0.005
   16  0.003  0.004  0.001  0.008
   17  0.001  0.003  0.002  0.005
   18  0.001  0.003  0.002  0.005
   19  0.006  0.003  0.004  0.013
   20  0.012  0.003  0.006  0.021
   21  0.012  0.003  0.006  0.021
   22  0.003  0.003  0.004  0.010
   23  0.012  0.003  0.006  0.021
   24  0.003  0.003  0.004  0.010
   25  0.006  0.003  0.004  0.013
   26  0.006  0.003  0.004  0.013
   27  0.003  0.003  0.004  0.010
   28  0.014  0.000  0.007  0.022
   29  0.018  0.000  0.009  0.028
   30  0.018  0.000  0.009  0.028
   31  0.018  0.000  0.009  0.028
   32  0.018  0.000  0.009  0.028
   33  0.018  0.000  0.009  0.028
   34  0.018  0.000  0.009  0.028
   35  0.019  0.000  0.006  0.026
   36  0.024  0.001  0.027  0.052
   37  0.000  0.000  0.000  0.000
   38  0.000  0.000  0.000  0.000
tot    0.397  0.061  0.192  0.651
 
band     6 # energy   -5.44130236 # occ.  2.00000000
 
ion      s      p      d    tot
    1  0.000  0.002  0.005  0.007
    2  0.008  0.002  0.002  0.011
    3  0.003  0.001  0.002  0.006
    4  0.008  0.002  0.002  0.012
    5  0.000  0.002  0.003  0.005
    6  0.004  0.001  0.002  0.007
    7  0.001  0.001  0.002  0.003
    8  0.001  0.001  0.002  0.004
    9  0.000  0.000  0.002  0.002
   10  0.052  0.004  0.004  0.060
   11  0.002  0.011  0.003  0.017
   12  0.023  0.003  0.009  0.035
   13  0.009  0.007  0.004  0.021
   14  0.021  0.001  0.006  0.027
   15  0.001  0.004  0.008  0.012
   16  0.006  0.002  0.012  0.020
   17  0.003  0.003  0.006  0.012
   18  0.007  0.003  0.003  0.012
   19  0.003  0.012  0.003  0.018
   20  0.065  0.004  0.007  0.076
   21  0.029  0.002  0.014  0.046
   22  0.002  0.005  0.006  0.013
   23  0.007  0.002  0.019  0.028
   24  0.004  0.003  0.004  0.011
   25  0.030  0.001  0.007  0.037
   26  0.013  0.008  0.004  0.025
   27  0.000  0.006  0.008  0.014
   28  0.000  0.003  0.004  0.007
   29  0.012  0.003  0.004  0.019
   30  0.008  0.002  0.003  0.013
   31  0.010  0.003  0.004  0.017
   32  0.003  0.002  0.004  0.009
   33  0.003  0.001  0.003  0.008
   34  0.000  0.001  0.004  0.005
   35  0.000  0.000  0.003  0.003
   36  0.000  0.006  0.024  0.030
   37  0.000  0.003  0.000  0.003
   38  0.000  0.000  0.000  0.000
tot    0.338  0.115  0.201  0.654
 
band     7 # energy   -5.44121488 # occ.  2.00000000
 
ion      s      p      d    tot
    1  0.000  0.002  0.005  0.007
    2  0.000  0.001  0.002  0.003
    3  0.005  0.002  0.002  0.008
    4  0.000  0.001  0.002  0.002
    5  0.000  0.002  0.003  0.005
    6  0.004  0.001  0.002  0.007
    7  0.007  0.002  0.002  0.011
    8  0.007  0.002  0.002  0.010
    9  0.000  0.000  0.002  0.002
   10  0.002  0.002  0.013  0.017
   11  0.019  0.002  0.006  0.026
   12  0.031  0.003  0.008  0.042
   13  0.012  0.005  0.005  0.022
   14  0.001  0.012  0.003  0.016
   15  0.006  0.003  0.003  0.012
   16  0.048  0.004  0.005  0.057
   17  0.004  0.003  0.005  0.012
   18  0.000  0.004  0.008  0.012
   19  0.028  0.002  0.006  0.036
   20  0.002  0.001  0.020  0.024
   21  0.039  0.003  0.012  0.054
   22  0.003  0.004  0.006  0.012
   23  0.061  0.004  0.008  0.072
   24  0.000  0.006  0.008  0.015
   25  0.001  0.013  0.003  0.016
   26  0.018  0.006  0.005  0.029
   27  0.004  0.003  0.004  0.011
   28  0.000  0.003  0.004  0.007
   29  0.000  0.001  0.004  0.005
   30  0.004  0.002  0.005  0.011
   31  0.002  0.001  0.003  0.006
   32  0.009  0.002  0.003  0.015
   33  0.009  0.003  0.004  0.016
   34  0.012  0.003  0.004  0.019
   35  0.000  0.000  0.003  0.003
   36  0.000  0.006  0.024  0.030
   37  0.000  0.003  0.000  0.003
   38  0.000  0.000  0.000  0.000
tot    0.338  0.115  0.201  0.654
 
band     8 # energy   -5.38115552 # occ.  2.00000000
 
ion      s      p      d    tot
    1  0.000  0.001  0.002  0.002
    2  0.009  0.002  0.002  0.013
    3  0.002  0.001  0.002  0.005
    4  0.009  0.002  0.002  0.013
    5  0.000  0.001  0.004  0.005
    6  0.002  0.001  0.002  0.005
    7  0.002  0.001  0.002  0.005
    8  0.003  0.001  0.002  0.006
    9  0.000  0.003  0.004  0.007
   10  0.000  0.010  0.003  0.013
   11  0.025  0.003  0.005  0.034
   12  0.001  0.003  0.004  0.008
   13  0.027  0.003  0.005  0.035
   14  0.000  0.000  0.014  0.014
   15  0.035  0.004  0.006  0.044
   16  0.001  0.003  0.004  0.009
   17  0.037  0.003  0.006  0.046
   18  0.000  0.008  0.008  0.016
   19  0.024  0.003  0.006  0.034
   20  0.000  0.014  0.001  0.015
   21  0.003  0.004  0.005  0.012
   22  0.046  0.004  0.006  0.056
   23  0.003  0.004  0.005  0.013
   24  0.000  0.007  0.009  0.017
   25  0.000  0.001  0.016  0.017
   26  0.026  0.004  0.005  0.035
   27  0.044  0.004  0.006  0.054
   28  0.000  0.001  0.006  0.007
   29  0.014  0.003  0.004  0.021
   30  0.004  0.002  0.004  0.010
   31  0.014  0.003  0.004  0.021
   32  0.003  0.001  0.004  0.008
   33  0.004  0.002  0.004  0.011
   34  0.004  0.001  0.004  0.008
   35  0.000  0.004  0.006  0.010
   36  0.000  0.002  0.011  0.014
   37  0.000  0.000  0.000  0.000
   38  0.000  0.000  0.000  0.000
tot    0.341  0.116  0.183  0.640
 
band     9 # energy   -5.38108437 # occ.  2.00000000
 
ion      s      p      d    tot
    1  0.000  0.001  0.002  0.002
    2  0.000  0.001  0.002  0.002
    3  0.007  0.002  0.002  0.011
    4  0.000  0.001  0.002  0.003
    5  0.000  0.001  0.004  0.005
    6  0.007  0.002  0.002  0.010
    7  0.007  0.002  0.002  0.011
    8  0.006  0.002  0.002  0.010
    9  0.000  0.003  0.004  0.007
   10  0.001  0.001  0.005  0.007
   11  0.010  0.001  0.011  0.022
   12  0.000  0.008  0.003  0.012
   13  0.008  0.001  0.012  0.021
   14  0.034  0.004  0.002  0.041
   15  0.013  0.006  0.007  0.026
   16  0.000  0.008  0.004  0.011
   17  0.011  0.007  0.007  0.024
   18  0.048  0.002  0.005  0.055
   19  0.009  0.002  0.012  0.023
   20  0.004  0.001  0.007  0.012
   21  0.001  0.011  0.002  0.014
   22  0.014  0.006  0.008  0.028
   23  0.001  0.010  0.003  0.014
   24  0.060  0.003  0.005  0.067
   25  0.033  0.005  0.002  0.040
   26  0.008  0.001  0.013  0.022
   27  0.017  0.006  0.008  0.031
   28  0.000  0.001  0.006  0.007
   29  0.000  0.001  0.004  0.005
   30  0.011  0.002  0.004  0.016
   31  0.000  0.001  0.004  0.005
   32  0.011  0.003  0.004  0.018
   33  0.010  0.002  0.004  0.016
   34  0.011  0.003  0.004  0.018
   35  0.000  0.004  0.006  0.010
   36  0.000  0.002  0.011  0.014
   37  0.000  0.000  0.000  0.000
   38  0.000  0.000  0.000  0.000
tot    0.341  0.116  0.183  0.640
 
band    10 # energy   -5.37298248 # occ.  2.00000000
 
ion      s      p      d    tot
    1  0.020  0.003  0.001  0.024
    2  0.000  0.002  0.004  0.006
    3  0.000  0.002  0.004  0.006
    4  0.000  0.002  0.004  0.006
    5  0.009  0.002  0.001  0.011
    6  0.000  0.002  0.004  0.006
    7  0.000  0.002  0.004  0.006
    8  0.000  0.002  0.004  0.006
    9  0.002  0.000  0.000  0.002
   10  0.028  0.009  0.002  0.039
   11  0.018  0.001  0.011  0.029
   12  0.028  0.009  0.002  0.039
   13  0.018  0.001  0.011  0.029
   14  0.018  0.001  0.011  0.030
   15  0.001  0.004  0.007  0.013
   16  0.028  0.009  0.002  0.039
   17  0.001  0.004  0.007  0.013
   18  0.001  0.004  0.007  0.013
   19  0.030  0.008  0.004  0.042
   20  0.006  0.006  0.007  0.019
   21  0.006  0.006  0.007  0.019
   22  0.010  0.000  0.011  0.022
   23  0.006  0.006  0.007  0.019
   24  0.011  0.000  0.011  0.022
   25  0.031  0.007  0.004  0.042
   26  0.031  0.007  0.004  0.042
   27  0.010  0.000  0.011  0.022
   28  0.022  0.003  0.001  0.026
   29  0.000  0.002  0.005  0.007
   30  0.000  0.002  0.005  0.007
   31  0.000  0.002  0.005  0.007
   32  0.000  0.002  0.005  0.007
   33  0.000  0.002  0.005  0.007
   34  0.000  0.002  0.005  0.007
   35  0.005  0.001  0.000  0.006
   36  0.006  0.004  0.000  0.010
   37  0.000  0.001  0.000  0.001
   38  0.000  0.000  0.000  0.000
tot    0.344  0.118  0.184  0.646
 
band    11 # energy   -5.34676383 # occ.  2.00000000
 
ion      s      p      d    tot
    1  0.002  0.000  0.000  0.002
    2  0.000  0.002  0.004  0.006
    3  0.000  0.002  0.004  0.006
    4  0.000  0.002  0.004  0.006
    5  0.016  0.002  0.000  0.018
    6  0.000  0.002  0.004  0.006
    7  0.000  0.002  0.004  0.006
    8  0.000  0.002  0.004  0.006
    9  0.014  0.003  0.002  0.019
   10  0.002  0.001  0.012  0.014
   11  0.012  0.008  0.003  0.024
   12  0.002  0.001  0.012  0.014
   13  0.012  0.008  0.003  0.024
   14  0.012  0.008  0.003  0.024
   15  0.033  0.005  0.006  0.044
   16  0.002  0.001  0.012  0.014
   17  0.033  0.005  0.006  0.044
   18  0.033  0.005  0.006  0.044
   19  0.001  0.002  0.010  0.012
   20  0.021  0.002  0.011  0.034
   21  0.021  0.002  0.011  0.034
   22  0.024  0.009  0.001  0.034
   23  0.021  0.002  0.011  0.034
   24  0.024  0.009  0.001  0.034
   25  0.001  0.002  0.010  0.012
   26  0.001  0.002  0.010  0.012
   27  0.024  0.009  0.001  0.034
   28  0.001  0.000  0.001  0.001
   29  0.000  0.002  0.005  0.007
   30  0.000  0.002  0.005  0.007
   31  0.000  0.002  0.005  0.007
   32  0.000  0.002  0.005  0.007
   33  0.000  0.002  0.005  0.007
   34  0.000  0.002  0.005  0.007
   35  0.011  0.003  0.001  0.015
   36  0.021  0.011  0.001  0.033
   37  0.001  0.004  0.000  0.004
   38  0.001  0.000  0.000  0.001
tot    0.348  0.125  0.188  0.661
 
band    12 # energy   -4.71356356 # occ.  2.00000000
 
ion      s      p      d    tot
    1  0.000  0.002  0.008  0.010
    2  0.018  0.003  0.004  0.025
    3  0.001  0.001  0.004  0.006
    4  0.016  0.003  0.004  0.024
    5  0.000  0.001  0.008  0.009
    6  0.005  0.002  0.004  0.011
    7  0.004  0.002  0.004  0.010
    8  0.009  0.002  0.004  0.016
    9  0.000  0.005  0.008  0.013
   10  0.000  0.005  0.011  0.016
   11  0.007  0.002  0.009  0.018
   12  0.004  0.001  0.007  0.012
   13  0.009  0.002  0.007  0.018
   14  0.000  0.001  0.015  0.017
   15  0.017  0.003  0.009  0.029
   16  0.003  0.002  0.008  0.013
   17  0.024  0.003  0.006  0.033
   18  0.000  0.001  0.018  0.019
   19  0.004  0.003  0.009  0.016
   20  0.000  0.003  0.030  0.033
   21  0.000  0.000  0.014  0.014
   22  0.008  0.004  0.006  0.018
   23  0.000  0.001  0.018  0.019
   24  0.000  0.001  0.027  0.028
   25  0.000  0.000  0.007  0.007
   26  0.005  0.005  0.009  0.019
   27  0.006  0.003  0.012  0.021
   28  0.000  0.003  0.008  0.011
   29  0.026  0.003  0.011  0.040
   30  0.000  0.002  0.012  0.014
   31  0.022  0.003  0.011  0.035
   32  0.012  0.001  0.012  0.025
   33  0.003  0.003  0.012  0.017
   34  0.019  0.002  0.012  0.032
   35  0.000  0.006  0.008  0.013
   36  0.000  0.000  0.047  0.047
   37  0.000  0.008  0.000  0.008
   38  0.000  0.000  0.000  0.000
tot    0.220  0.095  0.402  0.717
 
band    13 # energy   -4.71352102 # occ.  2.00000000
 
ion      s      p      d    tot
    1  0.000  0.002  0.008  0.010
    2  0.000  0.001  0.004  0.005
    3  0.017  0.003  0.004  0.024
    4  0.001  0.002  0.004  0.007
    5  0.000  0.001  0.008  0.009
    6  0.013  0.003  0.004  0.020
    7  0.014  0.003  0.004  0.021
    8  0.008  0.002  0.004  0.015
    9  0.000  0.005  0.008  0.013
   10  0.004  0.000  0.007  0.011
   11  0.004  0.002  0.012  0.017
   12  0.001  0.004  0.010  0.015
   13  0.002  0.001  0.014  0.017
   14  0.011  0.002  0.005  0.018
   15  0.010  0.002  0.013  0.025
   16  0.002  0.003  0.009  0.014
   17  0.004  0.002  0.016  0.021
   18  0.027  0.003  0.004  0.035
   19  0.002  0.002  0.008  0.012
   20  0.000  0.000  0.011  0.011
   21  0.000  0.002  0.028  0.030
   22  0.001  0.001  0.023  0.026
   23  0.000  0.002  0.023  0.025
   24  0.009  0.005  0.003  0.017
   25  0.006  0.005  0.010  0.021
   26  0.001  0.001  0.007  0.009
   27  0.003  0.002  0.018  0.024
   28  0.000  0.003  0.008  0.011
   29  0.001  0.002  0.012  0.015
   30  0.027  0.003  0.011  0.040
   31  0.005  0.001  0.012  0.019
   32  0.015  0.003  0.011  0.029
   33  0.024  0.002  0.011  0.038
   34  0.008  0.003  0.011  0.022
   35  0.000  0.006  0.008  0.013
   36  0.000  0.000  0.047  0.047
   37  0.000  0.008  0.000  0.008
   38  0.000  0.000  0.000  0.000
tot    0.220  0.095  0.402  0.717
 
band    14 # energy   -4.69179922 # occ.  2.00000000
 
ion      s      p      d    tot
    1  0.003  0.001  0.011  0.015
    2  0.007  0.001  0.010  0.018
    3  0.007  0.001  0.010  0.018
    4  0.007  0.001  0.010  0.018
    5  0.007  0.000  0.010  0.017
    6  0.007  0.001  0.010  0.018
    7  0.007  0.001  0.010  0.018
    8  0.007  0.001  0.010  0.018
    9  0.012  0.000  0.009  0.022
   10  0.011  0.000  0.024  0.036
   11  0.007  0.000  0.023  0.030
   12  0.011  0.000  0.024  0.036
   13  0.007  0.000  0.023  0.030
   14  0.007  0.000  0.023  0.030
   15  0.005  0.000  0.022  0.028
   16  0.011  0.000  0.024  0.036
   17  0.005  0.000  0.022  0.028
   18  0.006  0.000  0.022  0.028
   19  0.007  0.001  0.018  0.025
   20  0.006  0.000  0.030  0.036
   21  0.006  0.000  0.030  0.036
   22  0.003  0.000  0.015  0.019
   23  0.006  0.000  0.030  0.036
   24  0.003  0.000  0.015  0.019
   25  0.007  0.001  0.018  0.025
   26  0.007  0.001  0.018  0.025
   27  0.003  0.000  0.015  0.019
   28  0.000  0.001  0.005  0.006
   29  0.003  0.001  0.008  0.011
   30  0.003  0.001  0.008  0.011
   31  0.003  0.001  0.008  0.011
   32  0.003  0.001  0.008  0.011
   33  0.003  0.001  0.008  0.011
   34  0.003  0.001  0.008  0.011
   35  0.003  0.000  0.005  0.008
   36  0.008  0.001  0.013  0.023
   37  0.000  0.000  0.000  0.000
   38  0.000  0.000  0.000  0.000
tot    0.208  0.014  0.562  0.784
 
band    15 # energy   -4.65781719 # occ.  2.00000000
 
ion      s      p      d    tot
    1  0.000  0.004  0.009  0.014
    2  0.022  0.004  0.005  0.031
    3  0.004  0.002  0.005  0.011
    4  0.022  0.004  0.005  0.031
    5  0.000  0.005  0.010  0.016
    6  0.008  0.003  0.005  0.016
    7  0.004  0.002  0.005  0.011
    8  0.007  0.003  0.005  0.015
    9  0.000  0.000  0.011  0.011
   10  0.026  0.005  0.007  0.038
   11  0.004  0.003  0.018  0.025
   12  0.007  0.001  0.019  0.027
   13  0.004  0.003  0.018  0.025
   14  0.017  0.002  0.006  0.025
   15  0.000  0.003  0.013  0.016
   16  0.006  0.001  0.019  0.027
   17  0.000  0.003  0.013  0.016
   18  0.001  0.001  0.008  0.010
   19  0.001  0.001  0.019  0.021
   20  0.016  0.007  0.005  0.027
   21  0.004  0.002  0.024  0.030
   22  0.001  0.001  0.010  0.012
   23  0.004  0.002  0.024  0.030
   24  0.002  0.002  0.010  0.014
   25  0.004  0.001  0.004  0.009
   26  0.001  0.001  0.019  0.021
   27  0.001  0.001  0.010  0.011
   28  0.000  0.003  0.008  0.011
   29  0.014  0.003  0.008  0.025
   30  0.003  0.001  0.005  0.009
   31  0.014  0.004  0.008  0.026
   32  0.005  0.002  0.009  0.016
   33  0.002  0.001  0.005  0.009
   34  0.005  0.002  0.009  0.016
   35  0.000  0.000  0.009  0.009
   36  0.000  0.006  0.035  0.042
   37  0.000  0.019  0.000  0.019
   38  0.000  0.000  0.000  0.000
tot    0.208  0.111  0.403  0.722
 
band    16 # energy   -4.65773078 # occ.  2.00000000
 
ion      s      p      d    tot
    1  0.000  0.004  0.009  0.014
    2  0.000  0.002  0.005  0.007
    3  0.018  0.004  0.006  0.027
    4  0.000  0.002  0.005  0.007
    5  0.000  0.005  0.010  0.016
    6  0.014  0.003  0.005  0.023
    7  0.018  0.004  0.006  0.028
    8  0.015  0.003  0.005  0.023
    9  0.000  0.000  0.011  0.011
   10  0.000  0.000  0.023  0.023
   11  0.013  0.002  0.010  0.025
   12  0.019  0.004  0.011  0.034
   13  0.013  0.003  0.010  0.025
   14  0.000  0.004  0.022  0.026
   15  0.001  0.002  0.010  0.012
   16  0.020  0.004  0.011  0.034
   17  0.001  0.002  0.010  0.012
   18  0.000  0.004  0.014  0.018
   19  0.003  0.001  0.009  0.013
   20  0.000  0.000  0.031  0.031
   21  0.012  0.005  0.012  0.028
   22  0.002  0.002  0.010  0.013
   23  0.012  0.005  0.011  0.028
   24  0.000  0.001  0.009  0.011
   25  0.000  0.001  0.024  0.025
   26  0.003  0.001  0.009  0.013
   27  0.002  0.002  0.010  0.013
   28  0.000  0.003  0.008  0.011
   29  0.000  0.001  0.007  0.008
   30  0.012  0.003  0.009  0.024
   31  0.000  0.001  0.007  0.008
   32  0.010  0.002  0.006  0.017
   33  0.012  0.003  0.009  0.025
   34  0.010  0.002  0.006  0.018
   35  0.000  0.000  0.009  0.009
   36  0.000  0.006  0.035  0.042
   37  0.000  0.019  0.000  0.019
   38  0.000  0.000  0.000  0.000
tot    0.208  0.111  0.403  0.722
 
band    17 # energy   -4.62212812 # occ.  2.00000000
 
ion      s      p      d    tot
    1  0.038  0.003  0.000  0.042
    2  0.000  0.003  0.010  0.013
    3  0.000  0.003  0.010  0.013
    4  0.000  0.003  0.010  0.013
    5  0.000  0.000  0.001  0.001
    6  0.000  0.003  0.010  0.013
    7  0.000  0.003  0.010  0.013
    8  0.000  0.003  0.010  0.013
    9  0.022  0.003  0.001  0.026
   10  0.008  0.004  0.011  0.023
   11  0.003  0.000  0.014  0.017
   12  0.008  0.004  0.011  0.023
   13  0.003  0.000  0.014  0.017
   14  0.003  0.000  0.014  0.017
   15  0.007  0.003  0.015  0.025
   16  0.008  0.004  0.011  0.023
   17  0.007  0.003  0.015  0.025
   18  0.007  0.003  0.015  0.025
   19  0.004  0.004  0.018  0.026
   20  0.000  0.000  0.017  0.018
   21  0.000  0.000  0.017  0.018
   22  0.010  0.003  0.009  0.022
   23  0.000  0.000  0.017  0.018
   24  0.010  0.003  0.009  0.022
   25  0.004  0.004  0.018  0.026
   26  0.004  0.004  0.018  0.026
   27  0.010  0.003  0.009  0.022
   28  0.043  0.003  0.000  0.046
   29  0.000  0.003  0.013  0.017
   30  0.000  0.003  0.013  0.017
   31  0.000  0.003  0.013  0.017
   32  0.000  0.003  0.013  0.016
   33  0.000  0.003  0.013  0.016
   34  0.000  0.003  0.013  0.016
   35  0.022  0.003  0.001  0.026
   36  0.001  0.001  0.000  0.002
   37  0.000  0.000  0.000  0.000
   38  0.000  0.000  0.000  0.000
tot    0.224  0.089  0.395  0.708
 
band    18 # energy   -4.57807576 # occ.  2.00000000
 
ion      s      p      d    tot
    1  0.007  0.001  0.000  0.007
    2  0.000  0.003  0.010  0.013
    3  0.000  0.003  0.010  0.013
    4  0.000  0.003  0.010  0.013
    5  0.040  0.004  0.001  0.045
    6  0.000  0.003  0.010  0.013
    7  0.000  0.003  0.010  0.013
    8  0.000  0.003  0.010  0.013
    9  0.015  0.002  0.000  0.017
   10  0.000  0.001  0.019  0.019
   11  0.009  0.005  0.014  0.028
   12  0.000  0.001  0.019  0.019
   13  0.009  0.005  0.014  0.028
   14  0.009  0.005  0.014  0.028
   15  0.006  0.002  0.009  0.017
   16  0.000  0.001  0.019  0.019
   17  0.006  0.002  0.009  0.017
   18  0.006  0.002  0.009  0.017
   19  0.004  0.001  0.012  0.016
   20  0.011  0.004  0.013  0.028
   21  0.011  0.004  0.013  0.028
   22  0.002  0.002  0.019  0.023
   23  0.011  0.004  0.013  0.028
   24  0.002  0.002  0.019  0.023
   25  0.004  0.001  0.012  0.016
   26  0.004  0.001  0.012  0.016
   27  0.002  0.002  0.019  0.023
   28  0.005  0.001  0.000  0.006
   29  0.000  0.003  0.015  0.018
   30  0.000  0.003  0.015  0.018
   31  0.000  0.003  0.015  0.018
   32  0.000  0.003  0.015  0.018
   33  0.000  0.003  0.015  0.018
   34  0.000  0.003  0.015  0.018
   35  0.018  0.002  0.000  0.020
   36  0.050  0.021  0.003  0.074
   37  0.001  0.004  0.000  0.006
   38  0.002  0.000  0.000  0.002
tot    0.234  0.111  0.412  0.757
 
band    19 # energy   -4.46199223 # occ.  2.00000000
 
ion      s      p      d    tot
    1  0.000  0.000  0.001  0.001
    2  0.000  0.000  0.000  0.000
    3  0.000  0.000  0.000  0.001
    4  0.000  0.000  0.000  0.000
    5  0.000  0.000  0.000  0.001
    6  0.001  0.000  0.000  0.001
    7  0.000  0.000  0.000  0.001
    8  0.001  0.000  0.000  0.001
    9  0.000  0.000  0.001  0.001
   10  0.000  0.000  0.000  0.000
   11  0.000  0.000  0.001  0.001
   12  0.000  0.000  0.000  0.001
   13  0.000  0.000  0.001  0.001
   14  0.000  0.000  0.001  0.001
   15  0.000  0.000  0.001  0.002
   16  0.000  0.000  0.000  0.001
   17  0.000  0.000  0.001  0.002
   18  0.001  0.000  0.000  0.001
   19  0.000  0.001  0.004  0.005
   20  0.001  0.001  0.010  0.011
   21  0.000  0.000  0.003  0.003
   22  0.001  0.000  0.002  0.002
   23  0.000  0.000  0.003  0.003
   24  0.002  0.000  0.001  0.004
   25  0.000  0.000  0.001  0.001
   26  0.000  0.001  0.004  0.005
   27  0.001  0.000  0.002  0.002
   28  0.000  0.001  0.009  0.009
   29  0.010  0.001  0.009  0.020
   30  0.000  0.001  0.004  0.005
   31  0.010  0.001  0.009  0.019
   32  0.010  0.001  0.009  0.020
   33  0.000  0.001  0.004  0.005
   34  0.010  0.001  0.009  0.020
   35  0.000  0.001  0.008  0.008
   36  0.000  0.024  0.111  0.135
   37  0.000  0.426  0.000  0.426
   38  0.000  0.007  0.000  0.007
tot    0.049  0.471  0.209  0.728
 
band    20 # energy   -4.46188377 # occ.  2.00000000
 
ion      s      p      d    tot
    1  0.000  0.000  0.001  0.001
    2  0.001  0.000  0.000  0.001
    3  0.001  0.000  0.000  0.001
    4  0.001  0.000  0.000  0.001
    5  0.000  0.000  0.000  0.001
    6  0.000  0.000  0.000  0.000
    7  0.001  0.000  0.000  0.001
    8  0.000  0.000  0.000  0.000
    9  0.000  0.000  0.001  0.001
   10  0.000  0.000  0.000  0.001
   11  0.000  0.000  0.001  0.001
   12  0.000  0.000  0.000  0.000
   13  0.000  0.000  0.001  0.001
   14  0.000  0.000  0.001  0.001
   15  0.001  0.000  0.001  0.001
   16  0.000  0.000  0.000  0.001
   17  0.001  0.000  0.000  0.001
   18  0.000  0.000  0.002  0.002
   19  0.000  0.000  0.002  0.002
   20  0.000  0.000  0.000  0.000
   21  0.000  0.001  0.007  0.008
   22  0.002  0.000  0.001  0.003
   23  0.000  0.001  0.007  0.008
   24  0.000  0.000  0.002  0.002
   25  0.000  0.001  0.005  0.006
   26  0.000  0.000  0.002  0.002
   27  0.002  0.000  0.001  0.003
   28  0.000  0.001  0.009  0.009
   29  0.003  0.001  0.006  0.010
   30  0.013  0.001  0.010  0.025
   31  0.003  0.001  0.006  0.011
   32  0.003  0.001  0.006  0.010
   33  0.013  0.001  0.010  0.025
   34  0.003  0.001  0.005  0.010
   35  0.000  0.001  0.008  0.008
   36  0.000  0.024  0.111  0.135
   37  0.000  0.426  0.000  0.426
   38  0.000  0.007  0.000  0.007
tot    0.049  0.471  0.209  0.728
 
band    21 # energy   -4.07881290 # occ.  2.00000000
 
ion      s      p      d    tot
    1  0.000  0.001  0.025  0.025
    2  0.015  0.002  0.007  0.024
    3  0.008  0.001  0.007  0.016
    4  0.015  0.002  0.007  0.023
    5  0.000  0.001  0.011  0.012
    6  0.002  0.001  0.007  0.010
    7  0.006  0.001  0.007  0.014
    8  0.001  0.001  0.007  0.009
    9  0.000  0.003  0.004  0.008
   10  0.000  0.000  0.056  0.056
   11  0.000  0.004  0.015  0.019
   12  0.000  0.000  0.021  0.021
   13  0.000  0.003  0.013  0.017
   14  0.000  0.000  0.002  0.002
   15  0.000  0.005  0.013  0.018
   16  0.000  0.000  0.016  0.016