 vasp.6.2.0 18Jan21 (build Jun 12 2021 23:27:24) complex                        
  
 executed on             LinuxIFC date 2022.05.28  00:37:34
 running on   28 total cores
 distrk:  each k-point on   28 cores,    1 groups
 distr:  one band on NCORE=   1 cores,   28 groups


--------------------------------------------------------------------------------------------------------


 INCAR:
   ISMEAR = -5
   SIGMA = 0.1
   ISPIN = 1
   EDIFF = 1.d-5
   EDIFFG = -0.01
   NSW = 0
   NELM = 150
   ENCUT = 500
   ISIF = 2
   IBRION = 2
   LREAL = Auto
   ALGO = Fast
   ICHARG = 11
   LORBIT = 10
   LCHARG = .F.
   LWAVE = .F.

 POTCAR:    PAW_PBE Au 04Oct2007                  
 POTCAR:    PAW_PBE Cr 06Sep2000                  
 POTCAR:    PAW_PBE C 08Apr2002                   
 POTCAR:    PAW_PBE O 08Apr2002                   
 -----------------------------------------------------------------------------
|                                                                             |
|           W    W    AA    RRRRR   N    N  II  N    N   GGGG   !!!           |
|           W    W   A  A   R    R  NN   N  II  NN   N  G    G  !!!           |
|           W    W  A    A  R    R  N N  N  II  N N  N  G       !!!           |
|           W WW W  AAAAAA  RRRRR   N  N N  II  N  N N  G  GGG   !            |
|           WW  WW  A    A  R   R   N   NN  II  N   NN  G    G                |
|           W    W  A    A  R    R  N    N  II  N    N   GGGG   !!!           |
|                                                                             |
|     For optimal performance we recommend to set                             |
|       NCORE = 2 up to number-of-cores-per-socket                            |
|     NCORE specifies how many cores store one orbital (NPAR=cpu/NCORE).      |
|     This setting can greatly improve the performance of VASP for DFT.       |
|     The default, NCORE=1 might be grossly inefficient on modern             |
|     multi-core architectures or massively parallel machines. Do your        |
|     own testing! More info at https://www.vasp.at/wiki/index.php/NCORE      |
|     Unfortunately you need to use the default for GW and RPA                |
|     calculations (for HF NCORE is supported but not extensively tested      |
|     yet).                                                                   |
|                                                                             |
 -----------------------------------------------------------------------------

 POTCAR:    PAW_PBE Au 04Oct2007                  
   VRHFIN =Au: s1d10                                                                                
   LEXCH  = PE                                                                                      
   EATOM  =   926.0867 eV,   68.0654 Ry                                                             
                                                                                                    
   TITEL  = PAW_PBE Au 04Oct2007                                                                    
   LULTRA =        F    use ultrasoft PP ?                                                          
   IUNSCR =        1    unscreen: 0-lin 1-nonlin 2-no                                               
   RPACOR =    2.330    partial core radius                                                         
   POMASS =  196.966; ZVAL   =   11.000    mass and valenz                                          
   RCORE  =    2.500    outmost cutoff radius                                                       
   RWIGS  =    2.840; RWIGS  =    1.503    wigner-seitz radius (au A)                               
   ENMAX  =  229.943; ENMIN  =  172.457 eV                                                          
   ICORE  =        3    local potential                                                             
   LCOR   =        T    correct aug charges                                                         
   LPAW   =        T    paw PP                                                                      
   EAUG   =  356.670                                                                                
   DEXC   =    0.000                                                                                
   RMAX   =    2.562    core radius for proj-oper                                                   
   RAUG   =    1.300    factor for augmentation sphere                                              
   RDEP   =    2.598    radius for radial grids                                                     
   RDEPT  =    2.193    core radius for aug-charge                                                  
                                                                                                    
   Atomic configuration                                                                             
   16 entries                                                                                       
     n  l   j            E        occ.                                                              
     1  0  0.50    -80748.5001   2.0000                                                             
     2  0  0.50    -14244.7466   2.0000                                                             
     2  1  1.50    -12310.9591   6.0000                                                             
     3  0  0.50     -3362.1768   2.0000                                                             
     3  1  1.50     -2801.5463   6.0000                                                             
     3  2  2.50     -2203.8206  10.0000                                                             
     4  0  0.50      -729.8168   2.0000                                                             
     4  1  1.50      -546.0527   6.0000                                                             
     4  2  2.50      -325.7302  10.0000                                                             
     4  3  3.50       -81.1472  14.0000                                                             
     5  0  0.50      -108.3201   2.0000                                                             
     5  1  1.50       -59.7479   6.0000                                                             
     5  2  2.50        -6.8783  10.0000                                                             
     6  0  0.50        -5.7602   1.0000                                                             
     6  1  1.50        -6.8029   0.0000                                                             
     5  3  2.50        -1.3606   0.0000                                                             
   Description                                                                                      
     l       E           TYP  RCUT    TYP  RCUT                                                     
     2     -6.8782861     23  2.500                                                                 
     2     -8.2388687     23  2.500                                                                 
     0     -5.7601759     23  2.500                                                                 
     0     -0.8493231     23  2.500                                                                 
     1     -2.7211652     23  2.500                                                                 
     1     27.2116520     23  2.500                                                                 
     3     -1.3605826     23  2.500                                                                 
  local pseudopotential read in
  partial core-charges read in
  partial kinetic energy density read in
  atomic valenz-charges read in
  non local Contribution for L=           2  read in
    real space projection operators read in
  non local Contribution for L=           2  read in
    real space projection operators read in
  non local Contribution for L=           0  read in
    real space projection operators read in
  non local Contribution for L=           0  read in
    real space projection operators read in
  non local Contribution for L=           1  read in
    real space projection operators read in
  non local Contribution for L=           1  read in
    real space projection operators read in
    PAW grid and wavefunctions read in
 
   number of l-projection  operators is LMAX  =           6
   number of lm-projection operators is LMMAX =          18
 
 POTCAR:    PAW_PBE Cr 06Sep2000                  
   VRHFIN =Cr : d5 s1                                                                               
   LEXCH  = PE                                                                                      
   EATOM  =   276.8859 eV,   20.3505 Ry                                                             
                                                                                                    
   TITEL  = PAW_PBE Cr 06Sep2000                                                                    
   LULTRA =        F    use ultrasoft PP ?                                                          
   IUNSCR =        1    unscreen: 0-lin 1-nonlin 2-no                                               
   RPACOR =    2.080    partial core radius                                                         
   POMASS =   51.996; ZVAL   =    6.000    mass and valenz                                          
   RCORE  =    2.500    outmost cutoff radius                                                       
   RWIGS  =    2.500; RWIGS  =    1.323    wigner-seitz radius (au A)                               
   ENMAX  =  227.080; ENMIN  =  170.310 eV                                                          
   RCLOC  =    1.721    cutoff for local pot                                                        
   LCOR   =        T    correct aug charges                                                         
   LPAW   =        T    paw PP                                                                      
   EAUG   =  402.108                                                                                
   DEXC   =    0.000                                                                                
   RMAX   =    2.552    core radius for proj-oper                                                   
   RAUG   =    1.300    factor for augmentation sphere                                              
   RDEP   =    2.609    radius for radial grids                                                     
   RDEPT  =    2.065    core radius for aug-charge                                                  
                                                                                                    
   Atomic configuration                                                                             
    9 entries                                                                                       
     n  l   j            E        occ.                                                              
     1  0  0.50     -5880.4963   2.0000                                                             
     2  0  0.50      -667.0865   2.0000                                                             
     2  1  1.50      -560.6250   6.0000                                                             
     3  0  0.50       -73.9860   2.0000                                                             
     3  1  1.50       -45.4378   6.0000                                                             
     3  2  2.50        -2.9137   5.0000                                                             
     4  0  0.50        -4.0071   1.0000                                                             
     4  1  0.50        -1.2789   0.0000                                                             
     4  3  2.50        -1.3606   0.0000                                                             
   Description                                                                                      
     l       E           TYP  RCUT    TYP  RCUT                                                     
     2     -2.9136677     23  2.500                                                                 
     2     -4.2742503     23  2.500                                                                 
     0     -4.0071322     23  2.500                                                                 
     0      9.4498801     23  2.500                                                                 
     1     -5.4423304     23  2.500                                                                 
     1     27.2116520     23  2.500                                                                 
  local pseudopotential read in
  partial core-charges read in
  partial kinetic energy density read in
  atomic valenz-charges read in
  non local Contribution for L=           2  read in
    real space projection operators read in
  non local Contribution for L=           2  read in
    real space projection operators read in
  non local Contribution for L=           0  read in
    real space projection operators read in
  non local Contribution for L=           0  read in
    real space projection operators read in
  non local Contribution for L=           1  read in
    real space projection operators read in
  non local Contribution for L=           1  read in
    real space projection operators read in
    PAW grid and wavefunctions read in
 
   number of l-projection  operators is LMAX  =           6
   number of lm-projection operators is LMMAX =          18
 
 POTCAR:    PAW_PBE C 08Apr2002                   
   VRHFIN =C: s2p2                                                                                  
   LEXCH  = PE                                                                                      
   EATOM  =   147.1560 eV,   10.8157 Ry                                                             
                                                                                                    
   TITEL  = PAW_PBE C 08Apr2002                                                                     
   LULTRA =        F    use ultrasoft PP ?                                                          
   IUNSCR =        1    unscreen: 0-lin 1-nonlin 2-no                                               
   RPACOR =    1.200    partial core radius                                                         
   POMASS =   12.011; ZVAL   =    4.000    mass and valenz                                          
   RCORE  =    1.500    outmost cutoff radius                                                       
   RWIGS  =    1.630; RWIGS  =    0.863    wigner-seitz radius (au A)                               
   ENMAX  =  400.000; ENMIN  =  300.000 eV                                                          
   ICORE  =        2    local potential                                                             
   LCOR   =        T    correct aug charges                                                         
   LPAW   =        T    paw PP                                                                      
   EAUG   =  644.873                                                                                
   DEXC   =    0.000                                                                                
   RMAX   =    1.529    core radius for proj-oper                                                   
   RAUG   =    1.300    factor for augmentation sphere                                              
   RDEP   =    1.501    radius for radial grids                                                     
   RDEPT  =    1.300    core radius for aug-charge                                                  
                                                                                                    
   Atomic configuration                                                                             
    4 entries                                                                                       
     n  l   j            E        occ.                                                              
     1  0  0.50      -273.3789   2.0000                                                             
     2  0  0.50       -13.7508   2.0000                                                             
     2  1  0.50        -5.2854   2.0000                                                             
     3  2  1.50        -5.4423   0.0000                                                             
   Description                                                                                      
     l       E           TYP  RCUT    TYP  RCUT                                                     
     0    -13.7508458     23  1.200                                                                 
     0     -8.2022199     23  1.200                                                                 
     1     -5.2854383     23  1.500                                                                 
     1     34.0145650     23  1.500                                                                 
     2     -5.4423304      7  1.500                                                                 
  local pseudopotential read in
  partial core-charges read in
  partial kinetic energy density read in
  atomic valenz-charges read in
  non local Contribution for L=           0  read in
    real space projection operators read in
  non local Contribution for L=           0  read in
    real space projection operators read in
  non local Contribution for L=           1  read in
    real space projection operators read in
  non local Contribution for L=           1  read in
    real space projection operators read in
    PAW grid and wavefunctions read in
 
   number of l-projection  operators is LMAX  =           4
   number of lm-projection operators is LMMAX =           8
 
 POTCAR:    PAW_PBE O 08Apr2002                   
   VRHFIN =O: s2p4                                                                                  
   LEXCH  = PE                                                                                      
   EATOM  =   432.3788 eV,   31.7789 Ry                                                             
                                                                                                    
   TITEL  = PAW_PBE O 08Apr2002                                                                     
   LULTRA =        F    use ultrasoft PP ?                                                          
   IUNSCR =        1    unscreen: 0-lin 1-nonlin 2-no                                               
   RPACOR =    1.200    partial core radius                                                         
   POMASS =   16.000; ZVAL   =    6.000    mass and valenz                                          
   RCORE  =    1.520    outmost cutoff radius                                                       
   RWIGS  =    1.550; RWIGS  =    0.820    wigner-seitz radius (au A)                               
   ENMAX  =  400.000; ENMIN  =  300.000 eV                                                          
   ICORE  =        2    local potential                                                             
   LCOR   =        T    correct aug charges                                                         
   LPAW   =        T    paw PP                                                                      
   EAUG   =  605.392                                                                                
   DEXC   =    0.000                                                                                
   RMAX   =    1.553    core radius for proj-oper                                                   
   RAUG   =    1.300    factor for augmentation sphere                                              
   RDEP   =    1.550    radius for radial grids                                                     
   RDEPT  =    1.329    core radius for aug-charge                                                  
                                                                                                    
   Atomic configuration                                                                             
    4 entries                                                                                       
     n  l   j            E        occ.                                                              
     1  0  0.50      -514.6923   2.0000                                                             
     2  0  0.50       -23.9615   2.0000                                                             
     2  1  0.50        -9.0305   4.0000                                                             
     3  2  1.50        -9.5241   0.0000                                                             
   Description                                                                                      
     l       E           TYP  RCUT    TYP  RCUT                                                     
     0    -23.9615318     23  1.200                                                                 
     0     -9.5240782     23  1.200                                                                 
     1     -9.0304911     23  1.520                                                                 
     1      8.1634956     23  1.520                                                                 
     2     -9.5240782      7  1.500                                                                 
  local pseudopotential read in
  partial core-charges read in
  partial kinetic energy density read in
  kinetic energy density of atom read in
  atomic valenz-charges read in
  non local Contribution for L=           0  read in
    real space projection operators read in
  non local Contribution for L=           0  read in
    real space projection operators read in
  non local Contribution for L=           1  read in
    real space projection operators read in
  non local Contribution for L=           1  read in
    real space projection operators read in
    PAW grid and wavefunctions read in
 
   number of l-projection  operators is LMAX  =           4
   number of lm-projection operators is LMMAX =           8
 
 Optimization of the real space projectors (new method)

 maximal supplied QI-value         = 15.12
 optimisation between [QCUT,QGAM] = [ 11.34, 22.83] = [ 36.00,145.93] Ry 
 Optimized for a Real-space Cutoff    1.39 Angstroem

   l    n(q)    QCUT    max X(q) W(low)/X(q) W(high)/X(q)  e(spline) 
   2      9    11.338    60.898    0.39E-03    0.42E-03    0.21E-06
   2      9    11.338    58.894    0.40E-03    0.42E-03    0.22E-06
   0      9    11.338   109.617    0.13E-03    0.20E-04    0.13E-06
   0      9    11.338    75.026    0.13E-03    0.20E-04    0.13E-06
   1      9    11.338    16.344    0.33E-04    0.24E-03    0.18E-06
   1      9    11.338    10.160    0.26E-04    0.19E-03    0.15E-06
 Optimization of the real space projectors (new method)

 maximal supplied QI-value         = 15.12
 optimisation between [QCUT,QGAM] = [ 11.34, 22.83] = [ 36.00,145.93] Ry 
 Optimized for a Real-space Cutoff    1.43 Angstroem

   l    n(q)    QCUT    max X(q) W(low)/X(q) W(high)/X(q)  e(spline) 
   2      9    11.338    94.395    0.18E-03    0.10E-02    0.64E-06
   2      9    11.338    88.078    0.18E-03    0.10E-02    0.65E-06
   0     10    11.338    50.173    0.13E-03    0.16E-03    0.96E-07
   0     10    11.338    24.906    0.12E-03    0.14E-03    0.88E-07
   1      9    11.338    12.133    0.13E-03    0.15E-03    0.24E-06
   1      9    11.338     7.290    0.10E-03    0.10E-03    0.18E-06
 Optimization of the real space projectors (new method)

 maximal supplied QI-value         = 25.13
 optimisation between [QCUT,QGAM] = [ 11.31, 22.87] = [ 35.82,146.48] Ry 
 Optimized for a Real-space Cutoff    1.00 Angstroem

   l    n(q)    QCUT    max X(q) W(low)/X(q) W(high)/X(q)  e(spline) 
   0      7    11.310   115.676    0.43E-03    0.13E-02    0.19E-06
   0      7    11.310    87.132    0.43E-03    0.13E-02    0.18E-06
   1      6    11.310     4.429    0.42E-03    0.74E-03    0.11E-06
   1      6    11.310     2.733    0.34E-03    0.55E-03    0.92E-07
 Optimization of the real space projectors (new method)

 maximal supplied QI-value         = 24.76
 optimisation between [QCUT,QGAM] = [ 11.39, 22.77] = [ 36.31,145.25] Ry 
 Optimized for a Real-space Cutoff    1.00 Angstroem

   l    n(q)    QCUT    max X(q) W(low)/X(q) W(high)/X(q)  e(spline) 
   0      7    11.387    20.381    0.39E-03    0.13E-02    0.15E-06
   0      7    11.387    15.268    0.42E-03    0.14E-02    0.17E-06
   1      6    11.387     5.964    0.41E-03    0.11E-02    0.17E-06
   1      6    11.387     5.382    0.39E-03    0.87E-03    0.15E-06
  PAW_PBE Au 04Oct2007                  :
 energy of atom  1       EATOM= -926.0867
 kinetic energy error for atom=    0.0042 (will be added to EATOM!!)
  PAW_PBE Cr 06Sep2000                  :
 energy of atom  2       EATOM= -276.8859
 kinetic energy error for atom=    0.0012 (will be added to EATOM!!)
  PAW_PBE C 08Apr2002                   :
 energy of atom  3       EATOM= -147.1560
 kinetic energy error for atom=    0.0076 (will be added to EATOM!!)
  PAW_PBE O 08Apr2002                   :
 energy of atom  4       EATOM= -432.3788
 kinetic energy error for atom=    0.0224 (will be added to EATOM!!)
 
 
 POSCAR: Au-Cr-CO2
  positions in direct lattice
  velocities in cartesian coordinates
 exchange correlation table for  LEXCH =        8
   RHO(1)=    0.500       N(1)  =     2000
   RHO(2)=  100.500       N(2)  =     4000

 VTST: version 3.2, (02/03/18)

 CHAIN: initializing optimizer
 
 OPT: Using VASP Conjugate-Gradient optimizer
 CHAIN: Read ICHAIN            0
 
 POSCAR: Au-Cr-CO2
  positions in direct lattice
  velocities in cartesian coordinates
 


--------------------------------------------------------------------------------------------------------


 ion  position               nearest neighbor table
   1  0.000  0.000  0.217-  16 2.94  12 2.94   6 2.94   8 2.94   7 2.94   3 2.94  10 2.94   4 2.94
                             2 2.94
   2  0.333  0.000  0.217-   9 2.94  11 2.94  17 2.94  10 2.94   8 2.94   4 2.94   5 2.94   1 2.94
                             3 2.94
   3  0.667  0.000  0.217-   7 2.94  18 2.94  12 2.94   1 2.94  11 2.94   5 2.94   6 2.94   9 2.94
                             2 2.94
   4  0.000  0.333  0.217-  10 2.94   6 2.94   5 2.94  13 2.94   2 2.94  15 2.94   9 2.94   1 2.94
                             7 2.94
   5  0.333  0.333  0.217-  13 2.94   7 2.94  11 2.94   4 2.94   2 2.94  14 2.94   3 2.94   8 2.94
                             6 2.94
   6  0.667  0.333  0.217-  15 2.94  14 2.94   1 2.94  12 2.94   4 2.94   9 2.94   8 2.94   3 2.94
                             5 2.94
   7  0.000  0.667  0.217-  18 2.94   3 2.94  16 2.94   5 2.94   1 2.94  13 2.94   8 2.94   4 2.94
                             9 2.94
   8  0.333  0.667  0.217-   9 2.94  17 2.94   1 2.94   2 2.94  14 2.94  16 2.94   6 2.94   7 2.94
                             5 2.94
   9  0.667  0.667  0.217-   2 2.94   8 2.94  17 2.94   6 2.94  15 2.94   4 2.94   3 2.94  18 2.94
                             7 2.94
  10  0.111  0.111  0.315-  20 2.92  26 2.94  19 2.94  11 2.94  17 2.94   2 2.94   4 2.94   1 2.94
                            12 2.94  16 2.94  13 2.94  15 2.94
  11  0.444  0.111  0.315-  20 2.91  21 2.91  27 2.93  13 2.94   2 2.94  10 2.94  17 2.94   5 2.94
                             3 2.94  18 2.94  14 2.94  12 2.94
  12  0.778  0.111  0.315-  21 2.92  25 2.94  19 2.94  16 2.94  18 2.94   1 2.94  14 2.94  15 2.94
                             3 2.94   6 2.94  10 2.94  11 2.94
  13  0.111  0.444  0.315-  23 2.91  20 2.91  22 2.93   5 2.94  18 2.94  11 2.94   7 2.94   4 2.94
                            16 2.94  10 2.94  14 2.94  15 2.94
  14  0.444  0.444  0.315-  21 2.91  23 2.91  24 2.93  15 2.94   6 2.94  12 2.94   8 2.94  17 2.94
                             5 2.94  16 2.94  13 2.94  11 2.94
  15  0.778  0.444  0.315-  24 2.92  22 2.92  19 2.94  14 2.94   6 2.94  17 2.94  12 2.94   9 2.94
                             4 2.94  10 2.94  13 2.94  18 2.94
  16  0.111  0.778  0.315-  23 2.92  25 2.94  26 2.94  18 2.94  12 2.94   7 2.94   1 2.94   8 2.94
                            13 2.94  10 2.94  14 2.94  17 2.94
  17  0.444  0.778  0.315-  27 2.92  24 2.92  26 2.94   9 2.94  15 2.94   2 2.94  10 2.94  11 2.94
                             8 2.94  14 2.94  16 2.94  18 2.94
  18  0.778  0.778  0.315-  22 2.92  27 2.92  25 2.94  16 2.94   7 2.94  13 2.94  12 2.94   3 2.94
                            11 2.94   9 2.94  15 2.94  17 2.94
  19  0.889  0.222  0.413-  10 2.94  12 2.94  15 2.94  26 2.94  25 2.94  24 2.94  22 2.94  28 2.95
                            21 2.95  20 2.95  32 3.00  31 3.00
  20  0.223  0.223  0.412-  36 2.71  11 2.91  13 2.91  23 2.91  21 2.91  29 2.92  31 2.92  10 2.92
                            26 2.95  19 2.95  27 2.96  22 2.96
  21  0.553  0.223  0.412-  36 2.71  14 2.91  11 2.91  20 2.91  23 2.91  30 2.92  32 2.92  12 2.92
                            25 2.95  19 2.95  27 2.96  24 2.96
  22  0.886  0.557  0.413-  24 2.90  27 2.90  18 2.92  15 2.92  13 2.93  25 2.94  19 2.94  23 2.96
                            20 2.96  35 2.96  33 2.96  31 2.96
  23  0.223  0.553  0.412-  36 2.71  13 2.91  14 2.91  20 2.91  21 2.91  33 2.92  34 2.92  16 2.92
                            25 2.95  26 2.95  22 2.96  24 2.96
  24  0.557  0.557  0.413-  27 2.90  22 2.90  15 2.92  17 2.92  14 2.93  26 2.94  19 2.94  21 2.96
                            23 2.96  35 2.96  32 2.96  34 2.96
  25  0.889  0.889  0.413-  16 2.94  12 2.94  18 2.94  19 2.94  26 2.94  22 2.94  27 2.94  28 2.95
                            23 2.95  21 2.95  33 3.00  30 3.00
  26  0.222  0.889  0.413-  10 2.94  16 2.94  17 2.94  19 2.94  25 2.94  27 2.94  24 2.94  28 2.95
                            20 2.95  23 2.95  29 3.00  34 3.00
  27  0.557  0.886  0.413-  24 2.90  22 2.90  17 2.92  18 2.92  11 2.93  26 2.94  25 2.94  20 2.96
                            21 2.96  35 2.96  29 2.96  30 2.96
  28  0.000  0.000  0.512-  25 2.95  19 2.95  26 2.95  34 2.99  32 2.99  33 2.99  30 2.99  31 2.99
                            29 2.99
  29  0.334  0.011  0.512-  30 2.84  31 2.84  36 2.86  20 2.92  27 2.96  35 2.99  28 2.99  26 3.00
                            34 3.13
  30  0.655  0.011  0.512-  29 2.84  32 2.84  36 2.86  21 2.92  27 2.96  35 2.99  28 2.99  25 3.00
                            33 3.13
  31  0.011  0.334  0.512-  33 2.84  29 2.84  36 2.86  20 2.92  22 2.96  35 2.99  28 2.99  19 3.00
                            32 3.13
  32  0.655  0.334  0.512-  34 2.84  30 2.84  36 2.86  21 2.92  24 2.96  35 2.99  28 2.99  19 3.00
                            31 3.13
  33  0.011  0.655  0.512-  31 2.84  34 2.84  36 2.86  23 2.92  22 2.96  35 2.99  28 2.99  25 3.00
                            30 3.13
  34  0.334  0.655  0.512-  32 2.84  33 2.84  36 2.86  23 2.92  24 2.96  35 2.99  28 2.99  26 3.00
                            29 3.13
  35  0.667  0.667  0.513-  24 2.96  27 2.96  22 2.96  29 2.99  34 2.99  32 2.99  31 2.99  30 2.99
                            33 2.99
  36  0.333  0.333  0.500-  20 2.71  23 2.71  21 2.71  33 2.86  31 2.86  29 2.86  30 2.86  34 2.86
                            32 2.86
  37  0.336  0.332  0.669-  39 1.18  38 1.18
  38  0.200  0.338  0.668-  37 1.18
  39  0.473  0.326  0.670-  37 1.18
 
  LATTYP: Found a hexagonal cell.
 ALAT       =     8.8135128021
 C/A-ratio  =     2.7649717827
  
  Lattice vectors:
  
 A1 = (  -4.4067569092,  -7.6327256898,   0.0000000000)
 A2 = (   8.8135128021,   0.0000000000,   0.0000000000)
 A3 = (   0.0000000000,   0.0000000000,  24.3691142040)


Analysis of symmetry for initial positions (statically):
=====================================================================
 Subroutine PRICEL returns:
 Original cell was already a primitive cell.
 

 Routine SETGRP: Setting up the symmetry group for a 
 hexagonal supercell.


 Subroutine GETGRP returns: Found  1 space group operations
 (whereof  1 operations were pure point group operations)
 out of a pool of 24 trial point group operations.


The static configuration has the point symmetry C_1 .


Analysis of symmetry for dynamics (positions and initial velocities):
=====================================================================
 Subroutine PRICEL returns:
 Original cell was already a primitive cell.
 

 Routine SETGRP: Setting up the symmetry group for a 
 hexagonal supercell.


 Subroutine GETGRP returns: Found  1 space group operations
 (whereof  1 operations were pure point group operations)
 out of a pool of 24 trial point group operations.


The dynamic configuration has the point symmetry C_1 .


Analysis of constrained symmetry for selective dynamics:
=====================================================================
 Subroutine PRICEL returns:
 Original cell was already a primitive cell.
 

 Routine SETGRP: Setting up the symmetry group for a 
 hexagonal supercell.


 Subroutine GETGRP returns: Found  1 space group operations
 (whereof  1 operations were pure point group operations)
 out of a pool of 24 trial point group operations.


The constrained configuration has the point symmetry C_1 .


 Subroutine INISYM returns: Found  1 space group operations
 (whereof  1 operations are pure point group operations),
 and found     1 'primitive' translations


----------------------------------------------------------------------------------------

                                     Primitive cell                                     

  volume of cell :    1639.3377

  direct lattice vectors                    reciprocal lattice vectors
     8.813512802  0.000000000  0.000000000     0.113462137 -0.065507406  0.000000000
     4.406756909  7.632725690  0.000000000     0.000000000  0.131014796  0.000000000
     0.000000000  0.000000000 24.369114204     0.000000000  0.000000000  0.041035550

  length of vectors
     8.813512802  8.813512802 24.369114204     0.131014796  0.131014796  0.041035550

  position of ions in fractional coordinates (direct lattice)
     0.000000000  0.000000000  0.216683294
     0.333333343  0.000000000  0.216683294
     0.666666687  0.000000000  0.216683294
     1.000000000  0.333333343  0.216683294
     0.333333313  0.333333343  0.216683294
     0.666666687  0.333333343  0.216683294
     1.000000000  0.666666687  0.216683294
     0.333333343  0.666666687  0.216683294
     0.666666627  0.666666687  0.216683294
     0.111111119  0.111111112  0.315116667
     0.444444418  0.111111112  0.315116667
     0.777777791  0.111111112  0.315116667
     0.111111127  0.444444448  0.315116667
     0.444444478  0.444444448  0.315116667
     0.777777731  0.444444448  0.315116667
     0.111111090  0.777777791  0.315116667
     0.444444448  0.777777791  0.315116667
     0.777777851  0.777777791  0.315116667
     0.888912079  0.222175858  0.413433748
     0.223298761  0.223298746  0.412354248
     0.553402538  0.223298746  0.412354248
     0.886292395  0.556853833  0.412729898
     0.223298716  0.553402538  0.412354248
     0.556853833  0.556853833  0.412729898
     0.888912079  0.888912079  0.413433748
     0.222175888  0.888912079  0.413433748
     0.556853773  0.886292395  0.412729898
     0.000000000  0.000000000  0.512451026
     0.333652727  0.010952029  0.512186224
     0.655395274  0.010952029  0.512186224
     0.010952029  0.333652727  0.512186224
     0.655395274  0.333652727  0.512186224
     0.010952029  0.655395274  0.512186224
     0.333652727  0.655395274  0.512186224
     0.666666627  0.666666687  0.512772220
     0.333333313  0.333333343  0.499655588
     0.336492509  0.332092365  0.669345799
     0.200303367  0.337721010  0.668085103
     0.472746819  0.326369992  0.670227330

  ion indices of the primitive-cell ions
   primitive index   ion index
                 1           1
                 2           2
                 3           3
                 4           4
                 5           5
                 6           6
                 7           7
                 8           8
                 9           9
                10          10
                11          11
                12          12
                13          13
                14          14
                15          15
                16          16
                17          17
                18          18
                19          19
                20          20
                21          21
                22          22
                23          23
                24          24
                25          25
                26          26
                27          27
                28          28
                29          29
                30          30
                31          31
                32          32
                33          33
                34          34
                35          35
                36          36
                37          37
                38          38
                39          39

----------------------------------------------------------------------------------------

 
 
 KPOINTS: Automatic mesh                          

Automatic generation of k-mesh.
 Grid dimensions read from file:
 generate k-points for:    8    8    1

 Generating k-lattice:

  Cartesian coordinates                     Fractional coordinates (reciprocal lattice)
     0.014182767 -0.008188426  0.000000000     0.125000000 -0.000000000  0.000000000
     0.000000000  0.016376850  0.000000000     0.000000000  0.125000000  0.000000000
     0.000000000  0.000000000  0.041035550     0.000000000  0.000000000  1.000000000

  Length of vectors
     0.016376850  0.016376850  0.041035550

  Shift w.r.t. Gamma in fractional coordinates (k-lattice)
     0.000000000  0.000000000  0.000000000

 TETIRR: Found    192 inequivalent tetrahedra from      384
 
 Subroutine IBZKPT returns following result:
 ===========================================
 
 Found     34 irreducible k-points:
 
 Following reciprocal coordinates:
            Coordinates               Weight
  0.000000  0.000000  0.000000      1.000000
  0.125000  0.000000  0.000000      2.000000
  0.125000  0.125000  0.000000      2.000000
  0.000000  0.125000  0.000000      2.000000
  0.250000  0.000000  0.000000      2.000000
  0.250000  0.250000  0.000000      2.000000
  0.000000  0.250000  0.000000      2.000000
  0.375000 -0.000000  0.000000      2.000000
  0.375000  0.375000  0.000000      2.000000
  0.000000  0.375000  0.000000      2.000000
  0.500000  0.000000  0.000000      1.000000
  0.500000  0.500000  0.000000      1.000000
  0.000000  0.500000  0.000000      1.000000
  0.250000  0.125000  0.000000      2.000000
  0.125000  0.250000  0.000000      2.000000
 -0.125000  0.125000  0.000000      2.000000
  0.375000  0.125000  0.000000      2.000000
  0.250000  0.375000  0.000000      2.000000
 -0.125000  0.250000  0.000000      2.000000
  0.250000 -0.125000  0.000000      2.000000
 -0.125000 -0.375000  0.000000      2.000000
 -0.375000 -0.250000  0.000000      2.000000
  0.500000  0.125000  0.000000      2.000000
  0.375000  0.500000  0.000000      2.000000
 -0.125000  0.375000  0.000000      2.000000
  0.375000 -0.125000  0.000000      2.000000
 -0.125000  0.500000  0.000000      2.000000
  0.500000 -0.375000  0.000000      2.000000
  0.500000  0.250000  0.000000      2.000000
  0.250000  0.500000  0.000000      2.000000
 -0.250000  0.250000  0.000000      2.000000
 -0.375000  0.250000  0.000000      2.000000
  0.375000 -0.375000  0.000000      2.000000
 -0.250000  0.375000  0.000000      2.000000
 
 Following cartesian coordinates:
            Coordinates               Weight
  0.000000  0.000000  0.000000      1.000000
  0.014183 -0.008188  0.000000      2.000000
  0.014183  0.008188  0.000000      2.000000
  0.000000  0.016377  0.000000      2.000000
  0.028366 -0.016377  0.000000      2.000000
  0.028366  0.016377  0.000000      2.000000
  0.000000  0.032754  0.000000      2.000000
  0.042548 -0.024565  0.000000      2.000000
  0.042548  0.024565  0.000000      2.000000
  0.000000  0.049131  0.000000      2.000000
  0.056731 -0.032754  0.000000      1.000000
  0.056731  0.032754  0.000000      1.000000
  0.000000  0.065507  0.000000      1.000000
  0.028366 -0.000000  0.000000      2.000000
  0.014183  0.024565  0.000000      2.000000
 -0.014183  0.024565  0.000000      2.000000
  0.042548 -0.008188  0.000000      2.000000
  0.028366  0.032754  0.000000      2.000000
 -0.014183  0.040942  0.000000      2.000000
  0.028366 -0.032754  0.000000      2.000000
 -0.014183 -0.040942  0.000000      2.000000
 -0.042548 -0.008188  0.000000      2.000000
  0.056731 -0.016377  0.000000      2.000000
  0.042548  0.040942  0.000000      2.000000
 -0.014183  0.057319  0.000000      2.000000
  0.042548 -0.040942  0.000000      2.000000
 -0.014183  0.073696  0.000000      2.000000
  0.056731 -0.081884  0.000000      2.000000
  0.056731 -0.000000  0.000000      2.000000
  0.028366  0.049131  0.000000      2.000000
 -0.028366  0.049131  0.000000      2.000000
 -0.042548  0.057319  0.000000      2.000000
  0.042548 -0.073696  0.000000      2.000000
 -0.028366  0.065507  0.000000      2.000000
 


--------------------------------------------------------------------------------------------------------




 Dimension of arrays:
   k-points           NKPTS =     34   k-points in BZ     NKDIM =     34   number of bands    NBANDS=    252
   number of dos      NEDOS =    301   number of ions     NIONS =     39
   non local maximal  LDIM  =      6   non local SUM 2l+1 LMDIM =     18
   total plane-waves  NPLWV = 322560
   max r-space proj   IRMAX =   2467   max aug-charges    IRDMAX=  12231
   dimension x,y,z NGX =    48 NGY =   48 NGZ =  140
   dimension x,y,z NGXF=    96 NGYF=   96 NGZF=  280
   support grid    NGXF=    96 NGYF=   96 NGZF=  280
   ions per type =              35   1   1   2
   NGX,Y,Z   is equivalent  to a cutoff of   9.05,  9.05,  9.55 a.u.
   NGXF,Y,Z  is equivalent  to a cutoff of  18.11, 18.11, 19.10 a.u.

 SYSTEM =  unknown system                          
 POSCAR =  Au-Cr-CO2                               

 Startparameter for this run:
   NWRITE =      2    write-flag & timer
   PREC   = normal    normal or accurate (medium, high low for compatibility)
   ISTART =      0    job   : 0-new  1-cont  2-samecut
   ICHARG =     11    charge: 1-file 2-atom 10-const
   ISPIN  =      1    spin polarized calculation?
   LNONCOLLINEAR =      F non collinear calculations
   LSORBIT =      F    spin-orbit coupling
   INIWAV =      1    electr: 0-lowe 1-rand  2-diag
   LASPH  =      F    aspherical Exc in radial PAW
   METAGGA=      F    non-selfconsistent MetaGGA calc.

 Electronic Relaxation 1
   ENCUT  =  500.0 eV  36.75 Ry    6.06 a.u.  16.07 16.07 44.43*2*pi/ulx,y,z
   ENINI  =  500.0     initial cutoff
   ENAUG  =  644.9 eV  augmentation charge cutoff
   NELM   =    150;   NELMIN=  2; NELMDL= -5     # of ELM steps 
   EDIFF  = 0.1E-04   stopping-criterion for ELM
   LREAL  =      T    real-space projection
   NLSPLINE    = F    spline interpolate recip. space projectors
   LCOMPAT=      F    compatible to vasp.4.4
   GGA_COMPAT  = T    GGA compatible to vasp.4.4-vasp.4.6
   LMAXPAW     = -100 max onsite density
   LMAXMIX     =    2 max onsite mixed and CHGCAR
   VOSKOWN=      0    Vosko Wilk Nusair interpolation
   ROPT   =   -0.00050  -0.00050  -0.00050  -0.00050
 Ionic relaxation
   EDIFFG = -.1E-01   stopping-criterion for IOM
   NSW    =      0    number of steps for IOM
   NBLOCK =      1;   KBLOCK =      1    inner block; outer block 
   IBRION =     -1    ionic relax: 0-MD 1-quasi-New 2-CG
   NFREE  =      1    steps in history (QN), initial steepest desc. (CG)
   ISIF   =      2    stress and relaxation
   IWAVPR =     10    prediction:  0-non 1-charg 2-wave 3-comb
   ISYM   =      2    0-nonsym 1-usesym 2-fastsym
   LCORR  =      T    Harris-Foulkes like correction to forces

   POTIM  = 0.5000    time-step for ionic-motion
   TEIN   =    0.0    initial temperature
   TEBEG  =    0.0;   TEEND  =   0.0 temperature during run
   SMASS  =  -3.00    Nose mass-parameter (am)
   estimated Nose-frequenzy (Omega)   =  0.10E-29 period in steps = 0.13E+47 mass=  -0.178E-26a.u.
   SCALEE = 1.0000    scale energy and forces
   NPACO  =    256;   APACO  = 16.0  distance and # of slots for P.C.
   PSTRESS=    0.0 pullay stress

  Mass of Ions in am
   POMASS = 196.97 52.00 12.01 16.00
  Ionic Valenz
   ZVAL   =  11.00  6.00  4.00  6.00
  Atomic Wigner-Seitz radii
   RWIGS  =  -1.00 -1.00 -1.00 -1.00
  virtual crystal weights 
   VCA    =   1.00  1.00  1.00  1.00
   NELECT =     407.0000    total number of electrons
   NUPDOWN=      -1.0000    fix difference up-down

 DOS related values:
   EMIN   =  10.00;   EMAX   =-10.00  energy-range for DOS
   EFERMI =   0.00
   ISMEAR =    -5;   SIGMA  =   0.10  broadening in eV -4-tet -1-fermi 0-gaus

 Electronic relaxation 2 (details)
   IALGO  =     68    algorithm
   LDIAG  =      T    sub-space diagonalisation (order eigenvalues)
   LSUBROT=      F    optimize rotation matrix (better conditioning)
   TURBO    =      0    0=normal 1=particle mesh
   IRESTART =      0    0=no restart 2=restart with 2 vectors
   NREBOOT  =      0    no. of reboots
   NMIN     =      0    reboot dimension
   EREF     =   0.00    reference energy to select bands
   IMIX   =      4    mixing-type and parameters
     AMIX     =   0.40;   BMIX     =  1.00
     AMIX_MAG =   1.60;   BMIX_MAG =  1.00
     AMIN     =   0.10
     WC   =   100.;   INIMIX=   1;  MIXPRE=   1;  MAXMIX= -45

 Intra band minimization:
   WEIMIN = 0.0000     energy-eigenvalue tresh-hold
   EBREAK =  0.99E-08  absolut break condition
   DEPER  =   0.30     relativ break condition  

   TIME   =   0.40     timestep for ELM

  volume/ion in A,a.u.               =      42.03       283.66
  Fermi-wavevector in a.u.,A,eV,Ry     =   1.028924  1.944385 14.404291  1.058686
  Thomas-Fermi vector in A             =   2.162946
 
 Write flags
   LWAVE        =      F    write WAVECAR
   LDOWNSAMPLE  =      F    k-point downsampling of WAVECAR
   LCHARG       =      F    write CHGCAR
   LVTOT        =      F    write LOCPOT, total local potential
   LVHAR        =      F    write LOCPOT, Hartree potential only
   LELF         =      F    write electronic localiz. function (ELF)
   LORBIT       =     10    0 simple, 1 ext, 2 COOP (PROOUT), +10 PAW based schemes


 Dipole corrections
   LMONO  =      F    monopole corrections only (constant potential shift)
   LDIPOL =      F    correct potential (dipole corrections)
   IDIPOL =      0    1-x, 2-y, 3-z, 4-all directions 
   EPSILON=  1.0000000 bulk dielectric constant

 Exchange correlation treatment:
   GGA     =    --    GGA type
   LEXCH   =     8    internal setting for exchange type
   VOSKOWN=      0    Vosko Wilk Nusair interpolation
   LHFCALC =     F    Hartree Fock is set to
   LHFONE  =     F    Hartree Fock one center treatment
   AEXX    =    0.0000 exact exchange contribution

 Linear response parameters
   LEPSILON=     F    determine dielectric tensor
   LRPA    =     F    only Hartree local field effects (RPA)
   LNABLA  =     F    use nabla operator in PAW spheres
   LVEL    =     F    velocity operator in full k-point grid
   LINTERFAST=   F  fast interpolation
   KINTER  =     0    interpolate to denser k-point grid
   CSHIFT  =0.1000    complex shift for real part using Kramers Kronig
   OMEGAMAX=  -1.0    maximum frequency
   DEG_THRESHOLD= 0.2000000E-02 threshold for treating states as degnerate
   RTIME   =   -0.100 relaxation time in fs
  (WPLASMAI=    0.000 imaginary part of plasma frequency in eV, 0.658/RTIME)
   DFIELD  = 0.0000000 0.0000000 0.0000000 field for delta impulse in time
 
 Orbital magnetization related:
   ORBITALMAG=     F  switch on orbital magnetization
   LCHIMAG   =     F  perturbation theory with respect to B field
   DQ        =  0.001000  dq finite difference perturbation B field
   LLRAUG    =     F  two centre corrections for induced B field



--------------------------------------------------------------------------------------------------------


 Static calculation
 charge density and potential remain constant during run
 non-spin polarized calculation
 RMM-DIIS sequential band-by-band and
  variant of blocked Davidson during initial phase
 perform sub-space diagonalisation
    before iterative eigenvector-optimisation
 no mixing
 using additional bands           48
 real space projection scheme for non local part
 use partial core corrections
 calculate Harris-corrections to forces 
   (improved forces if not selfconsistent)
 use gradient corrections 
 WARNING: stress and forces are not correct
  (second derivative of E(xc) not defined)
 use of overlap-Matrix (Vanderbilt PP)
 Fermi weights with tetrahedron method with Bloechl corrections


--------------------------------------------------------------------------------------------------------


  energy-cutoff  :      500.00
  volume of cell :     1639.34
      direct lattice vectors                 reciprocal lattice vectors
     8.813512802  0.000000000  0.000000000     0.113462137 -0.065507406  0.000000000
     4.406756909  7.632725690  0.000000000     0.000000000  0.131014796  0.000000000
     0.000000000  0.000000000 24.369114204     0.000000000  0.000000000  0.041035550

  length of vectors
     8.813512802  8.813512802 24.369114204     0.131014796  0.131014796  0.041035550


 
 k-points in units of 2pi/SCALE and weight: Automatic mesh                          
   0.00000000  0.00000000  0.00000000       0.016
   0.01418277 -0.00818843  0.00000000       0.031
   0.01418277  0.00818842  0.00000000       0.031
   0.00000000  0.01637685  0.00000000       0.031
   0.02836553 -0.01637685  0.00000000       0.031
   0.02836553  0.01637685  0.00000000       0.031
   0.00000000  0.03275370  0.00000000       0.031
   0.04254830 -0.02456528  0.00000000       0.031
   0.04254830  0.02456527  0.00000000       0.031
   0.00000000  0.04913055  0.00000000       0.031
   0.05673107 -0.03275370  0.00000000       0.016
   0.05673107  0.03275370  0.00000000       0.016
   0.00000000  0.06550740  0.00000000       0.016
   0.02836553 -0.00000000  0.00000000       0.031
   0.01418277  0.02456527  0.00000000       0.031
  -0.01418277  0.02456528  0.00000000       0.031
   0.04254830 -0.00818843  0.00000000       0.031
   0.02836553  0.03275370  0.00000000       0.031
  -0.01418277  0.04094212  0.00000000       0.031
   0.02836553 -0.03275370  0.00000000       0.031
  -0.01418277 -0.04094212  0.00000000       0.031
  -0.04254830 -0.00818842  0.00000000       0.031
   0.05673107 -0.01637685  0.00000000       0.031
   0.04254830  0.04094212  0.00000000       0.031
  -0.01418277  0.05731897  0.00000000       0.031
   0.04254830 -0.04094213  0.00000000       0.031
  -0.01418277  0.07369582  0.00000000       0.031
   0.05673107 -0.08188425  0.00000000       0.031
   0.05673107 -0.00000000  0.00000000       0.031
   0.02836553  0.04913055  0.00000000       0.031
  -0.02836553  0.04913055  0.00000000       0.031
  -0.04254830  0.05731898  0.00000000       0.031
   0.04254830 -0.07369583  0.00000000       0.031
  -0.02836553  0.06550740  0.00000000       0.031
 
 k-points in reciprocal lattice and weights: Automatic mesh                          
   0.00000000  0.00000000  0.00000000       0.016
   0.12500000  0.00000000  0.00000000       0.031
   0.12500000  0.12500000  0.00000000       0.031
   0.00000000  0.12500000  0.00000000       0.031
   0.25000000  0.00000000  0.00000000       0.031
   0.25000000  0.25000000  0.00000000       0.031
   0.00000000  0.25000000  0.00000000       0.031
   0.37500000 -0.00000000  0.00000000       0.031
   0.37500000  0.37500000  0.00000000       0.031
   0.00000000  0.37500000  0.00000000       0.031
   0.50000000  0.00000000  0.00000000       0.016
   0.50000000  0.50000000  0.00000000       0.016
   0.00000000  0.50000000  0.00000000       0.016
   0.25000000  0.12500000  0.00000000       0.031
   0.12500000  0.25000000  0.00000000       0.031
  -0.12500000  0.12500000  0.00000000       0.031
   0.37500000  0.12500000  0.00000000       0.031
   0.25000000  0.37500000  0.00000000       0.031
  -0.12500000  0.25000000  0.00000000       0.031
   0.25000000 -0.12500000  0.00000000       0.031
  -0.12500000 -0.37500000  0.00000000       0.031
  -0.37500000 -0.25000000  0.00000000       0.031
   0.50000000  0.12500000  0.00000000       0.031
   0.37500000  0.50000000  0.00000000       0.031
  -0.12500000  0.37500000  0.00000000       0.031
   0.37500000 -0.12500000  0.00000000       0.031
  -0.12500000  0.50000000  0.00000000       0.031
   0.50000000 -0.37500000  0.00000000       0.031
   0.50000000  0.25000000  0.00000000       0.031
   0.25000000  0.50000000  0.00000000       0.031
  -0.25000000  0.25000000  0.00000000       0.031
  -0.37500000  0.25000000  0.00000000       0.031
   0.37500000 -0.37500000  0.00000000       0.031
  -0.25000000  0.37500000  0.00000000       0.031
 
 position of ions in fractional coordinates (direct lattice) 
   0.00000000  0.00000000  0.21668329
   0.33333334  0.00000000  0.21668329
   0.66666669  0.00000000  0.21668329
   0.00000000  0.33333334  0.21668329
   0.33333331  0.33333334  0.21668329
   0.66666669  0.33333334  0.21668329
   0.00000000  0.66666669  0.21668329
   0.33333334  0.66666669  0.21668329
   0.66666663  0.66666669  0.21668329
   0.11111112  0.11111111  0.31511667
   0.44444442  0.11111111  0.31511667
   0.77777779  0.11111111  0.31511667
   0.11111113  0.44444445  0.31511667
   0.44444448  0.44444445  0.31511667
   0.77777773  0.44444445  0.31511667
   0.11111109  0.77777779  0.31511667
   0.44444445  0.77777779  0.31511667
   0.77777785  0.77777779  0.31511667
   0.88891208  0.22217586  0.41343375
   0.22329876  0.22329875  0.41235425
   0.55340254  0.22329875  0.41235425
   0.88629239  0.55685383  0.41272990
   0.22329872  0.55340254  0.41235425
   0.55685383  0.55685383  0.41272990
   0.88891208  0.88891208  0.41343375
   0.22217589  0.88891208  0.41343375
   0.55685377  0.88629239  0.41272990
   0.00000000  0.00000000  0.51245103
   0.33365273  0.01095203  0.51218622
   0.65539527  0.01095203  0.51218622
   0.01095203  0.33365273  0.51218622
   0.65539527  0.33365273  0.51218622
   0.01095203  0.65539527  0.51218622
   0.33365273  0.65539527  0.51218622
   0.66666663  0.66666669  0.51277222
   0.33333331  0.33333334  0.49965559
   0.33649251  0.33209237  0.66934580
   0.20030337  0.33772101  0.66808510
   0.47274682  0.32636999  0.67022733
 
 position of ions in cartesian coordinates  (Angst):
   0.00000000  0.00000000  5.28037993
   2.93783769  0.00000000  5.28037993
   5.87567538  0.00000000  5.28037993
   1.46891901  2.54424197  5.28037993
   4.40675643  2.54424197  5.28037993
   7.34459439  2.54424197  5.28037993
   2.93783803  5.08848395  5.28037993
   5.87567571  5.08848395  5.28037993
   8.81351288  5.08848395  5.28037993
   1.46891893  0.84808064  7.67911405
   4.40675623  0.84808064  7.67911405
   7.34459418  0.84808064  7.67911405
   2.93783798  3.39232256  7.67911405
   5.87567574  3.39232256  7.67911405
   8.81351263  3.39232256  7.67911405
   4.40675667  5.93656453  7.67911405
   7.34459449  5.93656453  7.67911405
  10.28243270  5.93656453  7.67911405
   8.81351299  1.69580738 10.07501421
   2.95206978  1.70437808 10.04870776
   5.86144364  1.70437808 10.04870776
  10.26526884  4.25031255 10.05786203
   4.40675655  4.22396977 10.04870776
   7.36175786  4.25031255 10.05786203
  11.75165743  6.78482206 10.07501421
   5.87536948  6.78482206 10.07501421
   8.81351299  6.76482673 10.05786203
   0.00000000  0.00000000 12.48797758
   2.98891551  0.08359383 12.48152458
   5.82459757  0.08359383 12.48152458
   1.56685231  2.54667974 12.48152458
   7.24666110  2.54667974 12.48152458
   2.98469350  5.00245235 12.48152458
   5.82882023  5.00245235 12.48152458
   8.81351288  5.08848395 12.49580478
   4.40675643  2.54424197 12.17616408
   4.42913136  2.53476993 16.31136421
   3.25363069  2.57773183 16.28064216
   5.60479336  2.49109262 16.33284635
 


--------------------------------------------------------------------------------------------------------


 k-point   1 :   0.0000 0.0000 0.0000  plane waves:   41519
 k-point   2 :   0.1250 0.0000 0.0000  plane waves:   41578
 k-point   3 :   0.1250 0.1250 0.0000  plane waves:   41578
 k-point   4 :   0.0000 0.1250 0.0000  plane waves:   41578
 k-point   5 :   0.2500 0.0000 0.0000  plane waves:   41600
 k-point   6 :   0.2500 0.2500 0.0000  plane waves:   41600
 k-point   7 :   0.0000 0.2500 0.0000  plane waves:   41600
 k-point   8 :   0.3750-0.0000 0.0000  plane waves:   41638
 k-point   9 :   0.3750 0.3750 0.0000  plane waves:   41638
 k-point  10 :   0.0000 0.3750 0.0000  plane waves:   41638
 k-point  11 :   0.5000 0.0000 0.0000  plane waves:   41584
 k-point  12 :   0.5000 0.5000 0.0000  plane waves:   41584
 k-point  13 :   0.0000 0.5000 0.0000  plane waves:   41584
 k-point  14 :   0.2500 0.1250 0.0000  plane waves:   41548
 k-point  15 :   0.1250 0.2500 0.0000  plane waves:   41548
 k-point  16 :  -0.1250 0.1250 0.0000  plane waves:   41548
 k-point  17 :   0.3750 0.1250 0.0000  plane waves:   41640
 k-point  18 :   0.2500 0.3750 0.0000  plane waves:   41640
 k-point  19 :  -0.1250 0.2500 0.0000  plane waves:   41640
 k-point  20 :   0.2500-0.1250 0.0000  plane waves:   41640
 k-point  21 :  -0.1250-0.3750 0.0000  plane waves:   41640
 k-point  22 :  -0.3750-0.2500 0.0000  plane waves:   41640
 k-point  23 :   0.5000 0.1250 0.0000  plane waves:   41652
 k-point  24 :   0.3750 0.5000 0.0000  plane waves:   41652
 k-point  25 :  -0.1250 0.3750 0.0000  plane waves:   41652
 k-point  26 :   0.3750-0.1250 0.0000  plane waves:   41652
 k-point  27 :  -0.1250 0.5000 0.0000  plane waves:   41652
 k-point  28 :   0.5000-0.3750 0.0000  plane waves:   41652
 k-point  29 :   0.5000 0.2500 0.0000  plane waves:   41658
 k-point  30 :   0.2500 0.5000 0.0000  plane waves:   41658
 k-point  31 :  -0.2500 0.2500 0.0000  plane waves:   41658
 k-point  32 :  -0.3750 0.2500 0.0000  plane waves:   41624
 k-point  33 :   0.3750-0.3750 0.0000  plane waves:   41624
 k-point  34 :  -0.2500 0.3750 0.0000  plane waves:   41624

 maximum and minimum number of plane-waves per node :     41658    41519

 maximum number of plane-waves:     41658
 maximum index in each direction: 
   IXMAX=   16   IYMAX=   16   IZMAX=   44
   IXMIN=  -16   IYMIN=  -16   IZMIN=  -44


 serial   3D FFT for wavefunctions
 parallel 3D FFT for charge:
    minimum data exchange during FFTs selected (reduces bandwidth)


 total amount of memory used by VASP MPI-rank0   277426. kBytes
=======================================================================

   base      :      30000. kBytes
   nonlr-proj:      14012. kBytes
   fftplans  :       4808. kBytes
   grid      :      20723. kBytes
   one-center:        606. kBytes
   wavefun   :     207277. kBytes
 
     INWAV:  cpu time    0.0000: real time    0.0001
 initial charge density was supplied:
 number of electron     407.0000212 magnetization 
 keeping initial charge density in first step


--------------------------------------------------------------------------------------------------------


 Maximum index for non-local projection operator         2315
 Maximum index for augmentation-charges          866 (set IRDMAX)


--------------------------------------------------------------------------------------------------------


 First call to EWALD:  gamma=   0.150
 Maximum number of real-space cells 4x 4x 2
 Maximum number of reciprocal cells 2x 2x 5

    FEWALD:  cpu time    0.0014: real time    0.0015


--------------------------------------- Iteration      1(   1)  ---------------------------------------


    POTLOK:  cpu time    0.0470: real time    0.0475
    SETDIJ:  cpu time    0.0051: real time    0.0053
     EDDAV:  cpu time   26.3690: real time   26.3721
 BZINTS: Fermi energy:   11.317946;  407.000000 electrons
         Band energy: 0.142992E+04;  BLOECHL correction:   -0.015657
       DOS:  cpu time    0.0560: real time    0.0561
    --------------------------------------------
      LOOP:  cpu time   26.4772: real time   26.4810

 eigenvalue-minimisations  : 17136
 total energy-change (2. order) : 0.2793332E+04  (-0.1814160E+05)
 number of electron     407.0000212 magnetization 
 augmentation part      407.0000212 magnetization 

 Free energy of the ion-electron system (eV)
  ---------------------------------------------------
  alpha Z        PSCENC =       953.83422791
  Ewald energy   TEWEN  =    120938.64831847
  -Hartree energ DENC   =   -155541.10238652
  -exchange      EXHF   =         0.00000000
  -V(xc)+E(xc)   XCENC  =       566.83801083
  PAW double counting   =     37018.25442798   -36274.68991274
  entropy T*S    EENTRO =         0.00000000
  eigenvalues    EBANDS =      1429.91739583
  atomic energy  EATOM  =     33701.63218730
  Solvation  Ediel_sol  =         0.00000000
  ---------------------------------------------------
  free energy    TOTEN  =      2793.33226906 eV

  energy without entropy =     2793.33226906  energy(sigma->0) =     2793.33226906


--------------------------------------------------------------------------------------------------------




--------------------------------------- Iteration      1(   2)  ---------------------------------------


     EDDAV:  cpu time   28.4069: real time   28.4079
 BZINTS: Fermi energy:    1.217991;  407.000000 electrons
         Band energy:-0.132179E+04;  BLOECHL correction:   -0.087549
       DOS:  cpu time    0.0570: real time    0.0570
    --------------------------------------------
      LOOP:  cpu time   28.4639: real time   28.4648

 eigenvalue-minimisations  : 18872
 total energy-change (2. order) :-0.2751712E+04  (-0.2556121E+04)
 number of electron     407.0000212 magnetization 
 augmentation part      407.0000212 magnetization 

 Free energy of the ion-electron system (eV)
  ---------------------------------------------------
  alpha Z        PSCENC =       953.83422791
  Ewald energy   TEWEN  =    120938.64831847
  -Hartree energ DENC   =   -155541.10238652
  -exchange      EXHF   =         0.00000000
  -V(xc)+E(xc)   XCENC  =       566.83801083
  PAW double counting   =     37018.25442798   -36274.68991274
  entropy T*S    EENTRO =         0.00000000
  eigenvalues    EBANDS =     -1321.79454301
  atomic energy  EATOM  =     33701.63218730
  Solvation  Ediel_sol  =         0.00000000
  ---------------------------------------------------
  free energy    TOTEN  =        41.62033022 eV

  energy without entropy =       41.62033022  energy(sigma->0) =       41.62033022


--------------------------------------------------------------------------------------------------------




--------------------------------------- Iteration      1(   3)  ---------------------------------------


     EDDAV:  cpu time   30.9900: real time   30.9908
 BZINTS: Fermi energy:    0.311747;  407.000000 electrons
         Band energy:-0.149614E+04;  BLOECHL correction:   -0.028425
       DOS:  cpu time    0.0591: real time    0.0591
    --------------------------------------------
      LOOP:  cpu time   31.0491: real time   31.0499

 eigenvalue-minimisations  : 20944
 total energy-change (2. order) :-0.1743466E+03  (-0.1694584E+03)
 number of electron     407.0000212 magnetization 
 augmentation part      407.0000212 magnetization 

 Free energy of the ion-electron system (eV)
  ---------------------------------------------------
  alpha Z        PSCENC =       953.83422791
  Ewald energy   TEWEN  =    120938.64831847
  -Hartree energ DENC   =   -155541.10238652
  -exchange      EXHF   =         0.00000000
  -V(xc)+E(xc)   XCENC  =       566.83801083
  PAW double counting   =     37018.25442798   -36274.68991274
  entropy T*S    EENTRO =         0.00000000
  eigenvalues    EBANDS =     -1496.14115250
  atomic energy  EATOM  =     33701.63218730
  Solvation  Ediel_sol  =         0.00000000
  ---------------------------------------------------
  free energy    TOTEN  =      -132.72627927 eV

  energy without entropy =     -132.72627927  energy(sigma->0) =     -132.72627927


--------------------------------------------------------------------------------------------------------




--------------------------------------- Iteration      1(   4)  ---------------------------------------


     EDDAV:  cpu time   28.7578: real time   28.7587
 BZINTS: Fermi energy:    0.295099;  407.000000 electrons
         Band energy:-0.149997E+04;  BLOECHL correction:   -0.028159
       DOS:  cpu time    0.0584: real time    0.0584
    --------------------------------------------
      LOOP:  cpu time   28.8163: real time   28.8171

 eigenvalue-minimisations  : 19096
 total energy-change (2. order) :-0.3831372E+01  (-0.3803485E+01)
 number of electron     407.0000212 magnetization 
 augmentation part      407.0000212 magnetization 

 Free energy of the ion-electron system (eV)
  ---------------------------------------------------
  alpha Z        PSCENC =       953.83422791
  Ewald energy   TEWEN  =    120938.64831847
  -Hartree energ DENC   =   -155541.10238652
  -exchange      EXHF   =         0.00000000
  -V(xc)+E(xc)   XCENC  =       566.83801083
  PAW double counting   =     37018.25442798   -36274.68991274
  entropy T*S    EENTRO =         0.00000000
  eigenvalues    EBANDS =     -1499.97252448
  atomic energy  EATOM  =     33701.63218730
  Solvation  Ediel_sol  =         0.00000000
  ---------------------------------------------------
  free energy    TOTEN  =      -136.55765125 eV

  energy without entropy =     -136.55765125  energy(sigma->0) =     -136.55765125


--------------------------------------------------------------------------------------------------------




--------------------------------------- Iteration      1(   5)  ---------------------------------------


     EDDAV:  cpu time   31.3750: real time   31.3790
 BZINTS: Fermi energy:    0.294625;  407.000000 electrons
         Band energy:-0.150012E+04;  BLOECHL correction:   -0.028152
       DOS:  cpu time    0.0597: real time    0.0597
    --------------------------------------------
      LOOP:  cpu time   31.4347: real time   31.4386

 eigenvalue-minimisations  : 21252
 total energy-change (2. order) :-0.1479095E+00  (-0.1475923E+00)
 number of electron     407.0000212 magnetization 
 augmentation part      407.0000212 magnetization 

 Free energy of the ion-electron system (eV)
  ---------------------------------------------------
  alpha Z        PSCENC =       953.83422791
  Ewald energy   TEWEN  =    120938.64831847
  -Hartree energ DENC   =   -155541.10238652
  -exchange      EXHF   =         0.00000000
  -V(xc)+E(xc)   XCENC  =       566.83801083
  PAW double counting   =     37018.25442798   -36274.68991274
  entropy T*S    EENTRO =         0.00000000
  eigenvalues    EBANDS =     -1500.12043394
  atomic energy  EATOM  =     33701.63218730
  Solvation  Ediel_sol  =         0.00000000
  ---------------------------------------------------
  free energy    TOTEN  =      -136.70556070 eV

  energy without entropy =     -136.70556070  energy(sigma->0) =     -136.70556070


--------------------------------------------------------------------------------------------------------




--------------------------------------- Iteration      1(   6)  ---------------------------------------


    EDDIAG:  cpu time    5.2174: real time    5.2177
  RMM-DIIS:  cpu time   15.7295: real time   15.7299
    ORTHCH:  cpu time    0.9702: real time    0.9703
 BZINTS: Fermi energy:    0.294623;  407.000000 electrons
         Band energy:-0.150012E+04;  BLOECHL correction:   -0.028152
       DOS:  cpu time    0.0596: real time    0.0596
    --------------------------------------------
      LOOP:  cpu time   21.9767: real time   21.9775

 eigenvalue-minimisations  : 17887
 total energy-change (2. order) :-0.3610446E-02  (-0.3610462E-02)
 number of electron     407.0000212 magnetization 
 augmentation part      407.0000212 magnetization 

 Free energy of the ion-electron system (eV)
  ---------------------------------------------------
  alpha Z        PSCENC =       953.83422791
  Ewald energy   TEWEN  =    120938.64831847
  -Hartree energ DENC   =   -155541.10238652
  -exchange      EXHF   =         0.00000000
  -V(xc)+E(xc)   XCENC  =       566.83801083
  PAW double counting   =     37018.25442798   -36274.68991274
  entropy T*S    EENTRO =         0.00000000
  eigenvalues    EBANDS =     -1500.12404438
  atomic energy  EATOM  =     33701.63218730
  Solvation  Ediel_sol  =         0.00000000
  ---------------------------------------------------
  free energy    TOTEN  =      -136.70917115 eV

  energy without entropy =     -136.70917115  energy(sigma->0) =     -136.70917115


--------------------------------------------------------------------------------------------------------




--------------------------------------- Iteration      1(   7)  ---------------------------------------


    EDDIAG:  cpu time    5.2193: real time    5.2197
  RMM-DIIS:  cpu time   21.8036: real time   21.8042
    ORTHCH:  cpu time    0.9707: real time    0.9707
 BZINTS: Fermi energy:    0.294622;  407.000000 electrons
         Band energy:-0.150013E+04;  BLOECHL correction:   -0.028152
       DOS:  cpu time    0.0571: real time    0.0571
    --------------------------------------------
      LOOP:  cpu time   28.0508: real time   28.0517

 eigenvalue-minimisations  : 25281
 total energy-change (2. order) :-0.1937970E-02  (-0.1879292E-02)
 number of electron     407.0000212 magnetization 
 augmentation part      407.0000212 magnetization 

 Free energy of the ion-electron system (eV)
  ---------------------------------------------------
  alpha Z        PSCENC =       953.83422791
  Ewald energy   TEWEN  =    120938.64831847
  -Hartree energ DENC   =   -155541.10238652
  -exchange      EXHF   =         0.00000000
  -V(xc)+E(xc)   XCENC  =       566.83801083
  PAW double counting   =     37018.25442798   -36274.68991274
  entropy T*S    EENTRO =         0.00000000
  eigenvalues    EBANDS =     -1500.12598235
  atomic energy  EATOM  =     33701.63218730
  Solvation  Ediel_sol  =         0.00000000
  ---------------------------------------------------
  free energy    TOTEN  =      -136.71110912 eV

  energy without entropy =     -136.71110912  energy(sigma->0) =     -136.71110912


--------------------------------------------------------------------------------------------------------




--------------------------------------- Iteration      1(   8)  ---------------------------------------


    EDDIAG:  cpu time    5.2193: real time    5.2196
  RMM-DIIS:  cpu time   18.8312: real time   18.8317
    ORTHCH:  cpu time    0.9698: real time    0.9698
 BZINTS: Fermi energy:    0.294622;  407.000000 electrons
         Band energy:-0.150013E+04;  BLOECHL correction:   -0.028152
       DOS:  cpu time    0.0596: real time    0.0596
    --------------------------------------------
      LOOP:  cpu time   25.0799: real time   25.0806

 eigenvalue-minimisations  : 21678
 total energy-change (2. order) :-0.1886199E-03  (-0.1864002E-03)
 number of electron     407.0000212 magnetization 
 augmentation part      407.0000212 magnetization 

 Free energy of the ion-electron system (eV)
  ---------------------------------------------------
  alpha Z        PSCENC =       953.83422791
  Ewald energy   TEWEN  =    120938.64831847
  -Hartree energ DENC   =   -155541.10238652
  -exchange      EXHF   =         0.00000000
  -V(xc)+E(xc)   XCENC  =       566.83801083
  PAW double counting   =     37018.25442798   -36274.68991274
  entropy T*S    EENTRO =         0.00000000
  eigenvalues    EBANDS =     -1500.12617097
  atomic energy  EATOM  =     33701.63218730
  Solvation  Ediel_sol  =         0.00000000
  ---------------------------------------------------
  free energy    TOTEN  =      -136.71129774 eV

  energy without entropy =     -136.71129774  energy(sigma->0) =     -136.71129774


--------------------------------------------------------------------------------------------------------




--------------------------------------- Iteration      1(   9)  ---------------------------------------


    EDDIAG:  cpu time    5.2194: real time    5.2198
  RMM-DIIS:  cpu time   19.7712: real time   19.7716
    ORTHCH:  cpu time    0.9704: real time    0.9705
 BZINTS: Fermi energy:    0.294622;  407.000000 electrons
         Band energy:-0.150013E+04;  BLOECHL correction:   -0.028152
       DOS:  cpu time    0.0596: real time    0.0596
    --------------------------------------------
      LOOP:  cpu time   26.0206: real time   26.0216

 eigenvalue-minimisations  : 22049
 total energy-change (2. order) :-0.4017822E-04  (-0.3998150E-04)
 number of electron     407.0000212 magnetization 
 augmentation part      407.0000212 magnetization 

 Free energy of the ion-electron system (eV)
  ---------------------------------------------------
  alpha Z        PSCENC =       953.83422791
  Ewald energy   TEWEN  =    120938.64831847
  -Hartree energ DENC   =   -155541.10238652
  -exchange      EXHF   =         0.00000000
  -V(xc)+E(xc)   XCENC  =       566.83801083
  PAW double counting   =     37018.25442798   -36274.68991274
  entropy T*S    EENTRO =         0.00000000
  eigenvalues    EBANDS =     -1500.12621115
  atomic energy  EATOM  =     33701.63218730
  Solvation  Ediel_sol  =         0.00000000
  ---------------------------------------------------
  free energy    TOTEN  =      -136.71133792 eV

  energy without entropy =     -136.71133792  energy(sigma->0) =     -136.71133792


--------------------------------------------------------------------------------------------------------




--------------------------------------- Iteration      1(  10)  ---------------------------------------


    EDDIAG:  cpu time    5.2194: real time    5.2197
  RMM-DIIS:  cpu time   12.2983: real time   12.2987
    ORTHCH:  cpu time    0.9698: real time    0.9699
 BZINTS: Fermi energy:    0.294622;  407.000000 electrons
         Band energy:-0.150013E+04;  BLOECHL correction:   -0.028152
       DOS:  cpu time    0.0596: real time    0.0596
    --------------------------------------------
      LOOP:  cpu time   18.5472: real time   18.5479

 eigenvalue-minimisations  : 12731
 total energy-change (2. order) :-0.3075780E-05  (-0.3101488E-05)
 number of electron     407.0000212 magnetization 
 augmentation part      407.0000212 magnetization 

 Free energy of the ion-electron system (eV)
  ---------------------------------------------------
  alpha Z        PSCENC =       953.83422791
  Ewald energy   TEWEN  =    120938.64831847
  -Hartree energ DENC   =   -155541.10238652
  -exchange      EXHF   =         0.00000000
  -V(xc)+E(xc)   XCENC  =       566.83801083
  PAW double counting   =     37018.25442798   -36274.68991274
  entropy T*S    EENTRO =         0.00000000
  eigenvalues    EBANDS =     -1500.12621423
  atomic energy  EATOM  =     33701.63218730
  Solvation  Ediel_sol  =         0.00000000
  ---------------------------------------------------
  free energy    TOTEN  =      -136.71134099 eV

  energy without entropy =     -136.71134099  energy(sigma->0) =     -136.71134099


--------------------------------------------------------------------------------------------------------




 average (electrostatic) potential at core
  the test charge radii are     1.2098  1.1394  0.6991  0.7215
  (the norm of the test charge is              1.0000)
       1 -72.7525       2 -72.7312       3 -72.7312       4 -72.7316       5 -72.7367
       6 -72.7312       7 -72.7311       8 -72.7309       9 -72.7290      10 -73.0867
      11 -73.0458      12 -73.0865      13 -73.0460      14 -73.0457      15 -73.0700
      16 -73.0863      17 -73.0690      18 -73.0691      19 -73.0240      20 -73.2270
      21 -73.2271      22 -73.0381      23 -73.2270      24 -73.0380      25 -73.0238
      26 -73.0238      27 -73.0371      28 -72.6898      29 -72.7972      30 -72.7971
      31 -72.7895      32 -72.7901      33 -72.7962      34 -72.7972      35 -72.6795
      36 -48.8282      37 -58.2316      38 -77.2432      39 -77.2406
 
 
 
 E-fermi :   0.2946     XC(G=0):  -5.8074     alpha+bet : -5.3376

 Fermi energy:         0.2946219782

 k-point     1 :       0.0000    0.0000    0.0000
  band No.  band energies     occupation 
      1     -23.7087      2.00000
      2     -22.6916      2.00000
      3      -8.5307      2.00000
      4      -8.3247      2.00000
      5      -7.3473      2.00000
      6      -7.2029      2.00000
      7      -7.1805      2.00000
      8      -7.1325      2.00000
      9      -6.4032      2.00000
     10      -6.3867      2.00000
     11      -6.3841      2.00000
     12      -6.3840      2.00000
     13      -6.3602      2.00000
     14      -6.3352      2.00000
     15      -6.3352      2.00000
     16      -6.2644      2.00000
     17      -5.9063      2.00000
     18      -5.8978      2.00000
     19      -5.8975      2.00000
     20      -5.8635      2.00000
     21      -5.8445      2.00000
     22      -5.8443      2.00000
     23      -5.5198      2.00000
     24      -5.5195      2.00000
     25      -5.5010      2.00000
     26      -5.4944      2.00000
     27      -5.4591      2.00000
     28      -5.4591      2.00000
     29      -5.3343      2.00000
     30      -5.3284      2.00000
     31      -5.3279      2.00000
     32      -5.3142      2.00000
     33      -5.3018      2.00000
     34      -5.3014      2.00000
     35      -5.1702      2.00000
     36      -5.1682      2.00000
     37      -5.1681      2.00000
     38      -5.1484      2.00000
     39      -5.1484      2.00000
     40      -5.1378      2.00000
     41      -5.1372      2.00000
     42      -5.1367      2.00000
     43      -5.1106      2.00000
     44      -5.0474      2.00000
[...]
  0.000   0.000   0.000   0.000   0.000   0.000   0.000   0.000   0.000   0.000   1.000   0.000   0.000   0.000   0.000   0.000
  0.000   0.000   0.000   0.000   0.000   0.000   0.000   0.000   0.000   0.000   0.000   0.000   0.000   0.000   0.000   0.000
  0.000   0.000   0.000   0.000   0.000   0.000   0.000   0.000   0.000   0.000   0.000   0.000   0.000   0.000   0.000   0.000
  0.000   0.000   0.000   0.000   0.000   0.000   0.000   0.000   0.000   0.000   0.000   0.000   0.000   0.000   0.000   0.000
  0.000   0.000   0.000   0.000   0.000   0.000   0.000   0.000   0.000   0.000   0.000   0.000   0.000   0.000   0.000   0.000
  0.000   0.000   0.000   0.000   0.000   0.000   0.000   0.000   0.000   0.000   0.000   0.000   0.000   0.000   0.000   0.000
  0.000   0.000   0.000   0.000   0.000   0.000   0.000   0.000   0.000   0.000   0.000   0.000   0.000   0.000   0.000   0.000
  0.000   0.000   0.000   0.000   0.000   0.000   0.000   0.000   0.000   0.000   0.000   0.000   0.000   0.000   0.000   0.000


------------------------ aborting loop because EDIFF is reached ----------------------------------------





 total charge

# of ion       s       p       d       tot
------------------------------------------
    1        0.548   0.239   8.765   9.551
    2        0.543   0.241   8.765   9.549
    3        0.543   0.241   8.765   9.549
    4        0.543   0.241   8.765   9.549
    5        0.545   0.241   8.762   9.547
    6        0.543   0.241   8.765   9.549
    7        0.543   0.241   8.765   9.549
    8        0.543   0.241   8.765   9.549
    9        0.543   0.239   8.768   9.550
   10        0.526   0.308   8.767   9.601
   11        0.521   0.308   8.781   9.610
   12        0.526   0.308   8.767   9.601
   13        0.521   0.308   8.781   9.610
   14        0.521   0.308   8.781   9.610
   15        0.517   0.309   8.775   9.601
   16        0.526   0.308   8.767   9.601
   17        0.517   0.309   8.775   9.601
   18        0.517   0.309   8.775   9.601
   19        0.517   0.300   8.774   9.591
   20        0.557   0.338   8.741   9.635
   21        0.557   0.338   8.741   9.635
   22        0.509   0.309   8.778   9.596
   23        0.557   0.338   8.741   9.635
   24        0.509   0.309   8.778   9.596
   25        0.517   0.299   8.774   9.591
   26        0.517   0.299   8.774   9.591
   27        0.510   0.309   8.778   9.597
   28        0.539   0.224   8.758   9.521
   29        0.571   0.245   8.740   9.556
   30        0.571   0.245   8.740   9.556
   31        0.570   0.244   8.740   9.554
   32        0.570   0.244   8.740   9.554
   33        0.571   0.245   8.740   9.556
   34        0.571   0.245   8.739   9.556
   35        0.535   0.223   8.762   9.520
   36        0.349   0.318   4.142   4.809
   37        0.933   1.801   0.000   2.734
   38        1.607   3.529   0.000   5.136
   39        1.607   3.529   0.000   5.136
--------------------------------------------------
tot         23.333  18.866 310.836 353.035
 
    CHARGE:  cpu time    1.2466: real time    1.2468
    FORLOC:  cpu time    0.0125: real time    0.0125
    FORNL :  cpu time    5.3415: real time    5.3418
    STRESS:  cpu time   16.0561: real time   16.0568
    FORCOR:  cpu time    0.0618: real time    0.0620
    FORHAR:  cpu time    0.0197: real time    0.0199
    OFIELD:  cpu time    0.0003: real time    0.0003

  FORCE on cell =-STRESS in cart. coord.  units (eV):
  Direction    XX          YY          ZZ          XY          YZ          ZX
  --------------------------------------------------------------------------------------
  Alpha Z   953.83423   953.83423   953.83423
  Ewald  143810.70852143022.87790************   -28.56182    -0.52946    17.22418
  Hartree152231.21763151861.49075************   -13.14392    -0.20202     7.91282
  E(xc)   -1825.45978 -1827.56275 -1835.12285    -0.07740    -0.00152     0.04689
  Local  ************************307176.13121    39.06203     0.66373   -23.54824
  n-local  -114.39365  -108.41341   -82.67640     0.23194     0.02575    -0.11696
  augment  2402.35670  2405.06441  2424.54209     0.09709     0.00140    -0.05948
  Kinetic  5666.45259  5731.62513  5792.79795     2.40381     0.05677    -1.43748
  Fock        0.00000     0.00000     0.00000     0.00000     0.00000     0.00000
  -------------------------------------------------------------------------------------
  Total     -23.73815   -23.75000     2.08896     0.01173     0.01466     0.02173
  in kB     -23.20006   -23.21164     2.04161     0.01146     0.01432     0.02124
  external pressure =      -14.79 kB  Pullay stress =        0.00 kB


 VOLUME and BASIS-vectors are now :
 -----------------------------------------------------------------------------
  energy-cutoff  :      500.00
  volume of cell :     1639.34
      direct lattice vectors                 reciprocal lattice vectors
     8.813512802  0.000000000  0.000000000     0.113462137 -0.065507406  0.000000000
     4.406756909  7.632725690  0.000000000     0.000000000  0.131014796  0.000000000
     0.000000000  0.000000000 24.369114204     0.000000000  0.000000000  0.041035550

  length of vectors
     8.813512802  8.813512802 24.369114204     0.131014796  0.131014796  0.041035550


 FORCES acting on ions
    electron-ion (+dipol)            ewald-force                    non-local-force                 convergence-correction
 -----------------------------------------------------------------------------------------------
   0.846E-04 0.144E-01 0.265E+04   0.115E-02 -.136E-01 -.265E+04   0.136E-04 -.146E-02 -.738E+00   -.126E-02 0.171E-03 -.453E-01
   0.343E+00 0.132E-01 0.265E+04   -.487E+00 -.730E-01 -.265E+04   0.570E-01 0.838E-01 -.298E+00   0.741E-01 -.275E-01 -.980E-01
   -.344E+00 0.280E-02 0.265E+04   0.486E+00 -.728E-01 -.265E+04   -.570E-01 0.838E-01 -.298E+00   -.727E-01 -.172E-01 -.954E-01
   0.170E+00 0.298E+00 0.265E+04   -.295E+00 -.392E+00 -.265E+04   0.103E+00 0.703E-02 -.306E+00   0.125E-01 0.779E-01 -.987E-01
   -.137E-01 -.696E-02 0.265E+04   -.235E-03 0.642E-03 -.265E+04   0.931E-04 -.677E-03 -.898E-01   0.141E-01 0.730E-02 -.678E-01
   -.161E+00 0.291E+00 0.265E+04   0.295E+00 -.391E+00 -.265E+04   -.103E+00 0.720E-02 -.305E+00   -.220E-01 0.832E-01 -.950E-01
   -.181E+00 -.306E+00 0.265E+04   0.192E+00 0.464E+00 -.265E+04   0.451E-01 -.909E-01 -.298E+00   -.523E-01 -.543E-01 -.933E-01
   0.171E+00 -.300E+00 0.265E+04   -.192E+00 0.464E+00 -.265E+04   -.450E-01 -.911E-01 -.298E+00   0.616E-01 -.612E-01 -.928E-01
   0.143E-01 -.699E-02 0.265E+04   -.594E-03 0.130E-01 -.265E+04   0.762E-04 0.218E-02 -.443E+00   -.141E-01 -.801E-02 -.966E-01
   0.329E+01 0.200E+01 0.912E+03   -.284E+01 -.174E+01 -.912E+03   -.311E+00 -.178E+00 -.764E+00   -.103E+00 -.589E-01 0.209E+00
   -.492E-02 0.279E+01 0.917E+03   -.424E-02 -.276E+01 -.917E+03   -.211E-03 0.266E-01 -.260E+00   0.969E-02 -.104E+00 0.284E+00
   -.329E+01 0.199E+01 0.912E+03   0.285E+01 -.173E+01 -.912E+03   0.311E+00 -.178E+00 -.764E+00   0.979E-01 -.538E-01 0.204E+00
   0.233E+01 -.142E+01 0.917E+03   -.231E+01 0.140E+01 -.917E+03   0.205E-01 -.122E-01 -.263E+00   -.864E-01 0.616E-01 0.285E+00
   -.235E+01 -.143E+01 0.917E+03   0.231E+01 0.140E+01 -.917E+03   -.204E-01 -.118E-01 -.262E+00   0.105E+00 0.595E-01 0.276E+00
   0.111E-01 0.419E+01 0.917E+03   -.203E-02 -.438E+01 -.917E+03   0.230E-03 0.196E-01 -.593E+00   -.930E-02 0.125E+00 0.293E+00
   -.757E-02 -.382E+01 0.912E+03   0.676E-02 0.331E+01 -.912E+03   -.866E-04 0.357E+00 -.760E+00   0.901E-03 0.112E+00 0.203E+00
   0.369E+01 -.215E+01 0.917E+03   -.386E+01 0.225E+01 -.916E+03   0.177E-01 -.110E-01 -.584E+00   0.104E+00 -.707E-01 0.293E+00
   -.368E+01 -.215E+01 0.917E+03   0.385E+01 0.225E+01 -.916E+03   -.177E-01 -.112E-01 -.585E+00   -.105E+00 -.624E-01 0.297E+00
   -.234E-01 0.108E+00 -.847E+03   0.194E-01 -.299E+00 0.845E+03   0.995E-03 0.475E-01 0.525E+00   0.308E-02 0.149E+00 0.946E+00
   0.256E+01 0.194E+01 -.830E+03   -.182E+01 -.152E+01 0.829E+03   -.100E+01 -.575E+00 -.932E+00   0.226E+00 0.130E+00 0.151E+01
   -.253E+01 0.189E+01 -.830E+03   0.180E+01 -.147E+01 0.829E+03   0.100E+01 -.576E+00 -.933E+00   -.238E+00 0.129E+00 0.151E+01
   -.718E+01 0.351E+01 -.833E+03   0.682E+01 -.330E+01 0.832E+03   0.357E+00 -.211E+00 0.551E+00   0.859E-02 -.619E-02 0.981E+00
   -.252E-01 -.365E+01 -.831E+03   0.339E-01 0.281E+01 0.830E+03   -.859E-03 0.115E+01 -.937E+00   -.800E-02 -.271E+00 0.151E+01
   0.721E+01 0.348E+01 -.833E+03   -.685E+01 -.326E+01 0.832E+03   -.357E+00 -.211E+00 0.549E+00   -.496E-02 -.384E-02 0.980E+00
   0.224E+00 0.412E+00 -.848E+03   -.648E-01 -.322E+00 0.846E+03   -.359E-01 -.196E-01 0.508E+00   -.129E+00 -.735E-01 0.946E+00
   -.272E+00 0.412E+00 -.848E+03   0.110E+00 -.326E+00 0.846E+03   0.359E-01 -.182E-01 0.507E+00   0.132E+00 -.704E-01 0.947E+00
   0.461E-01 -.810E+01 -.834E+03   -.448E-01 0.769E+01 0.832E+03   -.146E-04 0.410E+00 0.545E+00   -.143E-02 0.103E-01 0.983E+00
   -.314E+00 0.396E+01 -.252E+04   0.313E+00 -.396E+01 0.252E+04   -.167E-03 -.109E-02 0.507E+00   0.142E-02 0.598E-03 0.630E+00
   0.815E+01 0.149E+02 -.250E+04   -.755E+01 -.139E+02 0.250E+04   -.100E+01 -.154E+01 -.428E-01   0.387E+00 0.531E+00 0.592E+00
   -.782E+01 0.149E+02 -.250E+04   0.721E+01 -.139E+02 0.250E+04   0.100E+01 -.154E+01 -.418E-01   -.389E+00 0.534E+00 0.593E+00
   0.150E+02 0.241E+01 -.249E+04   -.138E+02 -.239E+01 0.249E+04   -.182E+01 -.953E-01 0.578E-01   0.653E+00 0.675E-01 0.589E+00
   -.149E+02 0.189E+01 -.249E+04   0.137E+02 -.187E+01 0.249E+04   0.182E+01 -.961E-01 0.478E-01   -.654E+00 0.722E-01 0.593E+00
   0.377E+01 -.171E+02 -.250E+04   -.319E+01 0.161E+02 0.250E+04   -.836E+00 0.164E+01 -.375E-01   0.268E+00 -.600E+00 0.593E+00
   -.402E+01 -.171E+02 -.250E+04   0.344E+01 0.160E+02 0.250E+04   0.837E+00 0.164E+01 -.516E-01   -.263E+00 -.601E+00 0.596E+00
   0.248E+00 -.381E+01 -.253E+04   -.237E+00 0.381E+01 0.253E+04   -.474E-03 0.136E-02 0.667E+00   -.103E-01 -.400E-02 0.585E+00
   -.400E-01 -.968E-01 -.128E+04   0.419E-01 0.101E+00 0.128E+04   -.514E-02 0.150E-02 0.268E+01   0.160E-02 -.755E-03 0.552E+00
   0.131E+00 -.182E+00 -.806E+03   -.118E+00 0.181E+00 0.806E+03   -.857E-02 -.114E-02 -.849E-01   -.162E-02 0.742E-03 -.169E+00
   0.260E+03 -.958E+01 -.121E+04   -.324E+03 0.119E+02 0.121E+04   0.638E+02 -.234E+01 0.161E+01   0.444E-01 0.325E-03 -.233E+00
   -.261E+03 0.969E+01 -.121E+04   0.324E+03 -.121E+02 0.121E+04   -.638E+02 0.237E+01 -.121E+01   -.414E-01 0.333E-02 -.223E+00
 -----------------------------------------------------------------------------------------------
   0.194E-01 -.430E-01 -.134E+02   0.000E+00 0.300E-12 -.523E-11   -.227E-01 0.282E-01 -.342E+01   -.129E-02 0.437E-02 0.166E+02
 
 
 POSITION                                       TOTAL-FORCE (eV/Angst)
 -----------------------------------------------------------------------------------
      0.00000      0.00000      5.28038         0.000104     -0.000242     -0.147922
      2.93784      0.00000      5.28038        -0.012440     -0.003239     -0.059900
      5.87568      0.00000      5.28038         0.012701     -0.003055     -0.059865
      1.46892      2.54424      5.28038        -0.008701     -0.008978     -0.060717
      4.40676      2.54424      5.28038         0.000373      0.000578     -0.090194
      7.34459      2.54424      5.28038         0.008864     -0.008964     -0.060559
      2.93784      5.08848      5.28038         0.003986      0.012808     -0.060824
      5.87568      5.08848      5.28038        -0.003613      0.012823     -0.060698
      8.81351      5.08848      5.28038        -0.000189      0.000437     -0.082022
      1.46892      0.84808      7.67911         0.032738      0.019136      0.081018
      4.40676      0.84808      7.67911         0.000443     -0.048496     -0.027726
      7.34459      0.84808      7.67911        -0.032674      0.019249      0.081012
      2.93784      3.39232      7.67911        -0.042561      0.024924     -0.028242
      5.87568      3.39232      7.67911         0.043192      0.024741     -0.028232
      8.81351      3.39232      7.67911         0.000164     -0.054223      0.037408
      4.40676      5.93656      7.67911         0.000115     -0.038035      0.081605
      7.34459      5.93656      7.67911        -0.047265      0.027457      0.037664
     10.28243      5.93656      7.67911         0.047558      0.027422      0.037746
      8.81351      1.69581     10.07501         0.000149      0.005922      0.044643
      2.95207      1.70438     10.04871        -0.035047     -0.020786     -0.029371
      5.86144      1.70438     10.04871         0.034755     -0.020666     -0.028642
     10.26527      4.25031     10.05786         0.006701     -0.002840      0.029228
      4.40676      4.22397     10.04871        -0.000070      0.038363     -0.031828
      7.36176      4.25031     10.05786        -0.006413     -0.002722      0.028572
     11.75166      6.78482     10.07501        -0.005768     -0.002659      0.041947
      5.87537      6.78482     10.07501         0.006135     -0.002670      0.041939
      8.81351      6.76483     10.05786         0.000025      0.006174      0.025092
      0.00000      0.00000     12.48798         0.000208     -0.000006     -0.060489
      2.98892      0.08359     12.48152        -0.008156      0.002115      0.067905
      5.82460      0.08359     12.48152         0.008365      0.002494      0.068373
      1.56685      2.54668     12.48152        -0.006056     -0.008887      0.064443
      7.24666      2.54668     12.48152         0.005293     -0.008901      0.065842
      2.98469      5.00245     12.48152         0.009150      0.007953      0.068370
      5.82882      5.00245     12.48152        -0.009221      0.007181      0.069234
      8.81351      5.08848     12.49580        -0.000054      0.000355     -0.010049
      4.40676      2.54424     12.17616        -0.001544      0.005475     -0.050350
      4.42913      2.53477     16.31136         0.002858     -0.001090      0.003088
      3.25363      2.57773     16.28064        -0.000473     -0.005270      0.004320
      5.60479      2.49109     16.33285        -0.003630     -0.003881     -0.001818
 -----------------------------------------------------------------------------------
    total drift:                               -0.004569     -0.010387     -0.241117


--------------------------------------------------------------------------------------------------------



  FREE ENERGIE OF THE ION-ELECTRON SYSTEM (eV)
  ---------------------------------------------------
  free  energy   TOTEN  =      -136.71134099 eV

  energy  without entropy=     -136.71134099  energy(sigma->0) =     -136.71134099
 


--------------------------------------------------------------------------------------------------------


    POTLOK:  cpu time    0.0494: real time    0.0494


--------------------------------------------------------------------------------------------------------


 stress matrix after NEB project (eV)
    -23.73815      0.01173      0.02173
      0.01173    -23.75000      0.01466
      0.02173      0.01466      2.08896
  FORCES: max atom, RMS     0.006831    0.001578
  FORCE total and by dimension    0.009853    0.005270
  Stress total and by dimension   33.644136   23.750004
     LOOP+:  cpu time  288.8232: real time  288.8436
 -----------------------------------------------------------------------------
|                                                                             |
|           W    W    AA    RRRRR   N    N  II  N    N   GGGG   !!!           |
|           W    W   A  A   R    R  NN   N  II  NN   N  G    G  !!!           |
|           W    W  A    A  R    R  N N  N  II  N N  N  G       !!!           |
|           W WW W  AAAAAA  RRRRR   N  N N  II  N  N N  G  GGG   !            |
|           WW  WW  A    A  R   R   N   NN  II  N   NN  G    G                |
|           W    W  A    A  R    R  N    N  II  N    N   GGGG   !!!           |
|                                                                             |
|     Tetrahedron method does not include variations of the Fermi             |
|     occupations, so forces and stress will be inaccurate. We suggest        |
|     using a different smearing scheme ISMEAR = 1 or 2 for metals in         |
|     relaxations.                                                            |
|                                                                             |
 -----------------------------------------------------------------------------

    4ORBIT:  cpu time    0.0000: real time    0.0000



 total charge

# of ion       s       p       d       tot
------------------------------------------
    1        0.548   0.239   8.765   9.551
    2        0.543   0.241   8.765   9.549
    3        0.543   0.241   8.765   9.549
    4        0.543   0.241   8.765   9.549
    5        0.545   0.241   8.762   9.547
    6        0.543   0.241   8.765   9.549
    7        0.543   0.241   8.765   9.549
    8        0.543   0.241   8.765   9.549
    9        0.543   0.239   8.768   9.550
   10        0.526   0.308   8.767   9.601
   11        0.521   0.308   8.781   9.610
   12        0.526   0.308   8.767   9.601
   13        0.521   0.308   8.781   9.610
   14        0.521   0.308   8.781   9.610
   15        0.517   0.309   8.775   9.601
   16        0.526   0.308   8.767   9.601
   17        0.517   0.309   8.775   9.601
   18        0.517   0.309   8.775   9.601
   19        0.517   0.300   8.774   9.591
   20        0.557   0.338   8.741   9.635
   21        0.557   0.338   8.741   9.635
   22        0.509   0.309   8.778   9.596
   23        0.557   0.338   8.741   9.635
   24        0.509   0.309   8.778   9.596
   25        0.517   0.299   8.774   9.591
   26        0.517   0.299   8.774   9.591
   27        0.510   0.309   8.778   9.597
   28        0.539   0.224   8.758   9.521
   29        0.571   0.245   8.740   9.556
   30        0.571   0.245   8.740   9.556
   31        0.570   0.244   8.740   9.554
   32        0.570   0.244   8.740   9.554
   33        0.571   0.245   8.740   9.556
   34        0.571   0.245   8.739   9.556
   35        0.535   0.223   8.762   9.520
   36        0.349   0.318   4.142   4.809
   37        0.933   1.801   0.000   2.734
   38        1.607   3.529   0.000   5.136
   39        1.607   3.529   0.000   5.136
--------------------------------------------------
tot         23.333  18.866 310.836 353.035
 
 BZINTS: Fermi energy:    0.294622;  407.000000 electrons
         Band energy:-0.150013E+04;  BLOECHL correction:   -0.028152

 total amount of memory used by VASP MPI-rank0   277426. kBytes
=======================================================================

   base      :      30000. kBytes
   nonlr-proj:      14012. kBytes
   fftplans  :       4808. kBytes
   grid      :      20723. kBytes
   one-center:        606. kBytes
   wavefun   :     207277. kBytes
 
  
  
 General timing and accounting informations for this job:
 ========================================================
  
                  Total CPU time used (sec):      312.010
                            User time (sec):      301.378
                          System time (sec):       10.632
                         Elapsed time (sec):      312.445
  
                   Maximum memory used (kb):      577072.
                   Average memory used (kb):          N/A
  
                          Minor page faults:       127716
                          Major page faults:            0
                 Voluntary context switches:         7643
