PROCAR new format
# of k-points:   10         # of bands:  252         # of ions:   37

 k-point     1 :    0.00000000 0.00000000 0.00000000     weight = 0.01562500

band     1 # energy  -16.00867115 # occ.  2.00000000
 
ion      s      p      d    tot
    1  0.000  0.000  0.000  0.000
    2  0.000  0.000  0.000  0.000
    3  0.000  0.000  0.000  0.000
    4  0.000  0.000  0.000  0.000
    5  0.000  0.000  0.000  0.000
    6  0.000  0.000  0.000  0.000
    7  0.000  0.000  0.000  0.000
    8  0.000  0.000  0.000  0.000
    9  0.000  0.000  0.000  0.000
   10  0.000  0.000  0.000  0.000
   11  0.000  0.000  0.000  0.000
   12  0.000  0.000  0.000  0.000
   13  0.000  0.000  0.000  0.000
   14  0.000  0.000  0.000  0.000
   15  0.000  0.000  0.000  0.000
   16  0.000  0.000  0.000  0.000
   17  0.000  0.000  0.000  0.000
   18  0.000  0.000  0.000  0.000
   19  0.000  0.000  0.000  0.000
   20  0.000  0.000  0.000  0.000
   21  0.000  0.000  0.000  0.000
   22  0.000  0.000  0.000  0.000
   23  0.000  0.000  0.000  0.000
   24  0.000  0.000  0.000  0.000
   25  0.000  0.000  0.000  0.000
   26  0.000  0.000  0.000  0.000
   27  0.000  0.000  0.000  0.000
   28  0.000  0.000  0.000  0.000
   29  0.000  0.000  0.000  0.000
   30  0.000  0.000  0.000  0.000
   31  0.000  0.000  0.000  0.000
   32  0.000  0.000  0.000  0.000
   33  0.000  0.000  0.000  0.000
   34  0.000  0.000  0.000  0.000
   35  0.000  0.000  0.000  0.000
   36  0.045  0.059  0.117  0.222
   37  0.776  0.008  0.000  0.784
tot    0.822  0.067  0.118  1.007
 
band     2 # energy   -6.45660739 # occ.  2.00000000
 
ion      s      p      d    tot
    1  0.005  0.001  0.000  0.006
    2  0.005  0.001  0.000  0.006
    3  0.005  0.001  0.000  0.006
    4  0.005  0.001  0.000  0.006
    5  0.005  0.001  0.000  0.006
    6  0.005  0.001  0.000  0.006
    7  0.005  0.001  0.000  0.006
    8  0.005  0.001  0.000  0.006
    9  0.005  0.000  0.000  0.005
   10  0.022  0.000  0.000  0.022
   11  0.022  0.000  0.000  0.023
   12  0.022  0.000  0.000  0.022
   13  0.022  0.000  0.000  0.023
   14  0.022  0.000  0.000  0.023
   15  0.020  0.000  0.000  0.021
   16  0.022  0.000  0.000  0.022
   17  0.020  0.000  0.000  0.021
   18  0.020  0.000  0.000  0.021
   19  0.022  0.000  0.001  0.023
   20  0.029  0.000  0.001  0.029
   21  0.029  0.000  0.001  0.029
   22  0.022  0.000  0.000  0.023
   23  0.029  0.000  0.001  0.029
   24  0.022  0.000  0.000  0.023
   25  0.022  0.000  0.001  0.023
   26  0.022  0.000  0.001  0.023
   27  0.022  0.000  0.000  0.023
   28  0.006  0.001  0.000  0.007
   29  0.007  0.001  0.000  0.008
   30  0.007  0.001  0.000  0.008
   31  0.007  0.001  0.000  0.008
   32  0.007  0.001  0.000  0.008
   33  0.007  0.001  0.000  0.008
   34  0.007  0.001  0.000  0.008
   35  0.006  0.000  0.000  0.006
   36  0.015  0.003  0.000  0.017
   37  0.001  0.001  0.000  0.001
tot    0.526  0.015  0.008  0.549
 
band     3 # energy   -5.60265033 # occ.  2.00000000
 
ion      s      p      d    tot
    1  0.008  0.000  0.000  0.009
    2  0.009  0.000  0.000  0.010
    3  0.009  0.000  0.000  0.010
    4  0.009  0.000  0.000  0.010
    5  0.009  0.000  0.000  0.010
    6  0.009  0.000  0.000  0.010
    7  0.009  0.000  0.000  0.010
    8  0.009  0.000  0.000  0.010
    9  0.010  0.001  0.000  0.010
   10  0.013  0.001  0.015  0.028
   11  0.013  0.001  0.013  0.027
   12  0.013  0.001  0.015  0.028
   13  0.013  0.001  0.013  0.027
   14  0.013  0.001  0.013  0.027
   15  0.014  0.001  0.010  0.025
   16  0.013  0.001  0.015  0.028
   17  0.014  0.001  0.010  0.025
   18  0.014  0.001  0.010  0.025
   19  0.007  0.001  0.012  0.020
   20  0.013  0.002  0.016  0.031
   21  0.013  0.002  0.016  0.031
   22  0.007  0.001  0.011  0.018
   23  0.013  0.002  0.016  0.031
   24  0.007  0.001  0.011  0.018
   25  0.007  0.001  0.012  0.020
   26  0.007  0.001  0.012  0.020
   27  0.007  0.001  0.011  0.018
   28  0.007  0.000  0.001  0.009
   29  0.009  0.000  0.002  0.011
   30  0.009  0.000  0.002  0.011
   31  0.009  0.000  0.002  0.011
   32  0.009  0.000  0.002  0.011
   33  0.009  0.000  0.002  0.011
   34  0.009  0.000  0.002  0.011
   35  0.006  0.000  0.001  0.007
   36  0.022  0.002  0.000  0.024
   37  0.001  0.001  0.000  0.002
tot    0.368  0.029  0.249  0.646
 
band     4 # energy   -5.37280352 # occ.  2.00000000
 
ion      s      p      d    tot
    1  0.002  0.000  0.008  0.009
    2  0.003  0.000  0.004  0.007
    3  0.003  0.000  0.004  0.007
    4  0.003  0.000  0.004  0.007
    5  0.003  0.000  0.002  0.005
    6  0.003  0.000  0.004  0.007
    7  0.003  0.000  0.004  0.007
    8  0.003  0.000  0.004  0.007
    9  0.004  0.000  0.003  0.007
   10  0.000  0.000  0.015  0.015
   11  0.000  0.000  0.012  0.013
   12  0.000  0.000  0.015  0.015
   13  0.000  0.000  0.012  0.013
   14  0.000  0.000  0.012  0.013
   15  0.000  0.000  0.006  0.006
   16  0.000  0.000  0.015  0.015
   17  0.000  0.000  0.006  0.006
   18  0.000  0.000  0.006  0.006
   19  0.004  0.000  0.018  0.021
   20  0.000  0.001  0.065  0.066
   21  0.000  0.001  0.065  0.066
   22  0.002  0.000  0.014  0.017
   23  0.000  0.001  0.065  0.066
   24  0.002  0.000  0.014  0.017
   25  0.004  0.000  0.018  0.021
   26  0.004  0.000  0.018  0.021
   27  0.002  0.000  0.014  0.017
   28  0.005  0.000  0.015  0.021
   29  0.011  0.000  0.029  0.040
   30  0.011  0.000  0.029  0.040
   31  0.011  0.000  0.029  0.040
   32  0.011  0.000  0.029  0.040
   33  0.011  0.000  0.029  0.040
   34  0.011  0.000  0.029  0.040
   35  0.007  0.000  0.016  0.023
   36  0.036  0.001  0.012  0.048
   37  0.001  0.000  0.000  0.001
tot    0.163  0.006  0.642  0.811
 
band     5 # energy   -5.25259284 # occ.  2.00000000
 
ion      s      p      d    tot
    1  0.006  0.001  0.000  0.007
    2  0.000  0.000  0.004  0.004
    3  0.000  0.000  0.004  0.004
    4  0.000  0.000  0.004  0.004
    5  0.000  0.000  0.001  0.001
    6  0.000  0.000  0.004  0.004
    7  0.000  0.000  0.004  0.004
    8  0.000  0.000  0.004  0.004
    9  0.000  0.000  0.000  0.001
   10  0.005  0.000  0.021  0.026
   11  0.000  0.000  0.013  0.013
   12  0.005  0.000  0.021  0.026
   13  0.000  0.000  0.013  0.013
   14  0.000  0.000  0.013  0.013
   15  0.002  0.001  0.003  0.006
   16  0.005  0.000  0.021  0.026
   17  0.002  0.001  0.003  0.006
   18  0.002  0.001  0.003  0.006
   19  0.000  0.001  0.036  0.037
   20  0.005  0.000  0.134  0.139
   21  0.005  0.000  0.134  0.139
   22  0.016  0.000  0.006  0.023
   23  0.005  0.000  0.134  0.139
   24  0.016  0.000  0.006  0.023
   25  0.000  0.001  0.036  0.037
   26  0.000  0.001  0.036  0.037
   27  0.016  0.000  0.006  0.023
   28  0.001  0.000  0.000  0.001
   29  0.001  0.000  0.004  0.005
   30  0.001  0.000  0.004  0.005
   31  0.001  0.000  0.004  0.005
   32  0.001  0.000  0.004  0.005
   33  0.001  0.000  0.004  0.005
   34  0.001  0.000  0.004  0.005
   35  0.008  0.001  0.001  0.010
   36  0.008  0.004  0.009  0.021
   37  0.001  0.004  0.000  0.005
tot    0.117  0.019  0.692  0.828
 
band     6 # energy   -5.20984138 # occ.  2.00000000
 
ion      s      p      d    tot
    1  0.000  0.000  0.006  0.006
    2  0.000  0.000  0.002  0.002
    3  0.000  0.000  0.002  0.002
    4  0.000  0.000  0.002  0.002
    5  0.000  0.000  0.004  0.004
    6  0.001  0.000  0.002  0.003
    7  0.000  0.000  0.002  0.002
    8  0.001  0.000  0.002  0.003
    9  0.000  0.000  0.001  0.001
   10  0.005  0.001  0.014  0.019
   11  0.000  0.000  0.021  0.022
   12  0.001  0.001  0.018  0.019
   13  0.000  0.000  0.021  0.021
   14  0.001  0.000  0.022  0.022
   15  0.001  0.000  0.007  0.008
   16  0.002  0.001  0.017  0.019
   17  0.000  0.000  0.006  0.006
   18  0.002  0.000  0.008  0.011
   19  0.008  0.001  0.030  0.038
   20  0.025  0.000  0.012  0.037
   21  0.004  0.000  0.174  0.178
   22  0.000  0.001  0.041  0.042
   23  0.010  0.000  0.128  0.138
   24  0.000  0.000  0.033  0.034
   25  0.020  0.000  0.042  0.063
   26  0.003  0.001  0.025  0.029
   27  0.000  0.001  0.039  0.040
   28  0.000  0.000  0.005  0.005
   29  0.001  0.000  0.004  0.005
   30  0.000  0.000  0.009  0.009
   31  0.001  0.000  0.004  0.006
   32  0.000  0.000  0.007  0.007
   33  0.001  0.000  0.008  0.009
   34  0.000  0.000  0.006  0.006
   35  0.000  0.000  0.000  0.000
   36  0.000  0.001  0.006  0.007
   37  0.000  0.000  0.000  0.000
tot    0.086  0.013  0.726  0.825
 
band     7 # energy   -5.20983786 # occ.  2.00000000
 
ion      s      p      d    tot
    1  0.000  0.000  0.006  0.006
    2  0.001  0.000  0.002  0.002
    3  0.000  0.000  0.002  0.002
    4  0.001  0.000  0.002  0.003
    5  0.000  0.000  0.004  0.004
    6  0.000  0.000  0.002  0.002
    7  0.001  0.000  0.002  0.002
    8  0.000  0.000  0.002  0.002
    9  0.000  0.000  0.001  0.001
   10  0.000  0.001  0.018  0.019
   11  0.000  0.000  0.021  0.022
   12  0.004  0.001  0.014  0.019
   13  0.000  0.000  0.022  0.022
   14  0.000  0.000  0.021  0.021
   15  0.002  0.000  0.007  0.009
   16  0.003  0.001  0.015  0.019
   17  0.002  0.000  0.008  0.010
   18  0.000  0.000  0.006  0.006
   19  0.013  0.001  0.035  0.048
   20  0.000  0.000  0.197  0.198
   21  0.022  0.000  0.035  0.057
   22  0.000  0.001  0.034  0.035
   23  0.016  0.000  0.081  0.097
   24  0.000  0.001  0.042  0.043
   25  0.000  0.001  0.022  0.024
   26  0.017  0.000  0.040  0.058
   27  0.000  0.001  0.037  0.037
   28  0.000  0.000  0.005  0.005
   29  0.000  0.000  0.009  0.009
   30  0.001  0.000  0.004  0.005
   31  0.000  0.000  0.008  0.008
   32  0.001  0.001  0.005  0.007
   33  0.000  0.000  0.004  0.005
   34  0.001  0.001  0.007  0.008
   35  0.000  0.000  0.000  0.000
   36  0.000  0.001  0.006  0.007
   37  0.000  0.000  0.000  0.000
tot    0.086  0.013  0.726  0.825
 
band     8 # energy   -5.18032550 # occ.  2.00000000
 
ion      s      p      d    tot
    1  0.014  0.000  0.004  0.019
    2  0.008  0.000  0.018  0.026
    3  0.008  0.000  0.018  0.026
    4  0.008  0.000  0.018  0.026
    5  0.010  0.000  0.030  0.040
    6  0.008  0.000  0.018  0.026
    7  0.008  0.000  0.018  0.026
    8  0.008  0.000  0.018  0.026
    9  0.003  0.000  0.017  0.021
   10  0.000  0.001  0.019  0.020
   11  0.002  0.000  0.047  0.049
   12  0.000  0.001  0.019  0.020
   13  0.002  0.000  0.047  0.049
   14  0.002  0.000  0.047  0.049
   15  0.004  0.000  0.021  0.025
   16  0.000  0.001  0.019  0.020
   17  0.004  0.000  0.021  0.025
   18  0.004  0.000  0.021  0.025
   19  0.003  0.000  0.003  0.006
   20  0.000  0.000  0.045  0.045
   21  0.000  0.000  0.045  0.045
   22  0.000  0.000  0.014  0.014
   23  0.000  0.000  0.045  0.045
   24  0.000  0.000  0.014  0.014
   25  0.003  0.000  0.003  0.006
   26  0.003  0.000  0.003  0.006
   27  0.000  0.000  0.014  0.014
   28  0.003  0.000  0.000  0.004
   29  0.000  0.000  0.014  0.014
   30  0.000  0.000  0.014  0.014
   31  0.000  0.000  0.014  0.014
   32  0.000  0.000  0.014  0.014
   33  0.000  0.000  0.014  0.014
   34  0.000  0.000  0.014  0.014
   35  0.000  0.000  0.001  0.002
   36  0.009  0.001  0.001  0.011
   37  0.000  0.000  0.000  0.000
tot    0.115  0.008  0.692  0.815
 
band     9 # energy   -5.16496937 # occ.  2.00000000
 
ion      s      p      d    tot
    1  0.000  0.000  0.004  0.004
    2  0.000  0.000  0.002  0.002
    3  0.001  0.000  0.006  0.007
    4  0.000  0.000  0.002  0.002
    5  0.000  0.000  0.008  0.009
    6  0.001  0.001  0.005  0.007
    7  0.001  0.000  0.006  0.007
    8  0.001  0.001  0.005  0.006
    9  0.000  0.000  0.001  0.001
   10  0.007  0.001  0.017  0.024
   11  0.008  0.001  0.067  0.076
   12  0.002  0.000  0.068  0.070
   13  0.008  0.001  0.068  0.077
   14  0.031  0.001  0.014  0.046
   15  0.002  0.001  0.013  0.016
   16  0.002  0.000  0.067  0.069
   17  0.002  0.001  0.013  0.016
   18  0.007  0.000  0.034  0.041
   19  0.000  0.000  0.024  0.025
   20  0.013  0.000  0.049  0.062
   21  0.003  0.001  0.035  0.039
   22  0.003  0.000  0.027  0.030
   23  0.003  0.001  0.035  0.039
   24  0.013  0.001  0.007  0.021
   25  0.000  0.000  0.014  0.014
   26  0.000  0.000  0.025  0.025
   27  0.003  0.000  0.026  0.030
   28  0.000  0.000  0.001  0.001
   29  0.002  0.000  0.006  0.008
   30  0.001  0.000  0.004  0.005
   31  0.002  0.000  0.006  0.008
   32  0.000  0.000  0.003  0.003
   33  0.001  0.000  0.004  0.005
   34  0.000  0.000  0.003  0.003
   35  0.000  0.000  0.007  0.007
   36  0.000  0.000  0.004  0.004
   37  0.000  0.000  0.000  0.000
tot    0.117  0.016  0.676  0.808
 
band    10 # energy   -5.16496304 # occ.  2.00000000
 
ion      s      p      d    tot
    1  0.000  0.000  0.004  0.004
    2  0.001  0.001  0.006  0.008
    3  0.001  0.000  0.002  0.003
    4  0.001  0.001  0.006  0.008
    5  0.000  0.000  0.008  0.009
    6  0.000  0.000  0.003  0.004
    7  0.001  0.000  0.003  0.003
    8  0.000  0.000  0.004  0.004
    9  0.000  0.000  0.001  0.001
   10  0.000  0.000  0.084  0.085
   11  0.023  0.001  0.032  0.056
   12  0.005  0.001  0.033  0.039
   13  0.024  0.001  0.031  0.056
   14  0.000  0.001  0.085  0.086
   15  0.005  0.000  0.027  0.032
   16  0.005  0.001  0.034  0.039
   17  0.005  0.000  0.027  0.033
   18  0.000  0.002  0.006  0.007
   19  0.000  0.000  0.017  0.018
   20  0.000  0.001  0.030  0.031
   21  0.010  0.001  0.044  0.055
   22  0.010  0.001  0.014  0.024
   23  0.010  0.001  0.044  0.054
   24  0.000  0.000  0.033  0.033
   25  0.000  0.000  0.028  0.029
   26  0.000  0.000  0.017  0.018
   27  0.009  0.001  0.014  0.024
   28  0.000  0.000  0.001  0.001
   29  0.000  0.000  0.003  0.003
   30  0.001  0.000  0.005  0.006
   31  0.000  0.000  0.003  0.003
   32  0.002  0.000  0.006  0.008
   33  0.001  0.000  0.004  0.006
   34  0.002  0.000  0.006  0.008
   35  0.000  0.000  0.007  0.007
   36  0.000  0.000  0.004  0.004
   37  0.000  0.000  0.000  0.000
tot    0.117  0.016  0.676  0.808
 
band    11 # energy   -5.14841521 # occ.  2.00000000
 
ion      s      p      d    tot
    1  0.000  0.000  0.001  0.001
    2  0.000  0.000  0.007  0.007
    3  0.000  0.000  0.007  0.007
    4  0.000  0.000  0.007  0.007
    5  0.006  0.001  0.000  0.007
    6  0.000  0.000  0.007  0.007
    7  0.000  0.000  0.007  0.007
    8  0.000  0.000  0.007  0.007
    9  0.000  0.000  0.008  0.008
   10  0.007  0.001  0.009  0.017
   11  0.013  0.001  0.034  0.048
   12  0.007  0.001  0.009  0.017
   13  0.013  0.001  0.034  0.048
   14  0.013  0.001  0.033  0.047
   15  0.002  0.000  0.046  0.049
   16  0.007  0.001  0.009  0.017
   17  0.002  0.000  0.046  0.049
   18  0.002  0.000  0.046  0.049
   19  0.012  0.001  0.028  0.041
   20  0.006  0.001  0.024  0.032
   21  0.006  0.001  0.024  0.032
   22  0.000  0.000  0.037  0.037
   23  0.006  0.001  0.024  0.032
   24  0.000  0.000  0.037  0.037
   25  0.012  0.001  0.028  0.041
   26  0.012  0.001  0.028  0.041
   27  0.000  0.000  0.037  0.037
   28  0.004  0.001  0.002  0.007
   29  0.000  0.000  0.008  0.009
   30  0.000  0.000  0.008  0.009
   31  0.000  0.000  0.008  0.009
   32  0.000  0.000  0.008  0.009
   33  0.000  0.000  0.008  0.009
   34  0.000  0.000  0.008  0.009
   35  0.001  0.000  0.001  0.002
   36  0.001  0.000  0.000  0.001
   37  0.000  0.000  0.000  0.000
tot    0.139  0.019  0.634  0.791
 
band    12 # energy   -5.13304350 # occ.  2.00000000
 
ion      s      p      d    tot
    1  0.004  0.000  0.031  0.035
    2  0.007  0.000  0.018  0.025
    3  0.007  0.000  0.018  0.025
    4  0.007  0.000  0.018  0.025
    5  0.004  0.000  0.008  0.012
    6  0.007  0.000  0.018  0.025
    7  0.007  0.000  0.018  0.025
    8  0.007  0.000  0.018  0.025
    9  0.016  0.000  0.013  0.029
   10  0.004  0.000  0.028  0.032
   11  0.002  0.000  0.017  0.020
   12  0.004  0.000  0.028  0.032
   13  0.002  0.000  0.017  0.020
   14  0.002  0.000  0.017  0.020
   15  0.000  0.000  0.012  0.012
   16  0.004  0.000  0.028  0.032
   17  0.000  0.000  0.012  0.012
   18  0.000  0.000  0.012  0.012
   19  0.000  0.000  0.008  0.009
   20  0.004  0.000  0.016  0.020
   21  0.004  0.000  0.016  0.020
   22  0.002  0.000  0.026  0.028
   23  0.004  0.000  0.016  0.020
   24  0.002  0.000  0.026  0.028
   25  0.000  0.000  0.008  0.009
   26  0.000  0.000  0.008  0.009
   27  0.002  0.000  0.026  0.028
   28  0.014  0.000  0.008  0.023
   29  0.005  0.000  0.019  0.024
   30  0.005  0.000  0.019  0.024
   31  0.005  0.000  0.019  0.024
   32  0.005  0.000  0.019  0.024
   33  0.005  0.000  0.019  0.024
   34  0.005  0.000  0.019  0.024
   35  0.005  0.000  0.024  0.030
   36  0.000  0.001  0.003  0.003
   37  0.000  0.000  0.000  0.000
tot    0.153  0.009  0.628  0.790
 
band    13 # energy   -5.11864425 # occ.  2.00000000
 
ion      s      p      d    tot
    1  0.000  0.001  0.008  0.008
    2  0.004  0.001  0.005  0.010
    3  0.002  0.000  0.004  0.007
    4  0.004  0.001  0.005  0.010
    5  0.000  0.000  0.008  0.008
    6  0.001  0.000  0.007  0.008
    7  0.001  0.000  0.005  0.006
    8  0.000  0.000  0.006  0.007
    9  0.000  0.000  0.011  0.011
   10  0.017  0.000  0.011  0.028
   11  0.000  0.000  0.012  0.013
   12  0.006  0.000  0.032  0.038
   13  0.001  0.000  0.014  0.015
   14  0.002  0.000  0.022  0.023
   15  0.001  0.000  0.039  0.040
   16  0.003  0.000  0.037  0.040
   17  0.002  0.000  0.034  0.037
   18  0.007  0.000  0.016  0.023
   19  0.002  0.000  0.071  0.073
   20  0.001  0.000  0.050  0.052
   21  0.000  0.001  0.031  0.032
   22  0.006  0.000  0.042  0.048
   23  0.000  0.001  0.027  0.027
   24  0.018  0.000  0.014  0.032
   25  0.010  0.000  0.010  0.020
   26  0.003  0.000  0.059  0.063
   27  0.003  0.000  0.049  0.052
   28  0.000  0.000  0.010  0.011
   29  0.000  0.000  0.010  0.010
   30  0.002  0.000  0.005  0.007
   31  0.001  0.000  0.011  0.011
   32  0.004  0.001  0.009  0.014
   33  0.003  0.000  0.004  0.008
   34  0.005  0.001  0.008  0.013
   35  0.000  0.000  0.005  0.006
   36  0.000  0.000  0.003  0.004
   37  0.000  0.000  0.000  0.000
tot    0.110  0.013  0.693  0.815
 
band    14 # energy   -5.11863934 # occ.  2.00000000
 
ion      s      p      d    tot
    1  0.000  0.001  0.007  0.008
    2  0.000  0.000  0.006  0.006
    3  0.002  0.001  0.006  0.009
    4  0.000  0.000  0.005  0.006
    5  0.000  0.000  0.008  0.008
    6  0.003  0.001  0.004  0.008
    7  0.003  0.001  0.006  0.010
    8  0.004  0.001  0.004  0.009
    9  0.000  0.000  0.011  0.011
   10  0.000  0.000  0.042  0.043
   11  0.001  0.000  0.020  0.021
   12  0.011  0.000  0.021  0.033
   13  0.001  0.000  0.018  0.019
   14  0.000  0.000  0.011  0.011
   15  0.006  0.000  0.020  0.027
   16  0.014  0.000  0.016  0.030
   17  0.005  0.000  0.025  0.030
   18  0.000  0.000  0.043  0.044
   19  0.009  0.000  0.022  0.031
   20  0.000  0.001  0.022  0.023
   21  0.001  0.001  0.041  0.042
   22  0.012  0.000  0.028  0.040
   23  0.001  0.000  0.045  0.047
   24  0.000  0.000  0.056  0.056
   25  0.000  0.000  0.084  0.084
   26  0.007  0.000  0.034  0.041
   27  0.015  0.000  0.021  0.036
   28  0.000  0.000  0.010  0.011
   29  0.005  0.001  0.006  0.011
   30  0.003  0.001  0.011  0.014
   31  0.004  0.001  0.005  0.010
   32  0.001  0.000  0.006  0.007
   33  0.002  0.001  0.011  0.014
   34  0.000  0.000  0.008  0.008
   35  0.000  0.000  0.005  0.006
   36  0.000  0.000  0.003  0.004
   37  0.000  0.000  0.000  0.000
tot    0.110  0.013  0.693  0.815
 
band    15 # energy   -5.11450444 # occ.  2.00000000
 
ion      s      p      d    tot
    1  0.001  0.000  0.005  0.006
    2  0.000  0.000  0.005  0.005
    3  0.000  0.000  0.005  0.005
    4  0.000  0.000  0.005  0.005
    5  0.000  0.000  0.000  0.000
    6  0.000  0.000  0.005  0.005
    7  0.000  0.000  0.005  0.005
    8  0.000  0.000  0.005  0.005
    9  0.000  0.000  0.006  0.006
   10  0.000  0.000  0.059  0.059
   11  0.002  0.000  0.006  0.008
   12  0.000  0.000  0.059  0.059
   13  0.002  0.000  0.006  0.008
   14  0.002  0.000  0.006  0.008
   15  0.006  0.000  0.045  0.050
   16  0.000  0.000  0.059  0.059
   17  0.006  0.000  0.045  0.050
   18  0.006  0.000  0.045  0.050
   19  0.004  0.000  0.047  0.052
   20  0.000  0.001  0.016  0.017
   21  0.000  0.001  0.016  0.017
   22  0.000  0.000  0.048  0.048
   23  0.000  0.001  0.016  0.017
   24  0.000  0.000  0.048  0.048
   25  0.004  0.000  0.047  0.052
   26  0.004  0.000  0.047  0.052
   27  0.000  0.000  0.048  0.048
   28  0.000  0.000  0.011  0.012
   29  0.000  0.000  0.014  0.014
   30  0.000  0.000  0.014  0.014
   31  0.000  0.000  0.014  0.014
   32  0.000  0.000  0.014  0.014
   33  0.000  0.000  0.014  0.014
   34  0.000  0.000  0.014  0.014
   35  0.002  0.000  0.003  0.005
   36  0.002  0.000  0.000  0.002
   37  0.000  0.000  0.000  0.000
tot    0.042  0.008  0.801  0.851
 
band    16 # energy   -5.10290016 # occ.  2.00000000
 
ion      s      p      d    tot
    1  0.000  0.000  0.007  0.008
    2  0.000  0.000  0.009  0.009
    3  0.001  0.000  0.006  0.007
    4  0.000  0.000  0.009  0.009
    5  0.000  0.000  0.001  0.001
    6  0.001  0.000  0.005  0.006
    7  0.001  0.000  0.005  0.007
    8  0.001  0.000  0.004  0.005
    9  0.000  0.000  0.012  0.012
   10  0.007  0.000  0.046  0.052
   11  0.000  0.000  0.055  0.056
   12  0.002  0.000  0.022  0.025
   13  0.000  0.000  0.051  0.051
   14  0.001  0.000  0.022  0.023
   15  0.003  0.000  0.091  0.093
   16  0.001  0.000  0.019  0.020
   17  0.004  0.000  0.080  0.084
   18  0.014  0.000  0.014  0.028
   19  0.000  0.000  0.049  0.050
   20  0.000  0.000  0.037  0.037
   21  0.000  0.000  0.016  0.016
   22  0.000  0.000  0.033  0.033
   23  0.000  0.000  0.013  0.013
   24  0.001  0.000  0.033  0.034
   25  0.001  0.000  0.011  0.012
   26  0.000  0.000  0.044  0.045
   27  0.000  0.000  0.033  0.033
   28  0.000  0.000  0.012  0.012
   29  0.002  0.000  0.007  0.010
   30  0.001  0.000  0.006  0.006
   31  0.002  0.000  0.008  0.010
   32  0.001  0.000  0.008  0.008
   33  0.000  0.000  0.006  0.006
   34  0.000  0.000  0.007  0.008
   35  0.000  0.000  0.015  0.015
   36  0.000  0.000  0.000  0.001
   37  0.000  0.000  0.000  0.000
tot    0.046  0.007  0.794  0.848
 
band    17 # energy   -5.10288819 # occ.  2.00000000
 
ion      s      p      d    tot
    1  0.000  0.000  0.007  0.008
    2  0.001  0.000  0.003  0.005
    3  0.000  0.000  0.007  0.007
    4  0.001  0.000  0.004  0.005
    5  0.000  0.000  0.001  0.001
    6  0.000  0.000  0.008  0.009
    7  0.000  0.000  0.007  0.008
    8  0.000  0.000  0.008  0.009
    9  0.000  0.000  0.012  0.012
   10  0.000  0.001  0.012  0.013
   11  0.001  0.000  0.030  0.031
   12  0.005  0.000  0.035  0.040
   13  0.001  0.000  0.034  0.036
   14  0.000  0.000  0.064  0.064
   15  0.011  0.000  0.033  0.044
   16  0.005  0.000  0.039  0.045
   17  0.009  0.000  0.043  0.053
   18  0.000  0.000  0.109  0.109
   19  0.001  0.000  0.020  0.021
   20  0.000  0.000  0.007  0.007
   21  0.000  0.000  0.028  0.028
   22  0.001  0.000  0.033  0.034
   23  0.000  0.000  0.031  0.031
   24  0.000  0.000  0.033  0.033
   25  0.000  0.000  0.059  0.059
   26  0.001  0.000  0.025  0.026
   27  0.001  0.000  0.033  0.034
   28  0.000  0.000  0.012  0.012
   29  0.000  0.000  0.006  0.006
   30  0.002  0.000  0.008  0.010
   31  0.000  0.000  0.006  0.006
   32  0.001  0.000  0.006  0.008
   33  0.002  0.000  0.008  0.010
   34  0.002  0.000  0.006  0.008
   35  0.000  0.000  0.015  0.015
   36  0.000  0.000  0.000  0.001
   37  0.000  0.000  0.000  0.000
tot    0.046  0.007  0.794  0.848
 
band    18 # energy   -4.99887747 # occ.  2.00000000
 
ion      s      p      d    tot
    1  0.000  0.000  0.001  0.001
    2  0.001  0.000  0.005  0.007
    3  0.000  0.000  0.006  0.006
    4  0.001  0.000  0.005  0.007
    5  0.000  0.001  0.014  0.015
    6  0.001  0.000  0.005  0.006
    7  0.000  0.000  0.006  0.006
    8  0.001  0.000  0.005  0.006
    9  0.000  0.000  0.008  0.008
   10  0.001  0.001  0.020  0.022
   11  0.001  0.000  0.066  0.067
   12  0.000  0.000  0.017  0.018
   13  0.001  0.000  0.067  0.068
   14  0.003  0.000  0.045  0.048
   15  0.001  0.000  0.011  0.012
   16  0.000  0.000  0.017  0.018
   17  0.001  0.000  0.010  0.011
   18  0.003  0.001  0.021  0.025
   19  0.000  0.000  0.008  0.008
   20  0.003  0.000  0.080  0.083
   21  0.001  0.000  0.116  0.117
   22  0.000  0.000  0.029  0.030
   23  0.001  0.000  0.114  0.115
   24  0.000  0.001  0.022  0.023
   25  0.001  0.001  0.026  0.028
   26  0.000  0.000  0.007  0.007
   27  0.000  0.000  0.029  0.029
   28  0.000  0.000  0.004  0.004
   29  0.001  0.000  0.007  0.008
   30  0.000  0.000  0.010  0.010
   31  0.001  0.000  0.007  0.008
   32  0.001  0.001  0.010  0.012
   33  0.000  0.000  0.010  0.010
   34  0.001  0.001  0.010  0.012
   35  0.000  0.000  0.001  0.001
   36  0.000  0.003  0.008  0.011
   37  0.000  0.001  0.000  0.001
tot    0.025  0.017  0.826  0.868
 
band    19 # energy   -4.99886912 # occ.  2.00000000
 
ion      s      p      d    tot
    1  0.000  0.000  0.001  0.001
    2  0.000  0.000  0.005  0.006
    3  0.001  0.001  0.005  0.007
    4  0.000  0.000  0.005  0.006
    5  0.000  0.001  0.014  0.015
    6  0.000  0.000  0.006  0.006
    7  0.001  0.001  0.005  0.006
    8  0.000  0.000  0.006  0.006
    9  0.000  0.000  0.008  0.008
   10  0.000  0.000  0.016  0.017
   11  0.002  0.000  0.053  0.055
   12  0.001  0.001  0.019  0.021
   13  0.002  0.000  0.051  0.054
   14  0.000  0.001  0.073  0.074
   15  0.002  0.000  0.017  0.020
   16  0.001  0.001  0.019  0.021
   17  0.002  0.000  0.018  0.021
   18  0.000  0.000  0.007  0.007
   19  0.001  0.001  0.019  0.020
   20  0.000  0.000  0.127  0.127
   21  0.002  0.000  0.091  0.093
   22  0.000  0.001  0.024  0.025
   23  0.002  0.000  0.093  0.095
   24  0.000  0.000  0.031  0.032
   25  0.000  0.000  0.001  0.001
   26  0.001  0.001  0.020  0.021
   27  0.000  0.001  0.024  0.025
   28  0.000  0.000  0.004  0.004
   29  0.001  0.001  0.011  0.012
   30  0.001  0.001  0.008  0.010
   31  0.001  0.001  0.011  0.012
   32  0.000  0.000  0.008  0.008
   33  0.001  0.001  0.008  0.010
   34  0.000  0.000  0.008  0.008
   35  0.000  0.000  0.001  0.001
   36  0.000  0.003  0.008  0.011
   37  0.000  0.001  0.000  0.001
tot    0.025  0.017  0.826  0.868
 
band    20 # energy   -4.98778887 # occ.  2.00000000
 
ion      s      p      d    tot
    1  0.000  0.000  0.000  0.000
    2  0.000  0.000  0.003  0.003
    3  0.000  0.000  0.003  0.003
    4  0.000  0.000  0.003  0.003
    5  0.001  0.001  0.017  0.018
    6  0.000  0.000  0.003  0.003
    7  0.000  0.000  0.003  0.003
    8  0.000  0.000  0.003  0.003
    9  0.000  0.000  0.006  0.007
   10  0.000  0.000  0.009  0.010
   11  0.000  0.001  0.083  0.084
   12  0.000  0.000  0.009  0.010
   13  0.000  0.001  0.083  0.084
   14  0.000  0.001  0.083  0.084
   15  0.001  0.001  0.036  0.037
   16  0.000  0.000  0.009  0.010
   17  0.001  0.001  0.036  0.037
   18  0.001  0.001  0.036  0.037
   19  0.001  0.000  0.013  0.014
   20  0.002  0.000  0.065  0.067
   21  0.002  0.000  0.065  0.067
   22  0.003  0.000  0.021  0.025
   23  0.002  0.000  0.064  0.067
   24  0.003  0.000  0.021  0.025
   25  0.001  0.000  0.013  0.014
   26  0.001  0.000  0.013  0.014
   27  0.003  0.000  0.021  0.025
   28  0.005  0.001  0.000  0.006
   29  0.000  0.001  0.015  0.016
   30  0.000  0.001  0.015  0.016
   31  0.000  0.001  0.015  0.016
   32  0.000  0.001  0.015  0.016
   33  0.000  0.001  0.015  0.016
   34  0.000  0.001  0.015  0.016
   35  0.004  0.001  0.001  0.006
   36  0.001  0.001  0.003  0.004
   37  0.000  0.001  0.000  0.001
tot    0.032  0.014  0.819  0.865
 
band    21 # energy   -4.94833649 # occ.  2.00000000
 
ion      s      p      d    tot
    1  0.000  0.000  0.001  0.001
    2  0.000  0.001  0.014  0.015
    3  0.000  0.001  0.014  0.015
    4  0.000  0.001  0.014  0.015
    5  0.006  0.001  0.000  0.007
    6  0.000  0.001  0.014  0.015
    7  0.000  0.001  0.014  0.015
    8  0.000  0.001  0.014  0.015
    9  0.004  0.001  0.001  0.005
   10  0.003  0.000  0.036  0.039
   11  0.000  0.000  0.027  0.028
   12  0.003  0.000  0.036  0.039
   13  0.000  0.000  0.027  0.028
   14  0.000  0.000  0.027  0.028
   15  0.005  0.000  0.014  0.019
   16  0.003  0.000  0.036  0.039
   17  0.005  0.000  0.014  0.019
   18  0.005  0.000  0.014  0.019
   19  0.000  0.000  0.060  0.060
   20  0.000  0.000  0.012  0.013
   21  0.000  0.000  0.012  0.013
   22  0.000  0.001  0.042  0.043
   23  0.000  0.000  0.012  0.013
   24  0.000  0.001  0.042  0.043
   25  0.000  0.000  0.060  0.061
   26  0.000  0.000  0.060  0.060
   27  0.000  0.001  0.042  0.043
   28  0.001  0.000  0.027  0.029
   29  0.000  0.000  0.015  0.015
   30  0.000  0.000  0.015  0.015
   31  0.000  0.000  0.015  0.015
   32  0.000  0.000  0.015  0.015
   33  0.000  0.000  0.015  0.015
   34  0.000  0.000  0.015  0.015
   35  0.005  0.001  0.001  0.007
   36  0.003  0.001  0.000  0.004