PROCAR new format
# of k-points:   10         # of bands:  252         # of ions:   37

 k-point     1 :    0.00000000 0.00000000 0.00000000     weight = 0.01562500

band     1 # energy  -13.52617826 # occ.  2.00000000
 
ion      s      p      d    tot
    1  0.000  0.000  0.000  0.000
    2  0.000  0.000  0.000  0.000
    3  0.000  0.000  0.000  0.000
    4  0.000  0.000  0.000  0.000
    5  0.000  0.000  0.000  0.000
    6  0.000  0.000  0.000  0.000
    7  0.000  0.000  0.000  0.000
    8  0.000  0.000  0.000  0.000
    9  0.000  0.000  0.000  0.000
   10  0.000  0.000  0.000  0.000
   11  0.000  0.000  0.000  0.000
   12  0.000  0.000  0.000  0.000
   13  0.000  0.000  0.000  0.000
   14  0.000  0.000  0.000  0.000
   15  0.000  0.000  0.000  0.000
   16  0.000  0.000  0.000  0.000
   17  0.000  0.000  0.000  0.000
   18  0.000  0.000  0.000  0.000
   19  0.000  0.000  0.000  0.000
   20  0.000  0.000  0.000  0.000
   21  0.000  0.000  0.000  0.000
   22  0.000  0.000  0.000  0.000
   23  0.000  0.000  0.000  0.000
   24  0.000  0.000  0.000  0.000
   25  0.000  0.000  0.000  0.000
   26  0.000  0.000  0.000  0.000
   27  0.000  0.000  0.000  0.000
   28  0.000  0.000  0.000  0.000
   29  0.000  0.000  0.000  0.001
   30  0.000  0.000  0.000  0.001
   31  0.000  0.000  0.000  0.001
   32  0.000  0.000  0.000  0.001
   33  0.000  0.000  0.000  0.001
   34  0.000  0.000  0.000  0.001
   35  0.000  0.000  0.000  0.000
   36  0.060  0.057  0.097  0.215
   37  0.632  0.016  0.000  0.648
tot    0.695  0.074  0.099  0.868
 
band     2 # energy   -8.75919497 # occ.  2.00000000
 
ion      s      p      d    tot
    1  0.007  0.001  0.000  0.008
    2  0.007  0.001  0.000  0.008
    3  0.007  0.001  0.000  0.008
    4  0.007  0.001  0.000  0.008
    5  0.007  0.001  0.000  0.008
    6  0.007  0.001  0.000  0.008
    7  0.007  0.001  0.000  0.008
    8  0.007  0.001  0.000  0.008
    9  0.007  0.001  0.000  0.008
   10  0.025  0.000  0.000  0.026
   11  0.025  0.000  0.000  0.026
   12  0.025  0.000  0.000  0.026
   13  0.025  0.000  0.000  0.026
   14  0.025  0.000  0.000  0.026
   15  0.025  0.000  0.000  0.025
   16  0.025  0.000  0.000  0.026
   17  0.025  0.000  0.000  0.025
   18  0.025  0.000  0.000  0.025
   19  0.024  0.000  0.000  0.025
   20  0.025  0.000  0.000  0.025
   21  0.025  0.000  0.000  0.025
   22  0.024  0.000  0.000  0.024
   23  0.025  0.000  0.000  0.025
   24  0.024  0.000  0.000  0.024
   25  0.024  0.000  0.000  0.025
   26  0.024  0.000  0.000  0.025
   27  0.024  0.000  0.000  0.024
   28  0.006  0.001  0.000  0.007
   29  0.006  0.001  0.000  0.007
   30  0.006  0.001  0.000  0.007
   31  0.006  0.001  0.000  0.007
   32  0.006  0.001  0.000  0.007
   33  0.006  0.001  0.000  0.007
   34  0.006  0.001  0.000  0.007
   35  0.006  0.001  0.000  0.007
   36  0.003  0.002  0.000  0.005
   37  0.002  0.000  0.000  0.002
tot    0.562  0.018  0.001  0.581
 
band     3 # energy   -7.42225453 # occ.  2.00000000
 
ion      s      p      d    tot
    1  0.019  0.001  0.001  0.020
    2  0.019  0.001  0.001  0.020
    3  0.019  0.001  0.001  0.020
    4  0.019  0.001  0.001  0.020
    5  0.019  0.001  0.001  0.020
    6  0.018  0.001  0.001  0.020
    7  0.019  0.001  0.001  0.020
    8  0.018  0.001  0.001  0.020
    9  0.018  0.001  0.001  0.020
   10  0.009  0.002  0.001  0.012
   11  0.009  0.002  0.001  0.012
   12  0.009  0.002  0.001  0.012
   13  0.009  0.002  0.001  0.012
   14  0.009  0.002  0.001  0.012
   15  0.009  0.002  0.001  0.012
   16  0.009  0.002  0.001  0.012
   17  0.009  0.002  0.001  0.012
   18  0.009  0.002  0.001  0.012
   19  0.012  0.002  0.001  0.015
   20  0.011  0.002  0.001  0.014
   21  0.011  0.002  0.001  0.014
   22  0.012  0.002  0.001  0.015
   23  0.011  0.002  0.001  0.014
   24  0.012  0.002  0.001  0.015
   25  0.012  0.002  0.001  0.015
   26  0.012  0.002  0.001  0.015
   27  0.012  0.002  0.001  0.015
   28  0.018  0.001  0.000  0.020
   29  0.017  0.001  0.000  0.018
   30  0.017  0.001  0.000  0.018
   31  0.017  0.001  0.000  0.018
   32  0.017  0.001  0.000  0.018
   33  0.017  0.001  0.000  0.018
   34  0.017  0.001  0.000  0.018
   35  0.018  0.001  0.000  0.019
   36  0.009  0.002  0.002  0.013
   37  0.003  0.000  0.000  0.003
tot    0.502  0.057  0.022  0.581
 
band     4 # energy   -5.83729577 # occ.  2.00000000
 
ion      s      p      d    tot
    1  0.013  0.000  0.004  0.016
    2  0.009  0.001  0.005  0.015
    3  0.009  0.001  0.005  0.015
    4  0.009  0.001  0.005  0.015
    5  0.000  0.001  0.006  0.007
    6  0.009  0.001  0.005  0.015
    7  0.009  0.001  0.005  0.015
    8  0.009  0.001  0.005  0.015
    9  0.025  0.001  0.002  0.027
   10  0.001  0.003  0.005  0.009
   11  0.022  0.007  0.001  0.029
   12  0.001  0.003  0.005  0.009
   13  0.022  0.007  0.001  0.029
   14  0.022  0.007  0.001  0.029
   15  0.002  0.002  0.007  0.010
   16  0.001  0.003  0.005  0.009
   17  0.002  0.002  0.007  0.010
   18  0.002  0.002  0.007  0.010
   19  0.000  0.002  0.008  0.010
   20  0.029  0.007  0.003  0.039
   21  0.029  0.007  0.003  0.039
   22  0.000  0.005  0.004  0.009
   23  0.029  0.007  0.003  0.039
   24  0.000  0.005  0.004  0.009
   25  0.000  0.002  0.008  0.010
   26  0.000  0.002  0.008  0.010
   27  0.000  0.005  0.004  0.009
   28  0.020  0.000  0.002  0.022
   29  0.011  0.001  0.006  0.017
   30  0.011  0.001  0.006  0.017
   31  0.011  0.001  0.006  0.017
   32  0.011  0.001  0.006  0.017
   33  0.011  0.001  0.006  0.017
   34  0.011  0.001  0.006  0.017
   35  0.026  0.000  0.003  0.029
   36  0.000  0.002  0.017  0.020
   37  0.000  0.003  0.000  0.003
tot    0.367  0.088  0.177  0.632
 
band     5 # energy   -5.79088643 # occ.  2.00000000
 
ion      s      p      d    tot
    1  0.000  0.002  0.005  0.007
    2  0.009  0.002  0.002  0.013
    3  0.000  0.001  0.002  0.003
    4  0.008  0.002  0.002  0.012
    5  0.000  0.003  0.004  0.007
    6  0.005  0.002  0.002  0.009
    7  0.001  0.001  0.002  0.003
    8  0.006  0.002  0.002  0.010
    9  0.000  0.000  0.002  0.002
   10  0.049  0.005  0.003  0.057
   11  0.013  0.008  0.006  0.027
   12  0.010  0.001  0.014  0.024
   13  0.008  0.009  0.006  0.023
   14  0.041  0.001  0.007  0.049
   15  0.000  0.006  0.005  0.012
   16  0.016  0.002  0.012  0.029
   17  0.000  0.007  0.005  0.013
   18  0.000  0.002  0.004  0.006
   19  0.004  0.009  0.003  0.016
   20  0.067  0.003  0.006  0.076
   21  0.013  0.005  0.013  0.031
   22  0.004  0.003  0.011  0.018
   23  0.021  0.004  0.012  0.037
   24  0.019  0.004  0.002  0.025
   25  0.013  0.000  0.006  0.020
   26  0.002  0.011  0.002  0.016
   27  0.006  0.003  0.010  0.019
   28  0.000  0.002  0.003  0.004
   29  0.011  0.003  0.003  0.016
   30  0.001  0.001  0.002  0.004
   31  0.010  0.003  0.003  0.016
   32  0.004  0.001  0.002  0.008
   33  0.002  0.001  0.002  0.005
   34  0.005  0.002  0.002  0.009
   35  0.000  0.000  0.003  0.004
   36  0.000  0.004  0.006  0.010
   37  0.000  0.000  0.000  0.000
tot    0.346  0.115  0.179  0.640
 
band     6 # energy   -5.79087052 # occ.  2.00000000
 
ion      s      p      d    tot
    1  0.000  0.002  0.005  0.007
    2  0.001  0.001  0.002  0.004
    3  0.009  0.002  0.002  0.014
    4  0.001  0.001  0.002  0.005
    5  0.000  0.003  0.004  0.007
    6  0.005  0.002  0.002  0.008
    7  0.009  0.002  0.002  0.014
    8  0.003  0.001  0.002  0.007
    9  0.000  0.000  0.002  0.002
   10  0.000  0.000  0.016  0.017
   11  0.029  0.004  0.006  0.039
   12  0.040  0.004  0.005  0.050
   13  0.034  0.003  0.006  0.043
   14  0.000  0.011  0.006  0.017
   15  0.000  0.004  0.005  0.009
   16  0.034  0.003  0.007  0.045
   17  0.000  0.003  0.004  0.008
   18  0.000  0.008  0.006  0.014
   19  0.009  0.004  0.005  0.018
   20  0.000  0.005  0.015  0.020
   21  0.054  0.004  0.007  0.065
   22  0.015  0.004  0.004  0.023
   23  0.046  0.004  0.009  0.058
   24  0.000  0.002  0.013  0.016
   25  0.000  0.014  0.001  0.015
   26  0.010  0.003  0.005  0.019
   27  0.013  0.004  0.006  0.022
   28  0.000  0.002  0.003  0.004
   29  0.000  0.001  0.002  0.003
   30  0.010  0.003  0.003  0.015
   31  0.001  0.001  0.002  0.004
   32  0.007  0.002  0.003  0.012
   33  0.009  0.002  0.003  0.014
   34  0.005  0.002  0.003  0.010
   35  0.000  0.000  0.003  0.004
   36  0.000  0.004  0.006  0.010
   37  0.000  0.000  0.000  0.000
tot    0.346  0.115  0.179  0.640
 
band     7 # energy   -5.76039013 # occ.  2.00000000
 
ion      s      p      d    tot
    1  0.021  0.003  0.001  0.025
    2  0.000  0.002  0.004  0.006
    3  0.000  0.002  0.004  0.006
    4  0.000  0.002  0.004  0.006
    5  0.001  0.000  0.000  0.002
    6  0.000  0.002  0.004  0.006
    7  0.000  0.002  0.004  0.006
    8  0.000  0.002  0.004  0.006
    9  0.009  0.002  0.000  0.011
   10  0.031  0.006  0.006  0.042
   11  0.005  0.000  0.012  0.017
   12  0.030  0.006  0.006  0.042
   13  0.005  0.000  0.012  0.017
   14  0.005  0.000  0.012  0.017
   15  0.012  0.008  0.003  0.023
   16  0.030  0.006  0.006  0.042
   17  0.012  0.008  0.003  0.023
   18  0.012  0.008  0.003  0.024
   19  0.023  0.009  0.002  0.034
   20  0.000  0.003  0.011  0.013
   21  0.000  0.002  0.011  0.013
   22  0.024  0.002  0.009  0.036
   23  0.000  0.002  0.011  0.013
   24  0.024  0.002  0.009  0.036
   25  0.022  0.009  0.002  0.034
   26  0.023  0.009  0.002  0.034
   27  0.024  0.002  0.009  0.036
   28  0.018  0.003  0.001  0.021
   29  0.000  0.002  0.004  0.006
   30  0.000  0.002  0.004  0.006
   31  0.000  0.002  0.004  0.006
   32  0.000  0.002  0.004  0.006
   33  0.000  0.002  0.004  0.006
   34  0.000  0.002  0.004  0.006
   35  0.012  0.002  0.001  0.016
   36  0.000  0.000  0.000  0.000
   37  0.000  0.000  0.000  0.000
tot    0.345  0.114  0.181  0.640
 
band     8 # energy   -5.75416326 # occ.  2.00000000
 
ion      s      p      d    tot
    1  0.000  0.002  0.003  0.004
    2  0.010  0.002  0.002  0.014
    3  0.000  0.001  0.002  0.003
    4  0.009  0.002  0.002  0.014
    5  0.000  0.000  0.004  0.004
    6  0.006  0.002  0.003  0.010
    7  0.001  0.001  0.002  0.004
    8  0.006  0.002  0.003  0.011
    9  0.000  0.003  0.006  0.009
   10  0.000  0.014  0.002  0.015
   11  0.014  0.003  0.006  0.023
   12  0.010  0.003  0.006  0.018
   13  0.016  0.004  0.005  0.024
   14  0.000  0.002  0.014  0.016
   15  0.045  0.004  0.007  0.056
   16  0.009  0.004  0.005  0.018
   17  0.049  0.004  0.007  0.060
   18  0.000  0.005  0.013  0.018
   19  0.035  0.004  0.007  0.045
   20  0.000  0.009  0.006  0.015
   21  0.000  0.003  0.005  0.009
   22  0.035  0.003  0.006  0.044
   23  0.000  0.004  0.005  0.009
   24  0.000  0.011  0.006  0.017
   25  0.000  0.000  0.017  0.017
   26  0.039  0.004  0.006  0.048
   27  0.032  0.004  0.006  0.042
   28  0.000  0.002  0.005  0.007
   29  0.010  0.002  0.002  0.015
   30  0.001  0.001  0.002  0.004
   31  0.010  0.002  0.003  0.014
   32  0.003  0.001  0.002  0.007
   33  0.002  0.001  0.002  0.005
   34  0.004  0.001  0.002  0.008
   35  0.000  0.003  0.004  0.008
   36  0.000  0.000  0.002  0.002
   37  0.000  0.000  0.000  0.000
tot    0.345  0.116  0.178  0.638
 
band     9 # energy   -5.75414997 # occ.  2.00000000
 
ion      s      p      d    tot
    1  0.000  0.002  0.003  0.005
    2  0.001  0.001  0.002  0.004
    3  0.010  0.003  0.003  0.015
    4  0.001  0.001  0.002  0.005
    5  0.000  0.000  0.004  0.004
    6  0.005  0.002  0.002  0.009
    7  0.010  0.002  0.003  0.015
    8  0.004  0.001  0.002  0.008
    9  0.000  0.003  0.006  0.009
   10  0.012  0.000  0.007  0.019
   11  0.006  0.003  0.010  0.019
   12  0.003  0.011  0.003  0.016
   13  0.004  0.003  0.011  0.018
   14  0.020  0.004  0.002  0.026
   15  0.018  0.004  0.011  0.033
   16  0.004  0.010  0.003  0.016
   17  0.014  0.004  0.011  0.030
   18  0.063  0.004  0.005  0.071
   19  0.014  0.001  0.013  0.028
   20  0.000  0.002  0.005  0.007
   21  0.000  0.008  0.006  0.013
   22  0.009  0.009  0.006  0.024
   23  0.000  0.007  0.005  0.013
   24  0.044  0.001  0.006  0.052
   25  0.049  0.005  0.002  0.057
   26  0.011  0.001  0.014  0.026
   27  0.013  0.008  0.006  0.027
   28  0.000  0.002  0.005  0.007
   29  0.000  0.001  0.002  0.003
   30  0.009  0.002  0.002  0.013
   31  0.000  0.001  0.002  0.003
   32  0.006  0.002  0.003  0.011
   33  0.008  0.002  0.002  0.013
   34  0.006  0.002  0.003  0.010
   35  0.000  0.003  0.004  0.008
   36  0.000  0.000  0.002  0.002
   37  0.000  0.000  0.000  0.000
tot    0.345  0.116  0.178  0.638
 
band    10 # energy   -5.70576414 # occ.  2.00000000
 
ion      s      p      d    tot
    1  0.003  0.000  0.003  0.007
    2  0.008  0.001  0.006  0.015
    3  0.008  0.001  0.006  0.015
    4  0.008  0.001  0.006  0.015
    5  0.042  0.002  0.001  0.045
    6  0.008  0.001  0.006  0.015
    7  0.008  0.001  0.006  0.015
    8  0.008  0.001  0.006  0.015
    9  0.000  0.002  0.007  0.009
   10  0.005  0.004  0.007  0.016
   11  0.007  0.006  0.005  0.019
   12  0.005  0.004  0.007  0.016
   13  0.007  0.006  0.005  0.019
   14  0.007  0.006  0.005  0.019
   15  0.026  0.003  0.007  0.036
   16  0.005  0.004  0.007  0.016
   17  0.026  0.003  0.007  0.036
   18  0.026  0.003  0.007  0.036
   19  0.009  0.003  0.006  0.018
   20  0.009  0.004  0.005  0.018
   21  0.009  0.004  0.005  0.018
   22  0.008  0.006  0.003  0.018
   23  0.009  0.004  0.005  0.018
   24  0.008  0.006  0.003  0.018
   25  0.009  0.003  0.006  0.018
   26  0.009  0.003  0.006  0.018
   27  0.008  0.006  0.003  0.018
   28  0.004  0.000  0.005  0.009
   29  0.008  0.000  0.004  0.013
   30  0.008  0.000  0.004  0.013
   31  0.008  0.000  0.004  0.013
   32  0.008  0.000  0.004  0.013
   33  0.008  0.000  0.004  0.013
   34  0.008  0.000  0.004  0.013
   35  0.002  0.000  0.004  0.006
   36  0.016  0.002  0.003  0.021
   37  0.002  0.000  0.000  0.003
tot    0.355  0.095  0.191  0.641
 
band    11 # energy   -5.04652299 # occ.  2.00000000
 
ion      s      p      d    tot
    1  0.010  0.000  0.007  0.017
    2  0.004  0.001  0.009  0.015
    3  0.004  0.001  0.009  0.015
    4  0.004  0.001  0.009  0.015
    5  0.002  0.003  0.009  0.013
    6  0.004  0.001  0.009  0.015
    7  0.004  0.001  0.009  0.015
    8  0.004  0.001  0.009  0.015
    9  0.018  0.000  0.005  0.023
   10  0.004  0.000  0.024  0.029
   11  0.016  0.001  0.019  0.035
   12  0.004  0.000  0.024  0.029
   13  0.016  0.001  0.019  0.035
   14  0.016  0.001  0.018  0.035
   15  0.000  0.001  0.019  0.020
   16  0.004  0.000  0.024  0.029
   17  0.000  0.001  0.019  0.020
   18  0.000  0.001  0.019  0.020
   19  0.001  0.000  0.016  0.017
   20  0.013  0.002  0.028  0.043
   21  0.013  0.002  0.028  0.043
   22  0.002  0.000  0.020  0.022
   23  0.013  0.002  0.028  0.043
   24  0.002  0.000  0.020  0.022
   25  0.001  0.000  0.016  0.017
   26  0.001  0.000  0.016  0.017
   27  0.002  0.000  0.020  0.022
   28  0.006  0.000  0.004  0.010
   29  0.003  0.001  0.007  0.011
   30  0.003  0.001  0.007  0.011
   31  0.003  0.001  0.007  0.011
   32  0.003  0.001  0.007  0.011
   33  0.003  0.001  0.007  0.011
   34  0.003  0.001  0.007  0.011
   35  0.011  0.000  0.004  0.016
   36  0.003  0.002  0.023  0.028
   37  0.001  0.007  0.000  0.007
tot    0.203  0.036  0.525  0.764
 
band    12 # energy   -5.00843707 # occ.  2.00000000
 
ion      s      p      d    tot
    1  0.000  0.002  0.010  0.011
    2  0.018  0.003  0.005  0.026
    3  0.000  0.002  0.005  0.007
    4  0.015  0.003  0.005  0.024
    5  0.000  0.006  0.009  0.015
    6  0.014  0.003  0.005  0.023
    7  0.000  0.002  0.005  0.007
    8  0.016  0.003  0.005  0.025
    9  0.000  0.001  0.012  0.014
   10  0.012  0.004  0.009  0.025
   11  0.007  0.002  0.020  0.029
   12  0.003  0.001  0.015  0.019
   13  0.004  0.002  0.022  0.029
   14  0.021  0.004  0.005  0.031
   15  0.000  0.003  0.016  0.019
   16  0.004  0.002  0.014  0.020
   17  0.000  0.003  0.017  0.020
   18  0.001  0.000  0.008  0.009
   19  0.000  0.002  0.016  0.019
   20  0.019  0.005  0.005  0.028
   21  0.004  0.002  0.028  0.034
   22  0.002  0.001  0.013  0.017
   23  0.006  0.002  0.025  0.033
   24  0.011  0.004  0.010  0.025
   25  0.001  0.000  0.007  0.008
   26  0.000  0.003  0.018  0.020
   27  0.003  0.002  0.013  0.018
   28  0.000  0.001  0.012  0.013
   29  0.016  0.003  0.005  0.025
   30  0.000  0.002  0.005  0.007
   31  0.014  0.003  0.005  0.022
   32  0.016  0.003  0.005  0.025
   33  0.000  0.002  0.005  0.007
   34  0.019  0.003  0.005  0.027
   35  0.000  0.002  0.009  0.010
   36  0.000  0.007  0.004  0.011
   37  0.000  0.001  0.000  0.001
tot    0.228  0.095  0.379  0.703
 
band    13 # energy   -5.00842360 # occ.  2.00000000
 
ion      s      p      d    tot
    1  0.000  0.002  0.010  0.011
    2  0.004  0.002  0.005  0.011
    3  0.021  0.004  0.005  0.031
    4  0.006  0.002  0.005  0.013
    5  0.000  0.006  0.009  0.015
    6  0.007  0.002  0.005  0.014
    7  0.021  0.004  0.005  0.030
    8  0.005  0.002  0.005  0.012
    9  0.000  0.001  0.012  0.014
   10  0.000  0.001  0.017  0.017
   11  0.015  0.003  0.012  0.030
   12  0.010  0.003  0.010  0.024
   13  0.017  0.004  0.009  0.030
   14  0.000  0.001  0.027  0.028
   15  0.001  0.001  0.011  0.013
   16  0.009  0.003  0.011  0.023
   17  0.001  0.001  0.010  0.012
   18  0.000  0.004  0.019  0.023
   19  0.001  0.001  0.011  0.013
   20  0.000  0.001  0.034  0.035
   21  0.015  0.004  0.011  0.030
   22  0.009  0.003  0.011  0.023
   23  0.013  0.004  0.014  0.030
   24  0.000  0.001  0.014  0.015
   25  0.000  0.003  0.020  0.023
   26  0.001  0.001  0.010  0.011
   27  0.008  0.003  0.011  0.022
   28  0.000  0.001  0.012  0.013
   29  0.005  0.002  0.005  0.013
   30  0.022  0.004  0.005  0.030
   31  0.008  0.002  0.005  0.015
   32  0.005  0.002  0.005  0.013
   33  0.022  0.004  0.005  0.031
   34  0.003  0.002  0.005  0.010
   35  0.000  0.002  0.009  0.010
   36  0.000  0.007  0.004  0.011
   37  0.000  0.001  0.000  0.001
tot    0.228  0.095  0.379  0.703
 
band    14 # energy   -4.98820357 # occ.  2.00000000
 
ion      s      p      d    tot
    1  0.035  0.003  0.000  0.038
    2  0.000  0.003  0.010  0.013
    3  0.000  0.003  0.010  0.013
    4  0.000  0.003  0.010  0.013
    5  0.000  0.000  0.000  0.000
    6  0.000  0.003  0.010  0.013
    7  0.000  0.003  0.010  0.013
    8  0.000  0.003  0.010  0.013
    9  0.029  0.003  0.001  0.033
   10  0.009  0.004  0.011  0.023
   11  0.001  0.000  0.015  0.017
   12  0.009  0.004  0.011  0.023
   13  0.001  0.000  0.015  0.017
   14  0.001  0.000  0.015  0.016
   15  0.006  0.003  0.018  0.028
   16  0.009  0.004  0.011  0.023
   17  0.006  0.003  0.018  0.028
   18  0.006  0.003  0.018  0.028
   19  0.006  0.004  0.017  0.026
   20  0.000  0.000  0.018  0.018
   21  0.000  0.000  0.018  0.018
   22  0.011  0.003  0.010  0.025
   23  0.000  0.000  0.018  0.018
   24  0.011  0.003  0.010  0.025
   25  0.006  0.004  0.017  0.026
   26  0.006  0.004  0.017  0.026
   27  0.011  0.003  0.010  0.025
   28  0.036  0.003  0.000  0.039
   29  0.000  0.003  0.010  0.013
   30  0.000  0.003  0.010  0.013
   31  0.000  0.003  0.010  0.013
   32  0.000  0.003  0.010  0.013
   33  0.000  0.003  0.010  0.013
   34  0.000  0.003  0.010  0.013
   35  0.025  0.003  0.001  0.030
   36  0.000  0.000  0.000  0.000
   37  0.000  0.000  0.000  0.000
tot    0.225  0.091  0.390  0.706
 
band    15 # energy   -4.97982944 # occ.  2.00000000
 
ion      s      p      d    tot
    1  0.000  0.005  0.011  0.015
    2  0.005  0.002  0.005  0.013
    3  0.021  0.004  0.005  0.031
    4  0.005  0.002  0.005  0.012
    5  0.000  0.000  0.012  0.012
    6  0.006  0.002  0.005  0.013
    7  0.021  0.004  0.005  0.031
    8  0.006  0.002  0.005  0.013
    9  0.000  0.005  0.008  0.013
   10  0.010  0.002  0.005  0.017
   11  0.000  0.002  0.014  0.016
   12  0.003  0.003  0.022  0.027
   13  0.000  0.002  0.014  0.016
   14  0.002  0.001  0.010  0.013
   15  0.005  0.001  0.018  0.024
   16  0.002  0.003  0.022  0.028
   17  0.005  0.002  0.018  0.025
   18  0.020  0.006  0.007  0.033
   19  0.005  0.001  0.019  0.025
   20  0.002  0.001  0.011  0.014
   21  0.001  0.002  0.015  0.018
   22  0.003  0.003  0.020  0.026
   23  0.000  0.002  0.015  0.018
   24  0.011  0.002  0.005  0.018
   25  0.021  0.005  0.006  0.033
   26  0.006  0.001  0.019  0.026
   27  0.003  0.003  0.021  0.026
   28  0.000  0.005  0.008  0.013
   29  0.006  0.002  0.006  0.014
   30  0.021  0.004  0.005  0.029
   31  0.006  0.002  0.006  0.013
   32  0.004  0.002  0.006  0.012
   33  0.021  0.004  0.005  0.029
   34  0.005  0.002  0.006  0.012
   35  0.000  0.004  0.010  0.015
   36  0.000  0.000  0.008  0.008
   37  0.000  0.000  0.000  0.000
tot    0.225  0.093  0.383  0.702
 
band    16 # energy   -4.97981756 # occ.  2.00000000
 
ion      s      p      d    tot
    1  0.000  0.005  0.011  0.015
    2  0.016  0.003  0.005  0.025
    3  0.000  0.002  0.005  0.007
    4  0.017  0.003  0.005  0.025
    5  0.000  0.000  0.012  0.012
    6  0.016  0.003  0.005  0.025
    7  0.000  0.002  0.005  0.007
    8  0.015  0.003  0.005  0.024
    9  0.000  0.005  0.008  0.013
   10  0.000  0.003  0.028  0.031
   11  0.001  0.001  0.011  0.014
   12  0.008  0.002  0.011  0.021
   13  0.001  0.001  0.011  0.014
   14  0.000  0.002  0.015  0.017
   15  0.015  0.004  0.011  0.030
   16  0.008  0.002  0.011  0.021
   17  0.015  0.004  0.011  0.030
   18  0.000  0.000  0.022  0.022
   19  0.016  0.004  0.010  0.031
   20  0.000  0.003  0.017  0.019
   21  0.001  0.002  0.013  0.016
   22  0.008  0.002  0.011  0.021
   23  0.002  0.002  0.013  0.016
   24  0.000  0.003  0.026  0.029
   25  0.000  0.000  0.023  0.023
   26  0.016  0.004  0.011  0.030
   27  0.008  0.002  0.010  0.021
   28  0.000  0.005  0.008  0.013
   29  0.014  0.003  0.005  0.023
   30  0.000  0.002  0.006  0.007
   31  0.015  0.003  0.005  0.023
   32  0.017  0.003  0.005  0.025
   33  0.000  0.002  0.006  0.008
   34  0.016  0.003  0.005  0.024
   35  0.000  0.004  0.010  0.015
   36  0.000  0.000  0.008  0.008
   37  0.000  0.000  0.000  0.000
tot    0.225  0.093  0.383  0.702
 
band    17 # energy   -4.89504408 # occ.  2.00000000
 
ion      s      p      d    tot
    1  0.006  0.001  0.002  0.009
    2  0.001  0.002  0.010  0.013
    3  0.001  0.002  0.010  0.013
    4  0.001  0.002  0.010  0.013
    5  0.042  0.002  0.000  0.045
    6  0.001  0.002  0.010  0.013
    7  0.001  0.002  0.010  0.013
    8  0.001  0.002  0.010  0.013
    9  0.003  0.001  0.003  0.007
   10  0.003  0.001  0.021  0.025
   11  0.002  0.003  0.020  0.024
   12  0.003  0.001  0.021  0.025
   13  0.002  0.003  0.020  0.024
   14  0.002  0.003  0.020  0.024
   15  0.007  0.001  0.013  0.021
   16  0.003  0.001  0.021  0.025
   17  0.007  0.001  0.013  0.021
   18  0.007  0.001  0.013  0.021
   19  0.012  0.001  0.021  0.034
   20  0.004  0.004  0.017  0.025
   21  0.004  0.004  0.017  0.025
   22  0.005  0.001  0.019  0.025
   23  0.004  0.004  0.017  0.025
   24  0.005  0.001  0.019  0.025
   25  0.012  0.001  0.021  0.034
   26  0.012  0.001  0.021  0.034
   27  0.005  0.001  0.019  0.025
   28  0.000  0.002  0.008  0.010
   29  0.003  0.002  0.010  0.014
   30  0.003  0.002  0.010  0.014
   31  0.003  0.002  0.010  0.014
   32  0.003  0.002  0.010  0.014
   33  0.003  0.002  0.010  0.014
   34  0.003  0.002  0.010  0.014
   35  0.001  0.002  0.005  0.007
   36  0.028  0.004  0.001  0.033
   37  0.003  0.002  0.000  0.005
tot    0.202  0.071  0.471  0.744
 
band    18 # energy   -4.36930599 # occ.  2.00000000
 
ion      s      p      d    tot
    1  0.000  0.002  0.001  0.003
    2  0.008  0.001  0.006  0.015
    3  0.008  0.001  0.006  0.015
    4  0.008  0.001  0.006  0.015
    5  0.000  0.001  0.018  0.019
    6  0.000  0.001  0.006  0.006
    7  0.008  0.001  0.006  0.015
    8  0.000  0.001  0.006  0.006
    9  0.000  0.000  0.015  0.015
   10  0.000  0.005  0.013  0.018
   11  0.000  0.000  0.032  0.033
   12  0.000  0.001  0.010  0.012
   13  0.000  0.000  0.033  0.033
   14  0.000  0.001  0.001  0.002
   15  0.000  0.001  0.012  0.013
   16  0.000  0.001  0.010  0.012
   17  0.000  0.001  0.012  0.013
   18  0.000  0.002  0.011  0.013
   19  0.000  0.000  0.032  0.033
   20  0.002  0.004  0.029  0.036
   21  0.001  0.001  0.016  0.018
   22  0.000  0.000  0.025  0.025
   23  0.001  0.001  0.016  0.018
   24  0.000  0.001  0.007  0.008
   25  0.001  0.002  0.004  0.007
   26  0.000  0.000  0.032  0.033
   27  0.000  0.000  0.025  0.025
   28  0.000  0.002  0.020  0.022
   29  0.020  0.001  0.014  0.035
   30  0.001  0.001  0.012  0.014
   31  0.020  0.001  0.014  0.035
   32  0.011  0.001  0.010  0.022
   33  0.001  0.001  0.012  0.014
   34  0.011  0.001  0.010  0.022
   35  0.000  0.000  0.031  0.031
   36  0.000  0.008  0.052  0.059
   37  0.000  0.052  0.000  0.052
tot    0.102  0.100  0.565  0.767
 
band    19 # energy   -4.36928902 # occ.  2.00000000
 
ion      s      p      d    tot
    1  0.000  0.002  0.001  0.003
    2  0.003  0.001  0.006  0.009
    3  0.003  0.001  0.006  0.009
    4  0.003  0.001  0.006  0.009
    5  0.000  0.001  0.018  0.019
    6  0.011  0.001  0.006  0.018
    7  0.003  0.001  0.006  0.009
    8  0.011  0.001  0.006  0.018
    9  0.000  0.000  0.015  0.015
   10  0.000  0.000  0.010  0.010
   11  0.000  0.001  0.012  0.012
   12  0.000  0.004  0.012  0.016
   13  0.000  0.001  0.012  0.012
   14  0.000  0.000  0.043  0.043
   15  0.000  0.002  0.011  0.013
   16  0.000  0.004  0.012  0.016
   17  0.000  0.002  0.011  0.013
   18  0.000  0.000  0.013  0.013
   19  0.000  0.001  0.014  0.015
   20  0.000  0.000  0.012  0.012
   21  0.002  0.003  0.025  0.030
   22  0.000  0.001  0.013  0.013
   23  0.002  0.003  0.025  0.030
   24  0.000  0.000  0.031  0.031
   25  0.000  0.000  0.041  0.041
   26  0.000  0.001  0.013  0.015
   27  0.000  0.001  0.013  0.014
   28  0.000  0.002  0.020  0.022
   29  0.002  0.001  0.010  0.013
   30  0.020  0.002  0.012  0.034
   31  0.002  0.001  0.010  0.013
   32  0.011  0.001  0.014  0.025
   33  0.020  0.002  0.012  0.034
   34  0.010  0.001  0.014  0.025
   35  0.000  0.000  0.031  0.031
   36  0.000  0.008  0.052  0.059
   37  0.000  0.052  0.000  0.052
tot    0.102  0.100  0.565  0.767
 
band    20 # energy   -4.30575010 # occ.  2.00000000
 
ion      s      p      d    tot
    1  0.000  0.000  0.036  0.036
    2  0.006  0.001  0.010  0.017
    3  0.003  0.001  0.010  0.014
    4  0.005  0.001  0.010  0.016
    5  0.000  0.002  0.005  0.007
    6  0.016  0.001  0.010  0.027
    7  0.002  0.001  0.010  0.013
    8  0.016  0.001  0.010  0.027
    9  0.000  0.003  0.016  0.018
   10  0.000  0.001  0.010  0.011
   11  0.000  0.002  0.011  0.014
   12  0.000  0.000  0.040  0.041
   13  0.000  0.002  0.010  0.012
   14  0.001  0.007  0.021  0.029
   15  0.000  0.001  0.035  0.037
   16  0.000  0.000  0.038  0.038
   17  0.000  0.001  0.038  0.039
   18  0.001  0.004  0.007  0.011
   19  0.000  0.001  0.015  0.016
   20  0.001  0.000  0.006  0.007
   21  0.000  0.000  0.062  0.063
   22  0.000  0.001  0.020  0.022
   23  0.000  0.000  0.058  0.058
   24  0.001  0.006  0.017  0.025
   25  0.000  0.004  0.016  0.020
   26  0.000  0.001  0.015  0.016
   27  0.000  0.002  0.020  0.022
   28  0.000  0.001  0.014  0.015
   29  0.000  0.001  0.009  0.010
   30  0.013  0.001  0.008  0.022
   31  0.001  0.001  0.009  0.010
   32  0.008  0.001  0.011  0.020
   33  0.013  0.001  0.008  0.022
   34  0.007  0.001  0.011  0.019
   35  0.000  0.002  0.002  0.005
   36  0.000  0.001  0.018  0.019
   37  0.000  0.000  0.000  0.000
tot    0.097  0.053  0.647  0.797
 
band    21 # energy   -4.30573743 # occ.  2.00000000
 
ion      s      p      d    tot
    1  0.000  0.000  0.036  0.036
    2  0.010  0.001  0.010  0.021
    3  0.013  0.001  0.010  0.024
    4  0.011  0.001  0.010  0.023
    5  0.000  0.002  0.005  0.007
    6  0.000  0.001  0.010  0.011
    7  0.014  0.001  0.010  0.025
    8  0.000  0.001  0.010  0.011
    9  0.000  0.003  0.016  0.018
   10  0.000  0.000  0.049  0.049
   11  0.001  0.005  0.017  0.023
   12  0.000  0.000  0.019  0.019
   13  0.001  0.005  0.018  0.024
   14  0.000  0.000  0.007  0.007
   15  0.001  0.003  0.018  0.021
   16  0.000  0.000  0.021  0.022
   17  0.001  0.003  0.016  0.019
   18  0.000  0.000  0.047  0.047
   19  0.000  0.003  0.016  0.019
   20  0.000  0.000  0.078  0.078
   21  0.001  0.000  0.022  0.023
   22  0.001  0.005  0.018  0.024
   23  0.000  0.000  0.026  0.027
   24  0.000  0.000  0.022  0.022
   25  0.000  0.000  0.014  0.015
   26  0.000  0.003  0.016  0.019
   27  0.001  0.005  0.018  0.024
   28  0.000  0.001  0.014  0.015
   29  0.014  0.001  0.009  0.024
   30  0.001  0.001  0.010  0.012
   31  0.014  0.001  0.009  0.024
   32  0.006  0.001  0.008  0.014
   33  0.002  0.001  0.010  0.013
   34  0.007  0.001  0.008  0.015
   35  0.000  0.002  0.002  0.005
   36  0.000  0.001  0.018  0.019