 vasp.6.2.0 18Jan21 (build Jun 12 2021 23:27:24) complex                        
  
 executed on             LinuxIFC date 2022.05.27  06:04:27
 running on   28 total cores
 distrk:  each k-point on   28 cores,    1 groups
 distr:  one band on NCORE=   1 cores,   28 groups


--------------------------------------------------------------------------------------------------------


 INCAR:
   ISMEAR = -5
   SIGMA = 0.1
   ISPIN = 1
   EDIFF = 1.d-5
   EDIFFG = -0.01
   NSW = 0
   NELM = 150
   ENCUT = 500
   ISIF = 2
   IBRION = 2
   LREAL = Auto
   ALGO = Fast
   ICHARG = 11
   LORBIT = 10
   LCHARG = .F.
   LWAVE = .F.

 POTCAR:    PAW_PBE Cu 22Jun2005                  
 POTCAR:    PAW_PBE Ni 02Aug2007                  
 POTCAR:    PAW_PBE O 08Apr2002                   
 POTCAR:    PAW_PBE H 15Jun2001                   
 -----------------------------------------------------------------------------
|                                                                             |
|           W    W    AA    RRRRR   N    N  II  N    N   GGGG   !!!           |
|           W    W   A  A   R    R  NN   N  II  NN   N  G    G  !!!           |
|           W    W  A    A  R    R  N N  N  II  N N  N  G       !!!           |
|           W WW W  AAAAAA  RRRRR   N  N N  II  N  N N  G  GGG   !            |
|           WW  WW  A    A  R   R   N   NN  II  N   NN  G    G                |
|           W    W  A    A  R    R  N    N  II  N    N   GGGG   !!!           |
|                                                                             |
|     For optimal performance we recommend to set                             |
|       NCORE = 2 up to number-of-cores-per-socket                            |
|     NCORE specifies how many cores store one orbital (NPAR=cpu/NCORE).      |
|     This setting can greatly improve the performance of VASP for DFT.       |
|     The default, NCORE=1 might be grossly inefficient on modern             |
|     multi-core architectures or massively parallel machines. Do your        |
|     own testing! More info at https://www.vasp.at/wiki/index.php/NCORE      |
|     Unfortunately you need to use the default for GW and RPA                |
|     calculations (for HF NCORE is supported but not extensively tested      |
|     yet).                                                                   |
|                                                                             |
 -----------------------------------------------------------------------------

 POTCAR:    PAW_PBE Cu 22Jun2005                  
   VRHFIN =Cu: d10 p1                                                                               
   LEXCH  = PE                                                                                      
   EATOM  =  1390.9808 eV,  102.2342 Ry                                                             
                                                                                                    
   TITEL  = PAW_PBE Cu 22Jun2005                                                                    
   LULTRA =        F    use ultrasoft PP ?                                                          
   IUNSCR =        1    unscreen: 0-lin 1-nonlin 2-no                                               
   RPACOR =    2.000    partial core radius                                                         
   POMASS =   63.546; ZVAL   =   11.000    mass and valenz                                          
   RCORE  =    2.300    outmost cutoff radius                                                       
   RWIGS  =    2.200; RWIGS  =    1.164    wigner-seitz radius (au A)                               
   ENMAX  =  295.446; ENMIN  =  221.585 eV                                                          
   ICORE  =        3    local potential                                                             
   LCOR   =        T    correct aug charges                                                         
   LPAW   =        T    paw PP                                                                      
   EAUG   =  586.980                                                                                
   DEXC   =    0.000                                                                                
   RMAX   =    2.344    core radius for proj-oper                                                   
   RAUG   =    1.300    factor for augmentation sphere                                              
   RDEP   =    2.302    radius for radial grids                                                     
   RDEPT  =    1.771    core radius for aug-charge                                                  
                                                                                                    
   Atomic configuration                                                                             
    9 entries                                                                                       
     n  l   j            E        occ.                                                              
     1  0  0.50     -8850.2468   2.0000                                                             
     2  0  0.50     -1062.3498   2.0000                                                             
     2  1  1.50      -916.8226   6.0000                                                             
     3  0  0.50      -114.6929   2.0000                                                             
     3  1  1.50       -72.1325   6.0000                                                             
     3  2  2.50        -5.0394  10.0000                                                             
     4  0  0.50        -4.6097   1.0000                                                             
     4  1  0.50        -4.0817   0.0000                                                             
     4  3  2.50        -1.3606   0.0000                                                             
   Description                                                                                      
     l       E           TYP  RCUT    TYP  RCUT                                                     
     2     -5.0393973     23  2.200                                                                 
     2     10.8846608     23  2.200                                                                 
     0     -4.6097109     23  2.200                                                                 
     0      8.2520465     23  2.200                                                                 
     1     -2.7211652     23  2.200                                                                 
     1     21.7055443     23  2.200                                                                 
     3      2.7211652     23  2.300                                                                 
  local pseudopotential read in
  partial core-charges read in
  partial kinetic energy density read in
  atomic valenz-charges read in
  non local Contribution for L=           2  read in
    real space projection operators read in
  non local Contribution for L=           2  read in
    real space projection operators read in
  non local Contribution for L=           0  read in
    real space projection operators read in
  non local Contribution for L=           0  read in
    real space projection operators read in
  non local Contribution for L=           1  read in
    real space projection operators read in
  non local Contribution for L=           1  read in
    real space projection operators read in
    PAW grid and wavefunctions read in
 
   number of l-projection  operators is LMAX  =           6
   number of lm-projection operators is LMMAX =          18
 
 POTCAR:    PAW_PBE Ni 02Aug2007                  
   VRHFIN =Ni:                                                                                      
   LEXCH  = PE                                                                                      
   EATOM  =  1077.6739 eV,   79.2068 Ry                                                             
                                                                                                    
   TITEL  = PAW_PBE Ni 02Aug2007                                                                    
   LULTRA =        F    use ultrasoft PP ?                                                          
   IUNSCR =        1    unscreen: 0-lin 1-nonlin 2-no                                               
   RPACOR =    2.000    partial core radius                                                         
   POMASS =   58.690; ZVAL   =   10.000    mass and valenz                                          
   RCORE  =    2.300    outmost cutoff radius                                                       
   RWIGS  =    2.430; RWIGS  =    1.286    wigner-seitz radius (au A)                               
   ENMAX  =  269.532; ENMIN  =  202.149 eV                                                          
   RCLOC  =    1.201    cutoff for local pot                                                        
   LCOR   =        T    correct aug charges                                                         
   LPAW   =        T    paw PP                                                                      
   EAUG   =  544.565                                                                                
   DEXC   =    0.000                                                                                
   RMAX   =    2.357    core radius for proj-oper                                                   
   RAUG   =    1.300    factor for augmentation sphere                                              
   RDEP   =    2.390    radius for radial grids                                                     
   RDEPT  =    1.838    core radius for aug-charge                                                  
                                                                                                    
   Atomic configuration                                                                             
    9 entries                                                                                       
     n  l   j            E        occ.                                                              
     1  0  0.50     -8206.4253   2.0000                                                             
     2  0  0.50      -976.1748   2.0000                                                             
     2  1  1.50      -839.0571   6.0000                                                             
     3  0  0.50      -105.9991   2.0000                                                             
     3  1  1.50       -66.4603   6.0000                                                             
     3  2  2.50        -4.6458   9.0000                                                             
     4  0  0.50        -4.4926   1.0000                                                             
     4  1  1.50        -4.0817   0.0000                                                             
     4  3  2.50        -1.3606   0.0000                                                             
   Description                                                                                      
     l       E           TYP  RCUT    TYP  RCUT                                                     
     2     -4.6457903     23  2.300                                                                 
     2     -6.0063729     23  2.300                                                                 
     0     -4.4925590     23  2.300                                                                 
     0      5.0102601     23  2.300                                                                 
     1     -2.7211652     23  2.300                                                                 
     1     16.5183231     23  2.300                                                                 
  local pseudopotential read in
  partial core-charges read in
  partial kinetic energy density read in
  atomic valenz-charges read in
  non local Contribution for L=           2  read in
    real space projection operators read in
  non local Contribution for L=           2  read in
    real space projection operators read in
  non local Contribution for L=           0  read in
    real space projection operators read in
  non local Contribution for L=           0  read in
    real space projection operators read in
  non local Contribution for L=           1  read in
    real space projection operators read in
  non local Contribution for L=           1  read in
    real space projection operators read in
    PAW grid and wavefunctions read in
 
   number of l-projection  operators is LMAX  =           6
   number of lm-projection operators is LMMAX =          18
 
 POTCAR:    PAW_PBE O 08Apr2002                   
   VRHFIN =O: s2p4                                                                                  
   LEXCH  = PE                                                                                      
   EATOM  =   432.3788 eV,   31.7789 Ry                                                             
                                                                                                    
   TITEL  = PAW_PBE O 08Apr2002                                                                     
   LULTRA =        F    use ultrasoft PP ?                                                          
   IUNSCR =        1    unscreen: 0-lin 1-nonlin 2-no                                               
   RPACOR =    1.200    partial core radius                                                         
   POMASS =   16.000; ZVAL   =    6.000    mass and valenz                                          
   RCORE  =    1.520    outmost cutoff radius                                                       
   RWIGS  =    1.550; RWIGS  =    0.820    wigner-seitz radius (au A)                               
   ENMAX  =  400.000; ENMIN  =  300.000 eV                                                          
   ICORE  =        2    local potential                                                             
   LCOR   =        T    correct aug charges                                                         
   LPAW   =        T    paw PP                                                                      
   EAUG   =  605.392                                                                                
   DEXC   =    0.000                                                                                
   RMAX   =    1.553    core radius for proj-oper                                                   
   RAUG   =    1.300    factor for augmentation sphere                                              
   RDEP   =    1.550    radius for radial grids                                                     
   RDEPT  =    1.329    core radius for aug-charge                                                  
                                                                                                    
   Atomic configuration                                                                             
    4 entries                                                                                       
     n  l   j            E        occ.                                                              
     1  0  0.50      -514.6923   2.0000                                                             
     2  0  0.50       -23.9615   2.0000                                                             
     2  1  0.50        -9.0305   4.0000                                                             
     3  2  1.50        -9.5241   0.0000                                                             
   Description                                                                                      
     l       E           TYP  RCUT    TYP  RCUT                                                     
     0    -23.9615318     23  1.200                                                                 
     0     -9.5240782     23  1.200                                                                 
     1     -9.0304911     23  1.520                                                                 
     1      8.1634956     23  1.520                                                                 
     2     -9.5240782      7  1.500                                                                 
  local pseudopotential read in
  partial core-charges read in
  partial kinetic energy density read in
  kinetic energy density of atom read in
  atomic valenz-charges read in
  non local Contribution for L=           0  read in
    real space projection operators read in
  non local Contribution for L=           0  read in
    real space projection operators read in
  non local Contribution for L=           1  read in
    real space projection operators read in
  non local Contribution for L=           1  read in
    real space projection operators read in
    PAW grid and wavefunctions read in
 
   number of l-projection  operators is LMAX  =           4
   number of lm-projection operators is LMMAX =           8
 
 POTCAR:    PAW_PBE H 15Jun2001                   
   VRHFIN =H: ultrasoft test                                                                        
   LEXCH  = PE                                                                                      
   EATOM  =    12.4884 eV,    0.9179 Ry                                                             
                                                                                                    
   TITEL  = PAW_PBE H 15Jun2001                                                                     
   LULTRA =        F    use ultrasoft PP ?                                                          
   IUNSCR =        0    unscreen: 0-lin 1-nonlin 2-no                                               
   RPACOR =    0.000    partial core radius                                                         
   POMASS =    1.000; ZVAL   =    1.000    mass and valenz                                          
   RCORE  =    1.100    outmost cutoff radius                                                       
   RWIGS  =    0.700; RWIGS  =    0.370    wigner-seitz radius (au A)                               
   ENMAX  =  250.000; ENMIN  =  200.000 eV                                                          
   RCLOC  =    0.701    cutoff for local pot                                                        
   LCOR   =        T    correct aug charges                                                         
   LPAW   =        T    paw PP                                                                      
   EAUG   =  400.000                                                                                
   RMAX   =    1.123    core radius for proj-oper                                                   
   RAUG   =    1.200    factor for augmentation sphere                                              
   RDEP   =    1.112    radius for radial grids                                                     
   RDEPT  =    0.926    core radius for aug-charge                                                  
                                                                                                    
   Atomic configuration                                                                             
    2 entries                                                                                       
     n  l   j            E        occ.                                                              
     1  0  0.50        -6.4927   1.0000                                                             
     2  1  0.50        -3.4015   0.0000                                                             
   Description                                                                                      
     l       E           TYP  RCUT    TYP  RCUT                                                     
     0     -6.4927494     23  1.100                                                                 
     0      6.8029130     23  1.100                                                                 
     1     -4.0817478     23  1.100                                                                 
  local pseudopotential read in
  atomic valenz-charges read in
  non local Contribution for L=           0  read in
    real space projection operators read in
  non local Contribution for L=           0  read in
    real space projection operators read in
  non local Contribution for L=           1  read in
    real space projection operators read in
    PAW grid and wavefunctions read in
 
   number of l-projection  operators is LMAX  =           3
   number of lm-projection operators is LMMAX =           5
 
 Optimization of the real space projectors (new method)

 maximal supplied QI-value         = 16.25
 optimisation between [QCUT,QGAM] = [ 11.38, 22.75] = [ 36.24,144.96] Ry 
 Optimized for a Real-space Cutoff    1.52 Angstroem

   l    n(q)    QCUT    max X(q) W(low)/X(q) W(high)/X(q)  e(spline) 
   2      9    11.376     4.610    0.21E-03    0.10E-03    0.26E-06
   2      9    11.376     8.522    0.33E-03    0.16E-03    0.37E-06
   0     10    11.376    51.609    0.62E-04    0.20E-04    0.13E-06
   0     10    11.376    27.747    0.54E-04    0.20E-04    0.13E-06
   1     10    11.376    20.408    0.13E-04    0.99E-04    0.19E-06
   1     10    11.376    13.425    0.12E-04    0.87E-04    0.17E-06
 Optimization of the real space projectors (new method)

 maximal supplied QI-value         = 16.25
 optimisation between [QCUT,QGAM] = [ 11.38, 22.75] = [ 36.24,144.96] Ry 
 Optimized for a Real-space Cutoff    1.39 Angstroem

   l    n(q)    QCUT    max X(q) W(low)/X(q) W(high)/X(q)  e(spline) 
   2      8    11.376    60.317    0.19E-03    0.33E-04    0.13E-06
   2      8    11.376    55.921    0.20E-03    0.34E-04    0.14E-06
   0      9    11.376    51.690    0.82E-04    0.12E-03    0.20E-06
   0      9    11.376    30.015    0.74E-04    0.11E-03    0.18E-06
   1      9    11.376    18.849    0.39E-03    0.12E-03    0.13E-06
   1      9    11.376    14.624    0.33E-03    0.10E-03    0.11E-06
 Optimization of the real space projectors (new method)

 maximal supplied QI-value         = 24.76
 optimisation between [QCUT,QGAM] = [ 11.39, 22.77] = [ 36.31,145.25] Ry 
 Optimized for a Real-space Cutoff    1.00 Angstroem

   l    n(q)    QCUT    max X(q) W(low)/X(q) W(high)/X(q)  e(spline) 
   0      7    11.387    20.381    0.39E-03    0.13E-02    0.15E-06
   0      7    11.387    15.268    0.42E-03    0.14E-02    0.17E-06
   1      6    11.387     5.964    0.41E-03    0.11E-02    0.17E-06
   1      6    11.387     5.382    0.39E-03    0.87E-03    0.15E-06
 Optimization of the real space projectors (new method)

 maximal supplied QI-value         = 34.20
 optimisation between [QCUT,QGAM] = [ 11.29, 22.57] = [ 35.68,142.71] Ry 
 Optimized for a Real-space Cutoff    1.16 Angstroem

   l    n(q)    QCUT    max X(q) W(low)/X(q) W(high)/X(q)  e(spline) 
   0      8    11.287    19.460    0.40E-03    0.73E-03    0.16E-06
   0      8    11.287    12.209    0.38E-03    0.70E-03    0.15E-06
   1      7    11.287     4.655    0.22E-03    0.25E-04    0.22E-06
  PAW_PBE Cu 22Jun2005                  :
 energy of atom  1       EATOM=-1390.9808
 kinetic energy error for atom=    0.0043 (will be added to EATOM!!)
  PAW_PBE Ni 02Aug2007                  :
 energy of atom  2       EATOM=-1077.6739
 kinetic energy error for atom=    0.0030 (will be added to EATOM!!)
  PAW_PBE O 08Apr2002                   :
 energy of atom  3       EATOM= -432.3788
 kinetic energy error for atom=    0.0224 (will be added to EATOM!!)
  PAW_PBE H 15Jun2001                   :
 energy of atom  4       EATOM=  -12.4884
 kinetic energy error for atom=    0.0020 (will be added to EATOM!!)
 
 
 POSCAR: Cu-Ni-OH
  positions in direct lattice
  velocities in cartesian coordinates
 exchange correlation table for  LEXCH =        8
   RHO(1)=    0.500       N(1)  =     2000
   RHO(2)=  100.500       N(2)  =     4000

 VTST: version 3.2, (02/03/18)

 CHAIN: initializing optimizer
 
 OPT: Using VASP Conjugate-Gradient optimizer
 CHAIN: Read ICHAIN            0
 
 POSCAR: Cu-Ni-OH
  positions in direct lattice
  velocities in cartesian coordinates
 


--------------------------------------------------------------------------------------------------------


 ion  position               nearest neighbor table
   1  0.000  0.000  0.252-   7 2.57   3 2.57   4 2.57   2 2.57   6 2.57   8 2.57  12 2.57  10 2.57
                            16 2.57
   2  0.333  0.000  0.252-   8 2.57   9 2.57   5 2.57   1 2.57   3 2.57  11 2.57   4 2.57  10 2.57
                            17 2.57
   3  0.667  0.000  0.252-   1 2.57   7 2.57   6 2.57   9 2.57   2 2.57  12 2.57   5 2.57  18 2.57
                            11 2.57
   4  0.000  0.333  0.252-   5 2.57   6 2.57   1 2.57   7 2.57   2 2.57  13 2.57   9 2.57  10 2.57
                            15 2.57
   5  0.333  0.333  0.252-   4 2.57   2 2.57   7 2.57  13 2.57   8 2.57   6 2.57   3 2.57  11 2.57
                            14 2.57
   6  0.667  0.333  0.252-   4 2.57   9 2.57  15 2.57   3 2.57   1 2.57   8 2.57  14 2.57   5 2.57
                            12 2.57
   7  0.000  0.667  0.252-   1 2.57   3 2.57  16 2.57  18 2.57   4 2.57   5 2.57   8 2.57   9 2.57
                            13 2.57
   8  0.333  0.667  0.252-   9 2.57   2 2.57  17 2.57   6 2.57   1 2.57   7 2.57   5 2.57  14 2.57
                            16 2.57
   9  0.667  0.667  0.252-   8 2.57   6 2.57   2 2.57  17 2.57   3 2.57   7 2.57   4 2.57  15 2.57
                            18 2.57
  10  0.111  0.111  0.351-  20 2.55  26 2.56  19 2.56  11 2.57  12 2.57  13 2.57   1 2.57   2 2.57
                             4 2.57  15 2.57  16 2.57  17 2.57
  11  0.444  0.111  0.351-  20 2.55  21 2.55  27 2.56  10 2.57  13 2.57   2 2.57  17 2.57  14 2.57
                            12 2.57   5 2.57   3 2.57  18 2.57
  12  0.778  0.111  0.351-  21 2.55  19 2.56  25 2.56  15 2.57  10 2.57  14 2.57  18 2.57   3 2.57
                             1 2.57  16 2.57  11 2.57   6 2.57
  13  0.111  0.444  0.351-  23 2.55  20 2.55  22 2.56  16 2.57  18 2.57  10 2.57  11 2.57  14 2.57
                             5 2.57   4 2.57   7 2.57  15 2.57
  14  0.444  0.444  0.351-  21 2.55  23 2.55  24 2.56  15 2.57  17 2.57  12 2.57  16 2.57  13 2.57
                            11 2.57   6 2.57   8 2.57   5 2.57
  15  0.778  0.444  0.351-  24 2.55  22 2.55  19 2.56  14 2.57  17 2.57  12 2.57   6 2.57  18 2.57
                            10 2.57   9 2.57  13 2.57   4 2.57
  16  0.111  0.778  0.351-  23 2.55  25 2.56  26 2.56  18 2.57  13 2.57   7 2.57  14 2.57  17 2.57
                            12 2.57  10 2.57   8 2.57   1 2.57
  17  0.444  0.778  0.351-  27 2.55  24 2.55  26 2.56  14 2.57  15 2.57   8 2.57   9 2.57  11 2.57
                            16 2.57  18 2.57  10 2.57   2 2.57
  18  0.778  0.778  0.351-  22 2.55  27 2.55  25 2.56  16 2.57  13 2.57   7 2.57  15 2.57  12 2.57
                            17 2.57   9 2.57   3 2.57  11 2.57
  19  0.889  0.223  0.449-  28 2.54  32 2.55  31 2.55  15 2.56  12 2.56  10 2.56  22 2.56  24 2.56
                            21 2.57  20 2.57  25 2.57  26 2.57
  20  0.222  0.222  0.448-  36 2.48  29 2.54  31 2.54  10 2.55  11 2.55  13 2.55  26 2.57  19 2.57
                            27 2.57  22 2.57  23 2.57  21 2.57
  21  0.556  0.222  0.448-  36 2.48  32 2.54  30 2.54  12 2.55  14 2.55  11 2.55  19 2.57  25 2.57
                            24 2.57  27 2.57  20 2.57  23 2.57
  22  0.889  0.556  0.449-  35 2.54  31 2.55  33 2.55  18 2.55  15 2.55  13 2.56  19 2.56  25 2.56
                            24 2.57  27 2.57  23 2.57  20 2.57
  23  0.222  0.556  0.448-  36 2.48  33 2.54  34 2.54  16 2.55  13 2.55  14 2.55  25 2.57  26 2.57
                            22 2.57  24 2.57  20 2.57  21 2.57
  24  0.556  0.556  0.449-  35 2.54  32 2.55  34 2.55  15 2.55  17 2.55  14 2.56  19 2.56  26 2.56
                            22 2.57  27 2.57  21 2.57  23 2.57
  25  0.889  0.889  0.449-  28 2.54  33 2.55  30 2.55  18 2.56  16 2.56  12 2.56  22 2.56  27 2.56
                            21 2.57  23 2.57  19 2.57  26 2.57
  26  0.223  0.889  0.449-  28 2.54  29 2.55  34 2.55  17 2.56  10 2.56  16 2.56  27 2.56  24 2.56
                            20 2.57  23 2.57  25 2.57  19 2.57
  27  0.556  0.889  0.449-  35 2.54  29 2.55  30 2.55  17 2.55  18 2.55  11 2.56  26 2.56  25 2.56
                            24 2.57  22 2.57  20 2.57  21 2.57
  28  0.000  0.000  0.546-  25 2.54  19 2.54  26 2.54  33 2.57  30 2.57  31 2.57  29 2.57  32 2.57
                            34 2.57
  29  0.333  0.002  0.546-  20 2.54  27 2.55  31 2.55  36 2.55  30 2.55  26 2.55  28 2.57  35 2.57
                            34 2.60
  30  0.665  0.002  0.546-  21 2.54  27 2.55  32 2.55  36 2.55  29 2.55  25 2.55  28 2.57  35 2.57
                            33 2.60
  31  0.002  0.333  0.546-  20 2.54  22 2.55  29 2.55  36 2.55  33 2.55  19 2.55  28 2.57  35 2.57
                            32 2.60
  32  0.665  0.333  0.546-  21 2.54  24 2.55  30 2.55  36 2.55  34 2.55  19 2.55  28 2.57  35 2.57
                            31 2.60
  33  0.002  0.665  0.546-  23 2.54  22 2.55  34 2.55  36 2.55  31 2.55  25 2.55  28 2.57  35 2.57
                            30 2.60
  34  0.333  0.665  0.546-  23 2.54  24 2.55  33 2.55  36 2.55  32 2.55  26 2.55  28 2.57  35 2.57
                            29 2.60
  35  0.667  0.667  0.546-  24 2.54  27 2.54  22 2.54  34 2.57  32 2.57  29 2.57  30 2.57  33 2.57
                            31 2.57
  36  0.333  0.333  0.542-  37 1.81  23 2.48  20 2.48  21 2.48  31 2.55  29 2.55  33 2.55  34 2.55
                            32 2.55  30 2.55
  37  0.333  0.333  0.627-  38 0.97  36 1.81
  38  0.333  0.333  0.673-  37 0.97
 
  LATTYP: Found a hexagonal cell.
 ALAT       =     7.6967864036
 C/A-ratio  =     2.7653617908
  
  Lattice vectors:
  
 A1 = (  -3.8483927580,  -6.6656128093,   0.0000000000)
 A2 = (   7.6967864037,   0.0000000000,   0.0000000000)
 A3 = (   0.0000000000,   0.0000000000,  21.2843990326)


Analysis of symmetry for initial positions (statically):
=====================================================================
 Subroutine PRICEL returns:
 Original cell was already a primitive cell.
 

 Routine SETGRP: Setting up the symmetry group for a 
 hexagonal supercell.


 Subroutine GETGRP returns: Found  6 space group operations
 (whereof  6 operations were pure point group operations)
 out of a pool of 24 trial point group operations.


The static configuration has the point symmetry C_3v.


Analysis of symmetry for dynamics (positions and initial velocities):
=====================================================================
 Subroutine PRICEL returns:
 Original cell was already a primitive cell.
 

 Routine SETGRP: Setting up the symmetry group for a 
 hexagonal supercell.


 Subroutine GETGRP returns: Found  6 space group operations
 (whereof  6 operations were pure point group operations)
 out of a pool of 24 trial point group operations.


The dynamic configuration has the point symmetry C_3v.


Analysis of constrained symmetry for selective dynamics:
=====================================================================
 Subroutine PRICEL returns:
 Original cell was already a primitive cell.
 

 Routine SETGRP: Setting up the symmetry group for a 
 hexagonal supercell.


 Subroutine GETGRP returns: Found  6 space group operations
 (whereof  6 operations were pure point group operations)
 out of a pool of 24 trial point group operations.


The constrained configuration has the point symmetry C_3v.


 Subroutine INISYM returns: Found  6 space group operations
 (whereof  6 operations are pure point group operations),
 and found     1 'primitive' translations


----------------------------------------------------------------------------------------

                                     Primitive cell                                     

  volume of cell :    1091.9705

  direct lattice vectors                    reciprocal lattice vectors
     7.696786404  0.000000000  0.000000000     0.129924354 -0.075011849  0.000000000
     3.848392758  6.665612809  0.000000000     0.000000000  0.150023716  0.000000000
     0.000000000  0.000000000 21.284399033     0.000000000  0.000000000  0.046982769

  length of vectors
     7.696786404  7.696786404 21.284399033     0.150023716  0.150023716  0.046982769

  position of ions in fractional coordinates (direct lattice)
     0.000000000  0.000000000  0.252370745
     0.333333343  0.000000000  0.252370745
     0.666666687  0.000000000  0.252370745
     1.000000000  0.333333343  0.252370745
     0.333333313  0.333333343  0.252370745
     0.666666687  0.333333343  0.252370745
     1.000000000  0.666666687  0.252370745
     0.333333373  0.666666687  0.252370745
     0.666666627  0.666666687  0.252370745
     0.111111119  0.111111112  0.350790262
     0.444444418  0.111111112  0.350790262
     0.777777791  0.111111112  0.350790262
     0.111111119  0.444444448  0.350790262
     0.444444478  0.444444448  0.350790262
     0.777777731  0.444444448  0.350790262
     0.111111112  0.777777731  0.350790262
     0.444444478  0.777777731  0.350790262
     0.777777851  0.777777731  0.350790262
     0.888717636  0.222564743  0.448718893
     0.222205667  0.222205652  0.448344711
     0.555588727  0.222205652  0.448344711
     0.888848763  0.555575588  0.448595816
     0.222205637  0.555588667  0.448344711
     0.555575648  0.555575588  0.448595816
     0.888717636  0.888717636  0.448718893
     0.222564758  0.888717636  0.448718893
     0.555575588  0.888848763  0.448595816
     0.000000000  0.000000000  0.545716777
     0.333207055  0.002169920  0.545941940
     0.664623055  0.002169920  0.545941940
     0.002169920  0.333207055  0.545941940
     0.664623055  0.333207055  0.545941940
     0.002169920  0.664623055  0.545941940
     0.333207085  0.664623055  0.545941940
     0.666666627  0.666666687  0.545643740
     0.333333313  0.333333343  0.541955855
     0.333333313  0.333333343  0.627198190
     0.333333313  0.333333343  0.672567282

  ion indices of the primitive-cell ions
   primitive index   ion index
                 1           1
                 2           2
                 3           3
                 4           4
                 5           5
                 6           6
                 7           7
                 8           8
                 9           9
                10          10
                11          11
                12          12
                13          13
                14          14
                15          15
                16          16
                17          17
                18          18
                19          19
                20          20
                21          21
                22          22
                23          23
                24          24
                25          25
                26          26
                27          27
                28          28
                29          29
                30          30
                31          31
                32          32
                33          33
                34          34
                35          35
                36          36
                37          37
                38          38

----------------------------------------------------------------------------------------

 
 
 KPOINTS: Automatic mesh                          

Automatic generation of k-mesh.
 Grid dimensions read from file:
 generate k-points for:    8    8    1

 Generating k-lattice:

  Cartesian coordinates                     Fractional coordinates (reciprocal lattice)
     0.016240544 -0.009376481  0.000000000     0.125000000 -0.000000000  0.000000000
     0.000000000  0.018752964  0.000000000     0.000000000  0.125000000  0.000000000
     0.000000000  0.000000000  0.046982769     0.000000000  0.000000000  1.000000000

  Length of vectors
     0.018752964  0.018752964  0.046982769

  Shift w.r.t. Gamma in fractional coordinates (k-lattice)
     0.000000000  0.000000000  0.000000000

 TETIRR: Found     36 inequivalent tetrahedra from      384
 
 Subroutine IBZKPT returns following result:
 ===========================================
 
 Found     10 irreducible k-points:
 
 Following reciprocal coordinates:
            Coordinates               Weight
  0.000000  0.000000  0.000000      1.000000
  0.125000 -0.000000  0.000000      6.000000
  0.250000 -0.000000  0.000000      6.000000
  0.375000 -0.000000  0.000000      6.000000
  0.500000 -0.000000  0.000000      3.000000
  0.250000  0.125000  0.000000      6.000000
  0.375000  0.125000  0.000000     12.000000
  0.500000  0.125000  0.000000     12.000000
  0.500000  0.250000  0.000000      6.000000
 -0.375000  0.250000  0.000000      6.000000
 
 Following cartesian coordinates:
            Coordinates               Weight
  0.000000  0.000000  0.000000      1.000000
  0.016241 -0.009376  0.000000      6.000000
  0.032481 -0.018753  0.000000      6.000000
  0.048722 -0.028129  0.000000      6.000000
  0.064962 -0.037506  0.000000      3.000000
  0.032481  0.000000  0.000000      6.000000
  0.048722 -0.009376  0.000000     12.000000
  0.064962 -0.018753  0.000000     12.000000
  0.064962  0.000000  0.000000      6.000000
 -0.048722  0.065635  0.000000      6.000000
 


--------------------------------------------------------------------------------------------------------




 Dimension of arrays:
   k-points           NKPTS =     10   k-points in BZ     NKDIM =     10   number of bands    NBANDS=    252
   number of dos      NEDOS =    301   number of ions     NIONS =     38
   non local maximal  LDIM  =      6   non local SUM 2l+1 LMDIM =     18
   total plane-waves  NPLWV = 211680
   max r-space proj   IRMAX =   2893   max aug-charges    IRDMAX=   6482
   dimension x,y,z NGX =    42 NGY =   42 NGZ =  120
   dimension x,y,z NGXF=    84 NGYF=   84 NGZF=  240
   support grid    NGXF=    84 NGYF=   84 NGZF=  240
   ions per type =              35   1   1   1
   NGX,Y,Z   is equivalent  to a cutoff of   9.07,  9.07,  9.37 a.u.
   NGXF,Y,Z  is equivalent  to a cutoff of  18.14, 18.14, 18.75 a.u.

 SYSTEM =  unknown system                          
 POSCAR =  Cu-Ni-OH                                

 Startparameter for this run:
   NWRITE =      2    write-flag & timer
   PREC   = normal    normal or accurate (medium, high low for compatibility)
   ISTART =      0    job   : 0-new  1-cont  2-samecut
   ICHARG =     11    charge: 1-file 2-atom 10-const
   ISPIN  =      1    spin polarized calculation?
   LNONCOLLINEAR =      F non collinear calculations
   LSORBIT =      F    spin-orbit coupling
   INIWAV =      1    electr: 0-lowe 1-rand  2-diag
   LASPH  =      F    aspherical Exc in radial PAW
   METAGGA=      F    non-selfconsistent MetaGGA calc.

 Electronic Relaxation 1
   ENCUT  =  500.0 eV  36.75 Ry    6.06 a.u.  14.03 14.03 38.81*2*pi/ulx,y,z
   ENINI  =  500.0     initial cutoff
   ENAUG  =  605.4 eV  augmentation charge cutoff
   NELM   =    150;   NELMIN=  2; NELMDL= -5     # of ELM steps 
   EDIFF  = 0.1E-04   stopping-criterion for ELM
   LREAL  =      T    real-space projection
   NLSPLINE    = F    spline interpolate recip. space projectors
   LCOMPAT=      F    compatible to vasp.4.4
   GGA_COMPAT  = T    GGA compatible to vasp.4.4-vasp.4.6
   LMAXPAW     = -100 max onsite density
   LMAXMIX     =    2 max onsite mixed and CHGCAR
   VOSKOWN=      0    Vosko Wilk Nusair interpolation
   ROPT   =   -0.00050  -0.00050  -0.00050  -0.00050
 Ionic relaxation
   EDIFFG = -.1E-01   stopping-criterion for IOM
   NSW    =      0    number of steps for IOM
   NBLOCK =      1;   KBLOCK =      1    inner block; outer block 
   IBRION =     -1    ionic relax: 0-MD 1-quasi-New 2-CG
   NFREE  =      1    steps in history (QN), initial steepest desc. (CG)
   ISIF   =      2    stress and relaxation
   IWAVPR =     10    prediction:  0-non 1-charg 2-wave 3-comb
   ISYM   =      2    0-nonsym 1-usesym 2-fastsym
   LCORR  =      T    Harris-Foulkes like correction to forces

   POTIM  = 0.5000    time-step for ionic-motion
   TEIN   =    0.0    initial temperature
   TEBEG  =    0.0;   TEEND  =   0.0 temperature during run
   SMASS  =  -3.00    Nose mass-parameter (am)
   estimated Nose-frequenzy (Omega)   =  0.10E-29 period in steps = 0.13E+47 mass=  -0.135E-26a.u.
   SCALEE = 1.0000    scale energy and forces
   NPACO  =    256;   APACO  = 16.0  distance and # of slots for P.C.
   PSTRESS=    0.0 pullay stress

  Mass of Ions in am
   POMASS =  63.55 58.69 16.00  1.00
  Ionic Valenz
   ZVAL   =  11.00 10.00  6.00  1.00
  Atomic Wigner-Seitz radii
   RWIGS  =  -1.00 -1.00 -1.00 -1.00
  virtual crystal weights 
   VCA    =   1.00  1.00  1.00  1.00
   NELECT =     402.0000    total number of electrons
   NUPDOWN=      -1.0000    fix difference up-down

 DOS related values:
   EMIN   =  10.00;   EMAX   =-10.00  energy-range for DOS
   EFERMI =   0.00
   ISMEAR =    -5;   SIGMA  =   0.10  broadening in eV -4-tet -1-fermi 0-gaus

 Electronic relaxation 2 (details)
   IALGO  =     68    algorithm
   LDIAG  =      T    sub-space diagonalisation (order eigenvalues)
   LSUBROT=      F    optimize rotation matrix (better conditioning)
   TURBO    =      0    0=normal 1=particle mesh
   IRESTART =      0    0=no restart 2=restart with 2 vectors
   NREBOOT  =      0    no. of reboots
   NMIN     =      0    reboot dimension
   EREF     =   0.00    reference energy to select bands
   IMIX   =      4    mixing-type and parameters
     AMIX     =   0.40;   BMIX     =  1.00
     AMIX_MAG =   1.60;   BMIX_MAG =  1.00
     AMIN     =   0.10
     WC   =   100.;   INIMIX=   1;  MIXPRE=   1;  MAXMIX= -45

 Intra band minimization:
   WEIMIN = 0.0000     energy-eigenvalue tresh-hold
   EBREAK =  0.99E-08  absolut break condition
   DEPER  =   0.30     relativ break condition  

   TIME   =   0.40     timestep for ELM

  volume/ion in A,a.u.               =      28.74       193.92
  Fermi-wavevector in a.u.,A,eV,Ry     =   1.173311  2.217237 18.730585  1.376659
  Thomas-Fermi vector in A             =   2.309726
 
 Write flags
   LWAVE        =      F    write WAVECAR
   LDOWNSAMPLE  =      F    k-point downsampling of WAVECAR
   LCHARG       =      F    write CHGCAR
   LVTOT        =      F    write LOCPOT, total local potential
   LVHAR        =      F    write LOCPOT, Hartree potential only
   LELF         =      F    write electronic localiz. function (ELF)
   LORBIT       =     10    0 simple, 1 ext, 2 COOP (PROOUT), +10 PAW based schemes


 Dipole corrections
   LMONO  =      F    monopole corrections only (constant potential shift)
   LDIPOL =      F    correct potential (dipole corrections)
   IDIPOL =      0    1-x, 2-y, 3-z, 4-all directions 
   EPSILON=  1.0000000 bulk dielectric constant

 Exchange correlation treatment:
   GGA     =    --    GGA type
   LEXCH   =     8    internal setting for exchange type
   VOSKOWN=      0    Vosko Wilk Nusair interpolation
   LHFCALC =     F    Hartree Fock is set to
   LHFONE  =     F    Hartree Fock one center treatment
   AEXX    =    0.0000 exact exchange contribution

 Linear response parameters
   LEPSILON=     F    determine dielectric tensor
   LRPA    =     F    only Hartree local field effects (RPA)
   LNABLA  =     F    use nabla operator in PAW spheres
   LVEL    =     F    velocity operator in full k-point grid
   LINTERFAST=   F  fast interpolation
   KINTER  =     0    interpolate to denser k-point grid
   CSHIFT  =0.1000    complex shift for real part using Kramers Kronig
   OMEGAMAX=  -1.0    maximum frequency
   DEG_THRESHOLD= 0.2000000E-02 threshold for treating states as degnerate
   RTIME   =   -0.100 relaxation time in fs
  (WPLASMAI=    0.000 imaginary part of plasma frequency in eV, 0.658/RTIME)
   DFIELD  = 0.0000000 0.0000000 0.0000000 field for delta impulse in time
 
 Orbital magnetization related:
   ORBITALMAG=     F  switch on orbital magnetization
   LCHIMAG   =     F  perturbation theory with respect to B field
   DQ        =  0.001000  dq finite difference perturbation B field
   LLRAUG    =     F  two centre corrections for induced B field



--------------------------------------------------------------------------------------------------------


 Static calculation
 charge density and potential remain constant during run
 non-spin polarized calculation
 RMM-DIIS sequential band-by-band and
  variant of blocked Davidson during initial phase
 perform sub-space diagonalisation
    before iterative eigenvector-optimisation
 no mixing
 using additional bands           51
 real space projection scheme for non local part
 use partial core corrections
 calculate Harris-corrections to forces 
   (improved forces if not selfconsistent)
 use gradient corrections 
 WARNING: stress and forces are not correct
  (second derivative of E(xc) not defined)
 use of overlap-Matrix (Vanderbilt PP)
 Fermi weights with tetrahedron method with Bloechl corrections


--------------------------------------------------------------------------------------------------------


  energy-cutoff  :      500.00
  volume of cell :     1091.97
      direct lattice vectors                 reciprocal lattice vectors
     7.696786404  0.000000000  0.000000000     0.129924354 -0.075011849  0.000000000
     3.848392758  6.665612809  0.000000000     0.000000000  0.150023716  0.000000000
     0.000000000  0.000000000 21.284399033     0.000000000  0.000000000  0.046982769

  length of vectors
     7.696786404  7.696786404 21.284399033     0.150023716  0.150023716  0.046982769


 
 k-points in units of 2pi/SCALE and weight: Automatic mesh                          
   0.00000000  0.00000000  0.00000000       0.016
   0.01624054 -0.00937648  0.00000000       0.094
   0.03248109 -0.01875296  0.00000000       0.094
   0.04872163 -0.02812944  0.00000000       0.094
   0.06496218 -0.03750592  0.00000000       0.047
   0.03248109  0.00000000  0.00000000       0.094
   0.04872163 -0.00937648  0.00000000       0.188
   0.06496218 -0.01875296  0.00000000       0.188
   0.06496218  0.00000000  0.00000000       0.094
  -0.04872163  0.06563537  0.00000000       0.094
 
 k-points in reciprocal lattice and weights: Automatic mesh                          
   0.00000000  0.00000000  0.00000000       0.016
   0.12500000 -0.00000000  0.00000000       0.094
   0.25000000 -0.00000000  0.00000000       0.094
   0.37500000 -0.00000000  0.00000000       0.094
   0.50000000 -0.00000000  0.00000000       0.047
   0.25000000  0.12500000  0.00000000       0.094
   0.37500000  0.12500000  0.00000000       0.188
   0.50000000  0.12500000  0.00000000       0.188
   0.50000000  0.25000000  0.00000000       0.094
  -0.37500000  0.25000000  0.00000000       0.094
 
 position of ions in fractional coordinates (direct lattice) 
   0.00000000  0.00000000  0.25237075
   0.33333334  0.00000000  0.25237075
   0.66666669  0.00000000  0.25237075
   0.00000000  0.33333334  0.25237075
   0.33333331  0.33333334  0.25237075
   0.66666669  0.33333334  0.25237075
   0.00000000  0.66666669  0.25237075
   0.33333337  0.66666669  0.25237075
   0.66666663  0.66666669  0.25237075
   0.11111112  0.11111111  0.35079026
   0.44444442  0.11111111  0.35079026
   0.77777779  0.11111111  0.35079026
   0.11111112  0.44444445  0.35079026
   0.44444448  0.44444445  0.35079026
   0.77777773  0.44444445  0.35079026
   0.11111111  0.77777773  0.35079026
   0.44444448  0.77777773  0.35079026
   0.77777785  0.77777773  0.35079026
   0.88871764  0.22256474  0.44871889
   0.22220567  0.22220565  0.44834471
   0.55558873  0.22220565  0.44834471
   0.88884876  0.55557559  0.44859582
   0.22220564  0.55558867  0.44834471
   0.55557565  0.55557559  0.44859582
   0.88871764  0.88871764  0.44871889
   0.22256476  0.88871764  0.44871889
   0.55557559  0.88884876  0.44859582
   0.00000000  0.00000000  0.54571678
   0.33320706  0.00216992  0.54594194
   0.66462305  0.00216992  0.54594194
   0.00216992  0.33320706  0.54594194
   0.66462305  0.33320706  0.54594194
   0.00216992  0.66462305  0.54594194
   0.33320709  0.66462305  0.54594194
   0.66666663  0.66666669  0.54564374
   0.33333331  0.33333334  0.54195585
   0.33333331  0.33333334  0.62719819
   0.33333331  0.33333334  0.67256728
 
 position of ions in cartesian coordinates  (Angst):
   0.00000000  0.00000000  5.37155964
   2.56559554  0.00000000  5.37155964
   5.13119109  0.00000000  5.37155964
   1.28279762  2.22187100  5.37155964
   3.84839293  2.22187100  5.37155964
   6.41398872  2.22187100  5.37155964
   2.56559525  4.44374201  5.37155964
   5.13119102  4.44374201  5.37155964
   7.69678588  4.44374201  5.37155964
   1.28279775  0.74062365  7.46635991
   3.84839295  0.74062365  7.46635991
   6.41398873  0.74062365  7.46635991
   2.56559535  2.96249461  7.46635991
   5.13119101  2.96249461  7.46635991
   7.69678586  2.96249461  7.46635991
   3.84839268  5.18436521  7.46635991
   6.41398840  5.18436521  7.46635991
   8.97958418  5.18436521  7.46635991
   7.69678637  1.48353040  9.55071198
   2.56540417  1.48113684  9.54274773
   5.13138238  1.48113684  9.54274773
   8.97935215  3.70325176  9.54809236
   3.84839272  3.70333893  9.54274773
   6.41422017  3.70325176  9.54809236
  10.26040434  5.92384766  9.55071198
   5.13316792  5.92384766  9.55071198
   7.69678578  5.92472170  9.54809236
   0.00000000  0.00000000 11.61525363
   2.57297424  0.01446385 11.62004611
   5.12381239  0.01446385 11.62004611
   1.29901303  2.22102922 11.62004611
   6.39777331  2.22102922 11.62004611
   2.57443196  4.43011995 11.62004611
   5.12235431  4.43011995 11.62004611
   7.69678588  4.44374201 11.61369909
   3.84839293  2.22187100 11.53520467
   3.84839293  2.22187100 13.34953655
   3.84839293  2.22187100 14.31519041
 


--------------------------------------------------------------------------------------------------------


 k-point   1 :   0.0000 0.0000 0.0000  plane waves:   27671
 k-point   2 :   0.1250-0.0000 0.0000  plane waves:   27649
 k-point   3 :   0.2500-0.0000 0.0000  plane waves:   27714
 k-point   4 :   0.3750-0.0000 0.0000  plane waves:   27740
 k-point   5 :   0.5000-0.0000 0.0000  plane waves:   27782
 k-point   6 :   0.2500 0.1250 0.0000  plane waves:   27698
 k-point   7 :   0.3750 0.1250 0.0000  plane waves:   27702
 k-point   8 :   0.5000 0.1250 0.0000  plane waves:   27747
 k-point   9 :   0.5000 0.2500 0.0000  plane waves:   27734
 k-point  10 :  -0.3750 0.2500 0.0000  plane waves:   27782

 maximum and minimum number of plane-waves per node :     27782    27649

 maximum number of plane-waves:     27782
 maximum index in each direction: 
   IXMAX=   14   IYMAX=   14   IZMAX=   38
   IXMIN=  -14   IYMIN=  -14   IZMIN=  -38


 serial   3D FFT for wavefunctions
 parallel 3D FFT for charge:
    minimum data exchange during FFTs selected (reduces bandwidth)


 total amount of memory used by VASP MPI-rank0   105018. kBytes
=======================================================================

   base      :      30000. kBytes
   nonlr-proj:      17629. kBytes
   fftplans  :       2916. kBytes
   grid      :      12878. kBytes
   one-center:        590. kBytes
   wavefun   :      41005. kBytes
 
     INWAV:  cpu time    0.0000: real time    0.0000
 initial charge density was supplied:
 number of electron     401.9999788 magnetization 
 keeping initial charge density in first step


--------------------------------------------------------------------------------------------------------


 Maximum index for non-local projection operator         2776
 Maximum index for augmentation-charges          370 (set IRDMAX)


--------------------------------------------------------------------------------------------------------


 First call to EWALD:  gamma=   0.172
 Maximum number of real-space cells 4x 4x 2
 Maximum number of reciprocal cells 2x 2x 5

    FEWALD:  cpu time    0.0015: real time    0.0016


--------------------------------------- Iteration      1(   1)  ---------------------------------------


    POTLOK:  cpu time    0.0274: real time    0.0276
    SETDIJ:  cpu time    0.0040: real time    0.0041
     EDDAV:  cpu time    5.7185: real time    5.7216
 BZINTS: Fermi energy:   13.866073;  402.000000 electrons
         Band energy: 0.267800E+04;  BLOECHL correction:   -0.004586
       DOS:  cpu time    0.0102: real time    0.0103
    --------------------------------------------
      LOOP:  cpu time    5.7601: real time    5.7636

 eigenvalue-minimisations  :  5040
 total energy-change (2. order) : 0.3597906E+04  (-0.1729879E+05)
 number of electron     401.9999788 magnetization 
 augmentation part      401.9999788 magnetization 

 Free energy of the ion-electron system (eV)
  ---------------------------------------------------
  alpha Z        PSCENC =       884.84632362
  Ewald energy   TEWEN  =    149056.85660544
  -Hartree energ DENC   =   -197010.69665666
  -exchange      EXHF   =         0.00000000
  -V(xc)+E(xc)   XCENC  =      1619.97151566
  PAW double counting   =     47256.05951574   -51093.82948333
  entropy T*S    EENTRO =         0.00000000
  eigenvalues    EBANDS =      2678.00486433
  atomic energy  EATOM  =     50206.69285852
  Solvation  Ediel_sol  =         0.00000000
  ---------------------------------------------------
  free energy    TOTEN  =      3597.90554333 eV

  energy without entropy =     3597.90554333  energy(sigma->0) =     3597.90554333


--------------------------------------------------------------------------------------------------------




--------------------------------------- Iteration      1(   2)  ---------------------------------------


     EDDAV:  cpu time    5.6893: real time    5.6911
 BZINTS: Fermi energy:    3.215767;  402.000000 electrons
         Band energy:-0.573985E+03;  BLOECHL correction:   -0.017352
       DOS:  cpu time    0.0105: real time    0.0105
    --------------------------------------------
      LOOP:  cpu time    5.6998: real time    5.7016

 eigenvalue-minimisations  :  5040
 total energy-change (2. order) :-0.3251990E+04  (-0.3130841E+04)
 number of electron     401.9999788 magnetization 
 augmentation part      401.9999788 magnetization 

 Free energy of the ion-electron system (eV)
  ---------------------------------------------------
  alpha Z        PSCENC =       884.84632362
  Ewald energy   TEWEN  =    149056.85660544
  -Hartree energ DENC   =   -197010.69665666
  -exchange      EXHF   =         0.00000000
  -V(xc)+E(xc)   XCENC  =      1619.97151566
  PAW double counting   =     47256.05951574   -51093.82948333
  entropy T*S    EENTRO =         0.00000000
  eigenvalues    EBANDS =      -573.98477935
  atomic energy  EATOM  =     50206.69285852
  Solvation  Ediel_sol  =         0.00000000
  ---------------------------------------------------
  free energy    TOTEN  =       345.91589964 eV

  energy without entropy =      345.91589964  energy(sigma->0) =      345.91589964


--------------------------------------------------------------------------------------------------------




--------------------------------------- Iteration      1(   3)  ---------------------------------------


     EDDAV:  cpu time    6.3362: real time    6.3382
 BZINTS: Fermi energy:    0.577209;  402.000000 electrons
         Band energy:-0.102804E+04;  BLOECHL correction:   -0.045242
       DOS:  cpu time    0.0095: real time    0.0095
    --------------------------------------------
      LOOP:  cpu time    6.3457: real time    6.3477

 eigenvalue-minimisations  :  5740
 total energy-change (2. order) :-0.4540559E+03  (-0.4297322E+03)
 number of electron     401.9999788 magnetization 
 augmentation part      401.9999788 magnetization 

 Free energy of the ion-electron system (eV)
  ---------------------------------------------------
  alpha Z        PSCENC =       884.84632362
  Ewald energy   TEWEN  =    149056.85660544
  -Hartree energ DENC   =   -197010.69665666
  -exchange      EXHF   =         0.00000000
  -V(xc)+E(xc)   XCENC  =      1619.97151566
  PAW double counting   =     47256.05951574   -51093.82948333
  entropy T*S    EENTRO =         0.00000000
  eigenvalues    EBANDS =     -1028.04070480
  atomic energy  EATOM  =     50206.69285852
  Solvation  Ediel_sol  =         0.00000000
  ---------------------------------------------------
  free energy    TOTEN  =      -108.14002581 eV

  energy without entropy =     -108.14002581  energy(sigma->0) =     -108.14002581


--------------------------------------------------------------------------------------------------------




--------------------------------------- Iteration      1(   4)  ---------------------------------------


     EDDAV:  cpu time    7.5050: real time    7.5072
 BZINTS: Fermi energy:    0.234490;  402.000000 electrons
         Band energy:-0.105662E+04;  BLOECHL correction:   -0.044468
       DOS:  cpu time    0.0103: real time    0.0103
    --------------------------------------------
      LOOP:  cpu time    7.5154: real time    7.5175

 eigenvalue-minimisations  :  7028
 total energy-change (2. order) :-0.2858004E+02  (-0.2781243E+02)
 number of electron     401.9999788 magnetization 
 augmentation part      401.9999788 magnetization 

 Free energy of the ion-electron system (eV)
  ---------------------------------------------------
  alpha Z        PSCENC =       884.84632362
  Ewald energy   TEWEN  =    149056.85660544
  -Hartree energ DENC   =   -197010.69665666
  -exchange      EXHF   =         0.00000000
  -V(xc)+E(xc)   XCENC  =      1619.97151566
  PAW double counting   =     47256.05951574   -51093.82948333
  entropy T*S    EENTRO =         0.00000000
  eigenvalues    EBANDS =     -1056.62074873
  atomic energy  EATOM  =     50206.69285852
  Solvation  Ediel_sol  =         0.00000000
  ---------------------------------------------------
  free energy    TOTEN  =      -136.72006974 eV

  energy without entropy =     -136.72006974  energy(sigma->0) =     -136.72006974


--------------------------------------------------------------------------------------------------------




--------------------------------------- Iteration      1(   5)  ---------------------------------------


     EDDAV:  cpu time    6.4410: real time    6.4426
 BZINTS: Fermi energy:    0.227177;  402.000000 electrons
         Band energy:-0.105729E+04;  BLOECHL correction:   -0.045565
       DOS:  cpu time    0.0104: real time    0.0104
    --------------------------------------------
      LOOP:  cpu time    6.4514: real time    6.4530

 eigenvalue-minimisations  :  5852
 total energy-change (2. order) :-0.6647349E+00  (-0.6635969E+00)
 number of electron     401.9999788 magnetization 
 augmentation part      401.9999788 magnetization 

 Free energy of the ion-electron system (eV)
  ---------------------------------------------------
  alpha Z        PSCENC =       884.84632362
  Ewald energy   TEWEN  =    149056.85660544
  -Hartree energ DENC   =   -197010.69665666
  -exchange      EXHF   =         0.00000000
  -V(xc)+E(xc)   XCENC  =      1619.97151566
  PAW double counting   =     47256.05951574   -51093.82948333
  entropy T*S    EENTRO =         0.00000000
  eigenvalues    EBANDS =     -1057.28548361
  atomic energy  EATOM  =     50206.69285852
  Solvation  Ediel_sol  =         0.00000000
  ---------------------------------------------------
  free energy    TOTEN  =      -137.38480461 eV

  energy without entropy =     -137.38480461  energy(sigma->0) =     -137.38480461


--------------------------------------------------------------------------------------------------------




--------------------------------------- Iteration      1(   6)  ---------------------------------------


    EDDIAG:  cpu time    1.0552: real time    1.0557
  RMM-DIIS:  cpu time    3.0516: real time    3.0525
    ORTHCH:  cpu time    0.2099: real time    0.2100
 BZINTS: Fermi energy:    0.227086;  402.000000 electrons
         Band energy:-0.105730E+04;  BLOECHL correction:   -0.045596
       DOS:  cpu time    0.0103: real time    0.0103
    --------------------------------------------
      LOOP:  cpu time    4.3271: real time    4.3285

 eigenvalue-minimisations  :  5341
 total energy-change (2. order) :-0.1378464E-01  (-0.1378142E-01)
 number of electron     401.9999788 magnetization 
 augmentation part      401.9999788 magnetization 

 Free energy of the ion-electron system (eV)
  ---------------------------------------------------
  alpha Z        PSCENC =       884.84632362
  Ewald energy   TEWEN  =    149056.85660544
  -Hartree energ DENC   =   -197010.69665666
  -exchange      EXHF   =         0.00000000
  -V(xc)+E(xc)   XCENC  =      1619.97151566
  PAW double counting   =     47256.05951574   -51093.82948333
  entropy T*S    EENTRO =         0.00000000
  eigenvalues    EBANDS =     -1057.29926824
  atomic energy  EATOM  =     50206.69285852
  Solvation  Ediel_sol  =         0.00000000
  ---------------------------------------------------
  free energy    TOTEN  =      -137.39858925 eV

  energy without entropy =     -137.39858925  energy(sigma->0) =     -137.39858925


--------------------------------------------------------------------------------------------------------




--------------------------------------- Iteration      1(   7)  ---------------------------------------


    EDDIAG:  cpu time    1.0565: real time    1.0568
  RMM-DIIS:  cpu time    4.3696: real time    4.3710
    ORTHCH:  cpu time    0.2081: real time    0.2081
 BZINTS: Fermi energy:    0.227059;  402.000000 electrons
         Band energy:-0.105730E+04;  BLOECHL correction:   -0.045606
       DOS:  cpu time    0.0104: real time    0.0104
    --------------------------------------------
      LOOP:  cpu time    5.6446: real time    5.6463

 eigenvalue-minimisations  :  7734
 total energy-change (2. order) :-0.5634212E-02  (-0.5633117E-02)
 number of electron     401.9999788 magnetization 
 augmentation part      401.9999788 magnetization 

 Free energy of the ion-electron system (eV)
  ---------------------------------------------------
  alpha Z        PSCENC =       884.84632362
  Ewald energy   TEWEN  =    149056.85660544
  -Hartree energ DENC   =   -197010.69665666
  -exchange      EXHF   =         0.00000000
  -V(xc)+E(xc)   XCENC  =      1619.97151566
  PAW double counting   =     47256.05951574   -51093.82948333
  entropy T*S    EENTRO =         0.00000000
  eigenvalues    EBANDS =     -1057.30490245
  atomic energy  EATOM  =     50206.69285852
  Solvation  Ediel_sol  =         0.00000000
  ---------------------------------------------------
  free energy    TOTEN  =      -137.40422346 eV

  energy without entropy =     -137.40422346  energy(sigma->0) =     -137.40422346


--------------------------------------------------------------------------------------------------------




--------------------------------------- Iteration      1(   8)  ---------------------------------------


    EDDIAG:  cpu time    1.0561: real time    1.0566
  RMM-DIIS:  cpu time    3.8653: real time    3.8664
    ORTHCH:  cpu time    0.2081: real time    0.2081
 BZINTS: Fermi energy:    0.227057;  402.000000 electrons
         Band energy:-0.105731E+04;  BLOECHL correction:   -0.045606
       DOS:  cpu time    0.0106: real time    0.0105
    --------------------------------------------
      LOOP:  cpu time    5.1401: real time    5.1416

 eigenvalue-minimisations  :  6866
 total energy-change (2. order) :-0.2870142E-03  (-0.3238171E-03)
 number of electron     401.9999788 magnetization 
 augmentation part      401.9999788 magnetization 

 Free energy of the ion-electron system (eV)
  ---------------------------------------------------
  alpha Z        PSCENC =       884.84632362
  Ewald energy   TEWEN  =    149056.85660544
  -Hartree energ DENC   =   -197010.69665666
  -exchange      EXHF   =         0.00000000
  -V(xc)+E(xc)   XCENC  =      1619.97151566
  PAW double counting   =     47256.05951574   -51093.82948333
  entropy T*S    EENTRO =         0.00000000
  eigenvalues    EBANDS =     -1057.30518947
  atomic energy  EATOM  =     50206.69285852
  Solvation  Ediel_sol  =         0.00000000
  ---------------------------------------------------
  free energy    TOTEN  =      -137.40451048 eV

  energy without entropy =     -137.40451048  energy(sigma->0) =     -137.40451048


--------------------------------------------------------------------------------------------------------




--------------------------------------- Iteration      1(   9)  ---------------------------------------


    EDDIAG:  cpu time    1.0563: real time    1.0566
  RMM-DIIS:  cpu time    4.3032: real time    4.3046
    ORTHCH:  cpu time    0.2084: real time    0.2084
 BZINTS: Fermi energy:    0.227057;  402.000000 electrons
         Band energy:-0.105731E+04;  BLOECHL correction:   -0.045606
       DOS:  cpu time    0.0104: real time    0.0104
    --------------------------------------------
      LOOP:  cpu time    5.5782: real time    5.5800

 eigenvalue-minimisations  :  7660
 total energy-change (2. order) :-0.8522725E-04  (-0.8437772E-04)
 number of electron     401.9999788 magnetization 
 augmentation part      401.9999788 magnetization 

 Free energy of the ion-electron system (eV)
  ---------------------------------------------------
  alpha Z        PSCENC =       884.84632362
  Ewald energy   TEWEN  =    149056.85660544
  -Hartree energ DENC   =   -197010.69665666
  -exchange      EXHF   =         0.00000000
  -V(xc)+E(xc)   XCENC  =      1619.97151566
  PAW double counting   =     47256.05951574   -51093.82948333
  entropy T*S    EENTRO =         0.00000000
  eigenvalues    EBANDS =     -1057.30527470
  atomic energy  EATOM  =     50206.69285852
  Solvation  Ediel_sol  =         0.00000000
  ---------------------------------------------------
  free energy    TOTEN  =      -137.40459570 eV

  energy without entropy =     -137.40459570  energy(sigma->0) =     -137.40459570


--------------------------------------------------------------------------------------------------------




--------------------------------------- Iteration      1(  10)  ---------------------------------------


    EDDIAG:  cpu time    1.0567: real time    1.0599
  RMM-DIIS:  cpu time    3.1257: real time    3.1266
    ORTHCH:  cpu time    0.2086: real time    0.2086
 BZINTS: Fermi energy:    0.227057;  402.000000 electrons
         Band energy:-0.105731E+04;  BLOECHL correction:   -0.045606
       DOS:  cpu time    0.0106: real time    0.0106
    --------------------------------------------
      LOOP:  cpu time    4.4016: real time    4.4057

 eigenvalue-minimisations  :  5302
 total energy-change (2. order) :-0.1086196E-04  (-0.1073133E-04)
 number of electron     401.9999788 magnetization 
 augmentation part      401.9999788 magnetization 

 Free energy of the ion-electron system (eV)
  ---------------------------------------------------
  alpha Z        PSCENC =       884.84632362
  Ewald energy   TEWEN  =    149056.85660544
  -Hartree energ DENC   =   -197010.69665666
  -exchange      EXHF   =         0.00000000
  -V(xc)+E(xc)   XCENC  =      1619.97151566
  PAW double counting   =     47256.05951574   -51093.82948333
  entropy T*S    EENTRO =         0.00000000
  eigenvalues    EBANDS =     -1057.30528556
  atomic energy  EATOM  =     50206.69285852
  Solvation  Ediel_sol  =         0.00000000
  ---------------------------------------------------
  free energy    TOTEN  =      -137.40460656 eV

  energy without entropy =     -137.40460656  energy(sigma->0) =     -137.40460656


--------------------------------------------------------------------------------------------------------




--------------------------------------- Iteration      1(  11)  ---------------------------------------


    EDDIAG:  cpu time    1.0561: real time    1.0565
  RMM-DIIS:  cpu time    2.4675: real time    2.4683
    ORTHCH:  cpu time    0.2081: real time    0.2081
 BZINTS: Fermi energy:    0.227057;  402.000000 electrons
         Band energy:-0.105731E+04;  BLOECHL correction:   -0.045606
       DOS:  cpu time    0.0106: real time    0.0105
    --------------------------------------------
      LOOP:  cpu time    3.7422: real time    3.7435

 eigenvalue-minimisations  :  3633
 total energy-change (2. order) :-0.1906214E-05  (-0.1967625E-05)
 number of electron     401.9999788 magnetization 
 augmentation part      401.9999788 magnetization 

 Free energy of the ion-electron system (eV)
  ---------------------------------------------------
  alpha Z        PSCENC =       884.84632362
  Ewald energy   TEWEN  =    149056.85660544
  -Hartree energ DENC   =   -197010.69665666
  -exchange      EXHF   =         0.00000000
  -V(xc)+E(xc)   XCENC  =      1619.97151566
  PAW double counting   =     47256.05951574   -51093.82948333
  entropy T*S    EENTRO =         0.00000000
  eigenvalues    EBANDS =     -1057.30528746
  atomic energy  EATOM  =     50206.69285852
  Solvation  Ediel_sol  =         0.00000000
  ---------------------------------------------------
  free energy    TOTEN  =      -137.40460847 eV

  energy without entropy =     -137.40460847  energy(sigma->0) =     -137.40460847


--------------------------------------------------------------------------------------------------------




 average (electrostatic) potential at core
  the test charge radii are     0.9430  0.9791  0.7215  0.5201
  (the norm of the test charge is              1.0000)
       1 -70.7400       2 -70.7135       3 -70.7134       4 -70.7135       5 -70.7188
       6 -70.7132       7 -70.7134       8 -70.7132       9 -70.7297      10 -70.9922
      11 -70.9721      12 -70.9920      13 -70.9721      14 -70.9717      15 -70.9889
      16 -70.9920      17 -70.9889      18 -70.9890      19 -70.9784      20 -70.9764
      21 -70.9762      22 -70.9919      23 -70.9762      24 -70.9916      25 -70.9784
      26 -70.9784      27 -70.9919      28 -70.6931      29 -70.6877      30 -70.6877
      31 -70.6877      32 -70.6875      33 -70.6877      34 -70.6875      35 -70.7207
      36 -90.8459      37 -75.1220      38 -39.6927
 
 
 
 E-fermi :   0.2271     XC(G=0):  -5.9459     alpha+bet : -5.3395

 Fermi energy:         0.2270571471

 k-point     1 :       0.0000    0.0000    0.0000
  band No.  band energies     occupation 
      1     -18.7332      2.00000
      2      -8.5733      2.00000
      3      -7.5156      2.00000
      4      -7.0539      2.00000
      5      -5.5807      2.00000
      6      -5.5605      2.00000
      7      -5.5605      2.00000
      8      -5.5583      2.00000
      9      -5.5526      2.00000
     10      -5.5525      2.00000
     11      -5.4744      2.00000
     12      -4.7847      2.00000
     13      -4.7832      2.00000
     14      -4.7832      2.00000
     15      -4.7753      2.00000
     16      -4.7708      2.00000
     17      -4.7708      2.00000
     18      -4.6724      2.00000
     19      -4.1059      2.00000
     20      -4.1058      2.00000
     21      -4.0848      2.00000
     22      -4.0676      2.00000
     23      -4.0676      2.00000
     24      -4.0162      2.00000
     25      -3.7914      2.00000
     26      -3.7914      2.00000
     27      -3.7907      2.00000
     28      -3.7883      2.00000
     29      -3.7883      2.00000
     30      -3.7768      2.00000
     31      -3.6210      2.00000
     32      -3.6210      2.00000
     33      -3.6181      2.00000
     34      -3.6181      2.00000
     35      -3.6103      2.00000
     36      -3.6074      2.00000
     37      -3.5831      2.00000
     38      -3.5830      2.00000
     39      -3.5527      2.00000
     40      -3.5251      2.00000
     41      -3.5221      2.00000
     42      -3.5221      2.00000
     43      -3.4770      2.00000
     44      -3.4770      2.00000
     45      -3.4696      2.00000
     46      -3.4696      2.00000
     47      -3.3636      2.00000
     48      -3.3543      2.00000
     49      -3.3342      2.00000
     50      -3.3342      2.00000
     51      -3.2698      2.00000
     52      -3.2543      2.00000
     53      -3.2543      2.00000
     54      -3.2498      2.00000
     55      -3.2311      2.00000
     56      -3.2145      2.00000
     57      -3.1117      2.00000
     58      -3.1116      2.00000
     59      -2.9278      2.00000
     60      -2.9278      2.00000
     61      -2.9265      2.00000
     62      -2.9125      2.00000
     63      -2.8636      2.00000
     64      -2.8636      2.00000
     65      -2.8150      2.00000
     66      -2.8150      2.00000
     67      -2.7885      2.00000
     68      -2.7885      2.00000
     69      -2.7737      2.00000
     70      -2.7677      2.00000
     71      -2.7654      2.00000
     72      -2.7654      2.00000
     73      -2.7592      2.00000
     74      -2.7483      2.00000
     75      -2.7483      2.00000
     76      -2.6795      2.00000
     77      -2.6783      2.00000
     78      -2.6783      2.00000
     79      -2.6301      2.00000
     80      -2.6301      2.00000
     81      -2.5727      2.00000
     82      -2.5727      2.00000
     83      -2.5707      2.00000
     84      -2.5483      2.00000
     85      -2.5483      2.00000
     86      -2.5361      2.00000
     87      -2.4966      2.00000
     88      -2.4966      2.00000
     89      -2.4963      2.00000
     90      -2.4914      2.00000
     91      -2.4913      2.00000
     92      -2.4895      2.00000
     93      -2.4422      2.00000
     94      -2.4422      2.00000
     95      -2.4082      2.00000
     96      -2.4082      2.00000
     97      -2.3929      2.00000
     98      -2.3929      2.00000
     99      -2.3814      2.00000
    100      -2.3654      2.00000
    101      -2.3654      2.00000
    102      -2.3516      2.00000
    103      -2.3516      2.00000
    104      -2.3321      2.00000
    105      -2.3321      2.00000
    106      -2.3205      2.00000
    107      -2.2364      2.00000
    108      -2.2364      2.00000
    109      -2.2260      2.00000
    110      -2.1984      2.00000
    111      -2.1984      2.00000
    112      -2.0803      2.00000
    113      -2.0789      2.00000
    114      -2.0789      2.00000
    115      -2.0756      2.00000
    116      -2.0722      2.00000
    117      -2.0600      2.00000
    118      -2.0600      2.00000
    119      -2.0499      2.00000
    120      -2.0499      2.00000
    121      -2.0388      2.00000
    122      -2.0225      2.00000
    123      -2.0168      2.00000
    124      -1.9619      2.00000
    125      -1.9619      2.00000
    126      -1.8804      2.00000
    127      -1.8804      2.00000
    128      -1.8517      2.00000
    129      -1.8476      2.00000
    130      -1.8476      2.00000
    131      -1.8379      2.00000
    132      -1.8379      2.00000
    133      -1.7983      2.00000
    134      -1.7975      2.00000
    135      -1.7974      2.00000
    136      -1.7609      2.00000
    137      -1.7608      2.00000
    138      -1.7606      2.00000
    139      -1.7595      2.00000
    140      -1.7529      2.00000
    141      -1.7529      2.00000
    142      -1.7189      2.00000
    143      -1.7189      2.00000
    144      -1.6385      2.00000
    145      -1.6384      2.00000
    146      -1.6192      2.00000
    147      -1.6133      2.00000
    148      -1.6133      2.00000
    149      -1.6054      2.00000
    150      -1.6037      2.00000
    151      -1.6037      2.00000
    152      -1.6008      2.00000
    153      -1.5942      2.00000
    154      -1.5941      2.00000
    155      -1.5694      2.00000
    156      -1.5344      2.00000
    157      -1.5344      2.00000
    158      -1.4792      2.00000
    159      -1.4770      2.00000
    160      -1.4767      2.00000
    161      -1.4767      2.00000
    162      -1.4766      2.00000
    163      -1.4717      2.00000
    164      -1.4632      2.00000
    165      -1.4632      2.00000
    166      -1.4457      2.00000
    167      -1.4457      2.00000
    168      -1.4255      2.00000
    169      -1.4239      2.00000
    170      -1.4239      2.00000
    171      -1.4099      2.00000
    172      -1.4099      2.00000
    173      -1.4066      2.00000
    174      -1.4044      2.00000
    175      -1.3993      2.00000
    176      -1.3981      2.00000
    177      -1.3980      2.00000
    178      -1.3961      2.00000
    179      -1.3961      2.00000
    180      -1.3874      2.00000
    181      -1.3874      2.00000
    182      -1.3698      2.00000
    183      -1.3697      2.00000
    184      -1.3697      2.00000
    185      -1.3662      2.00000
    186      -1.3636      2.00000
    187      -1.2963      2.00000
    188      -1.2963      2.00000
    189      -1.2784      2.00000
    190      -1.2784      2.00000
    191      -1.2562      2.00000
    192      -1.2562      2.00000
    193      -1.2558      2.00000
    194      -1.2528      2.00000
    195      -0.9175      2.00000
    196      -0.6765      2.00000
    197      -0.6765      2.00000
    198      -0.6159      2.00000
    199      -0.3331      2.00000
    200      -0.3331      2.00000
    201      -0.0815      2.00000
    202      -0.0639      2.00000
    203      -0.0639      2.00000
    204       0.1113      2.15946
    205       0.1930      0.35774
    206       0.1930      0.23047
    207       0.8482      0.00000
    208       2.2525      0.00000
    209       2.2757      0.00000
    210       2.2757      0.00000
    211       2.4566      0.00000
    212       2.4566      0.00000
    213       3.0363      0.00000
    214       3.6542      0.00000
    215       3.6810      0.00000
    216       3.9154      0.00000
    217       3.9154      0.00000
    218       3.9534      0.00000
    219       3.9534      0.00000
[...]
  0.000   0.000   0.000   0.000   0.000   0.000   0.000   0.000   0.000   0.000   0.000   0.000   0.000   0.000   0.000   0.000
  0.000   0.000   0.000   0.000   0.000   0.000   0.000   0.000   0.000   0.000   0.000   0.000   0.000   0.000   0.000   0.000
  0.000   0.000   0.000   0.000   0.000   0.000   0.000   0.000   0.000   0.000   1.000   0.000   0.000   0.000   0.000   0.000
  0.000   0.000   0.000   0.000   0.000   0.000   0.000   0.000   0.000   0.000   0.000   0.000   0.000   0.000   0.000   0.000
  0.000   0.000   0.000   0.000   0.000   0.000   0.000   0.000   0.000   0.000   0.000   0.000   0.000   0.000   0.000   0.000
  0.000   0.000   0.000   0.000   0.000   0.000   0.000   0.000   0.000   0.000   0.000   0.000   0.000   0.000   0.000   0.000
  0.000   0.000   0.000   0.000   0.000   0.000   0.000   0.000   0.000   0.000   0.000   0.000   0.000   0.000   0.000   0.000
  0.000   0.000   0.000   0.000   0.000   0.000   0.000   0.000   0.000   0.000   0.000   0.000   0.000   0.000   0.000   0.000
  0.000   0.000   0.000   0.000   0.000   0.000   0.000   0.000   0.000   0.000   0.000   0.000   0.000   0.000   0.000   0.000
  0.000   0.000   0.000   0.000   0.000   0.000   0.000   0.000   0.000   0.000   0.000   0.000   0.000   0.000   0.000   0.000


------------------------ aborting loop because EDIFF is reached ----------------------------------------





 total charge

# of ion       s       p       d       tot
------------------------------------------
    1        0.446   0.285   9.188   9.919
    2        0.449   0.285   9.188   9.921
    3        0.449   0.285   9.188   9.921
    4        0.449   0.285   9.188   9.921
    5        0.446   0.287   9.188   9.921
    6        0.449   0.285   9.188   9.921
    7        0.449   0.285   9.188   9.921
    8        0.449   0.285   9.188   9.921
    9        0.445   0.286   9.188   9.919
   10        0.441   0.372   9.180   9.993
   11        0.443   0.369   9.183   9.995
   12        0.441   0.372   9.180   9.993
   13        0.443   0.369   9.183   9.995
   14        0.443   0.369   9.183   9.995
   15        0.440   0.371   9.181   9.992
   16        0.441   0.372   9.180   9.993
   17        0.440   0.371   9.181   9.992
   18        0.440   0.371   9.181   9.992
   19        0.441   0.375   9.179   9.995
   20        0.448   0.386   9.173  10.007
   21        0.448   0.386   9.173  10.007
   22        0.441   0.373   9.184   9.998
   23        0.448   0.386   9.173  10.007
   24        0.441   0.373   9.184   9.998
   25        0.441   0.375   9.179   9.995
   26        0.441   0.375   9.179   9.995
   27        0.441   0.373   9.184   9.998
   28        0.451   0.284   9.194   9.929
   29        0.439   0.282   9.199   9.920
   30        0.439   0.282   9.199   9.920
   31        0.439   0.282   9.199   9.920
   32        0.439   0.282   9.199   9.920
   33        0.439   0.282   9.199   9.920
   34        0.439   0.282   9.199   9.920
   35        0.448   0.287   9.189   9.924
   36        0.451   0.477   8.349   9.277
   37        1.545   3.515   0.000   5.060
   38        0.610   0.127   0.000   0.737
--------------------------------------------------
tot         18.134  15.685 329.859 363.678
 
    CHARGE:  cpu time    0.2121: real time    0.2121
    FORLOC:  cpu time    0.0080: real time    0.0080
    FORNL :  cpu time    1.1899: real time    1.1903
    STRESS:  cpu time    3.5242: real time    3.5255
    FORCOR:  cpu time    0.0280: real time    0.0280
    FORHAR:  cpu time    0.0122: real time    0.0122
    OFIELD:  cpu time    0.0001: real time    0.0001

  FORCE on cell =-STRESS in cart. coord.  units (eV):
  Direction    XX          YY          ZZ          XY          YZ          ZX
  --------------------------------------------------------------------------------------
  Alpha Z   884.84632   884.84632   884.84632
  Ewald  175199.27929175199.27881************     0.00042     0.00011     0.00020
  Hartree188613.42182188613.42176************     0.00006     0.00005     0.00009
  E(xc)   -2335.44000 -2335.43957 -2338.86643    -0.00038    -0.00003    -0.00006
  Local  ************************376922.08954     0.01899    -0.00059    -0.00104
  n-local  -798.28225  -786.65861  -808.58828     7.01965     0.00529     0.13467
  augment  3493.33973  3493.36018  3500.78349    -0.01771     0.00027     0.00047
  Kinetic  3358.63386  3360.09844  3349.37744     3.83148     1.79775    -1.15860
  Fock        0.00000     0.00000     0.00000     0.00000     0.00000     0.00000
  -------------------------------------------------------------------------------------
  Total      -3.09167    -3.09167     4.02023     0.00000     0.00000     0.00000
  in kB      -4.53621    -4.53621     5.89863     0.00000     0.00000     0.00000
  external pressure =       -1.06 kB  Pullay stress =        0.00 kB


 VOLUME and BASIS-vectors are now :
 -----------------------------------------------------------------------------
  energy-cutoff  :      500.00
  volume of cell :     1091.97
      direct lattice vectors                 reciprocal lattice vectors
     7.696786404  0.000000000  0.000000000     0.129924354 -0.075011849  0.000000000
     3.848392758  6.665612809  0.000000000     0.000000000  0.150023716  0.000000000
     0.000000000  0.000000000 21.284399033     0.000000000  0.000000000  0.046982769

  length of vectors
     7.696786404  7.696786404 21.284399033     0.150023716  0.150023716  0.046982769


 FORCES acting on ions
    electron-ion (+dipol)            ewald-force                    non-local-force                 convergence-correction
 -----------------------------------------------------------------------------------------------
   -.415E-04 0.201E-06 0.352E+04   0.578E-04 -.445E-05 -.351E+04   -.496E-17 -.630E-18 -.281E+01   -.307E-03 -.144E-03 -.127E+01
   0.352E+00 0.315E+00 0.352E+04   -.250E+00 -.308E+00 -.351E+04   -.918E-02 0.504E-01 -.200E+01   -.873E-01 -.469E-01 -.111E+01
   -.352E+00 0.315E+00 0.352E+04   0.250E+00 -.309E+00 -.351E+04   0.918E-02 0.504E-01 -.200E+01   0.881E-01 -.444E-01 -.111E+01
   0.449E+00 0.147E+00 0.352E+04   -.392E+00 -.625E-01 -.351E+04   0.390E-01 -.331E-01 -.200E+01   -.842E-01 -.522E-01 -.111E+01
   -.667E-04 -.626E-05 0.352E+04   0.116E-03 -.101E-04 -.351E+04   -.213E-17 0.165E-17 -.188E+01   0.122E-01 0.744E-02 -.970E+00
   -.449E+00 0.148E+00 0.352E+04   0.392E+00 -.627E-01 -.351E+04   -.390E-01 -.331E-01 -.200E+01   0.826E-01 -.509E-01 -.111E+01
   0.967E-01 -.462E+00 0.352E+04   -.142E+00 0.371E+00 -.351E+04   0.482E-01 -.172E-01 -.200E+01   0.565E-02 0.984E-01 -.111E+01
   -.966E-01 -.462E+00 0.352E+04   0.142E+00 0.371E+00 -.351E+04   -.482E-01 -.172E-01 -.200E+01   -.216E-02 0.970E-01 -.111E+01
   -.144E-03 -.328E-04 0.352E+04   0.264E-03 0.206E-04 -.351E+04   0.368E-18 -.408E-17 -.247E+01   -.132E-01 -.683E-02 -.116E+01
   0.307E+01 0.177E+01 0.122E+04   -.276E+01 -.159E+01 -.122E+04   -.313E+00 -.181E+00 -.849E+00   0.251E-01 0.144E-01 -.130E+00
   -.901E-04 0.291E+01 0.122E+04   0.190E-03 -.293E+01 -.122E+04   0.250E-08 -.375E-01 -.612E+00   0.117E-01 0.460E-01 0.159E+00
   -.307E+01 0.177E+01 0.122E+04   0.276E+01 -.159E+01 -.122E+04   0.313E+00 -.181E+00 -.849E+00   -.265E-01 0.160E-01 -.130E+00
   0.252E+01 -.145E+01 0.122E+04   -.254E+01 0.147E+01 -.122E+04   -.325E-01 0.188E-01 -.612E+00   0.462E-01 -.120E-01 0.159E+00
   -.252E+01 -.145E+01 0.122E+04   0.254E+01 0.147E+01 -.122E+04   0.325E-01 0.188E-01 -.612E+00   -.221E-01 -.131E-01 0.158E+00
   -.144E-03 0.399E-02 0.122E+04   0.300E-03 -.955E-01 -.122E+04   -.273E-08 0.409E-01 -.811E+00   -.353E-02 0.384E-01 -.199E+00
   -.910E-04 -.354E+01 0.122E+04   0.185E-03 0.319E+01 -.122E+04   -.240E-07 0.361E+00 -.849E+00   -.354E-03 -.322E-01 -.130E+00
   0.342E-02 -.212E-02 0.122E+04   -.827E-01 0.480E-01 -.122E+04   0.355E-01 -.205E-01 -.811E+00   0.322E-01 -.223E-01 -.199E+00
   -.333E-02 -.208E-02 0.122E+04   0.825E-01 0.480E-01 -.122E+04   -.355E-01 -.205E-01 -.811E+00   -.311E-01 -.196E-01 -.198E+00
   -.543E-04 0.228E+01 -.111E+04   0.654E-04 -.235E+01 0.111E+04   -.103E-07 0.155E+00 0.951E+00   -.108E-01 -.760E-01 0.732E+00
   0.135E+02 0.779E+01 -.108E+04   -.131E+02 -.758E+01 0.108E+04   -.725E+00 -.418E+00 -.795E+00   0.403E+00 0.232E+00 0.100E+01
   -.135E+02 0.779E+01 -.108E+04   0.131E+02 -.758E+01 0.108E+04   0.725E+00 -.418E+00 -.795E+00   -.421E+00 0.233E+00 0.100E+01
   0.735E+01 -.424E+01 -.110E+04   -.759E+01 0.438E+01 0.110E+04   0.157E+00 -.904E-01 0.764E+00   0.116E+00 -.796E-01 0.694E+00
   -.714E-04 -.156E+02 -.108E+04   0.141E-03 0.152E+02 0.108E+04   -.557E-07 0.837E+00 -.795E+00   -.101E-01 -.482E+00 0.100E+01
   -.735E+01 -.424E+01 -.110E+04   0.759E+01 0.438E+01 0.110E+04   -.157E+00 -.904E-01 0.764E+00   -.137E+00 -.800E-01 0.694E+00
   -.198E+01 -.114E+01 -.111E+04   0.204E+01 0.117E+01 0.111E+04   -.134E+00 -.776E-01 0.951E+00   0.515E-01 0.297E-01 0.732E+00
   0.198E+01 -.114E+01 -.111E+04   -.204E+01 0.117E+01 0.111E+04   0.134E+00 -.776E-01 0.951E+00   -.708E-01 0.288E-01 0.732E+00
   -.133E-03 0.849E+01 -.110E+04   0.245E-03 -.877E+01 0.110E+04   -.120E-07 0.181E+00 0.764E+00   -.109E-01 0.140E+00 0.694E+00
   -.245E-04 0.214E-04 -.344E+04   0.312E-04 -.356E-04 0.343E+04   0.245E-17 -.141E-17 0.209E+01   -.517E-04 0.200E-04 0.111E+01
   0.272E+02 0.479E+02 -.342E+04   -.279E+02 -.495E+02 0.341E+04   0.443E+00 0.105E+01 0.343E+01   0.111E+00 0.341E+00 0.942E+00
   -.272E+02 0.479E+02 -.342E+04   0.279E+02 -.495E+02 0.341E+04   -.443E+00 0.105E+01 0.343E+01   -.110E+00 0.344E+00 0.942E+00
   0.551E+02 -.380E+00 -.342E+04   -.568E+02 0.603E+00 0.341E+04   0.113E+01 -.139E+00 0.343E+01   0.351E+00 -.748E-01 0.942E+00
   -.551E+02 -.380E+00 -.342E+04   0.568E+02 0.602E+00 0.341E+04   -.113E+01 -.139E+00 0.343E+01   -.352E+00 -.738E-01 0.942E+00
   0.279E+02 -.476E+02 -.342E+04   -.289E+02 0.489E+02 0.341E+04   0.684E+00 -.906E+00 0.343E+01   0.243E+00 -.267E+00 0.942E+00
   -.279E+02 -.476E+02 -.342E+04   0.289E+02 0.489E+02 0.341E+04   -.684E+00 -.906E+00 0.343E+01   -.239E+00 -.268E+00 0.942E+00
   -.135E-03 -.179E-04 -.344E+04   0.260E-03 0.695E-05 0.343E+04   0.246E-18 0.390E-17 0.211E+01   -.130E-01 -.669E-02 0.102E+01
   -.711E-04 -.243E-04 -.284E+04   0.130E-03 0.238E-04 0.284E+04   -.171E-17 0.328E-17 0.804E+00   0.891E-02 0.543E-02 0.381E+00
   0.187E-03 -.786E-04 -.221E+04   0.169E-04 0.810E-05 0.218E+04   -.443E-18 0.114E-17 0.224E+02   0.339E-02 0.206E-02 -.373E+00
   0.471E-05 -.133E-04 -.400E+03   0.638E-06 0.549E-06 0.408E+03   -.292E-19 -.341E-19 -.835E+01   0.184E-03 0.111E-03 -.582E-02
 -----------------------------------------------------------------------------------------------
   -.515E-04 -.975E-04 -.210E+02   0.909E-13 0.135E-13 0.762E-11   0.220E-15 -.436E-15 0.164E+02   -.553E-01 -.346E-01 0.450E+01
 
 
 POSITION                                       TOTAL-FORCE (eV/Angst)
 -----------------------------------------------------------------------------------
      0.00000      0.00000      5.37156        -0.000000     -0.000000      0.080782
      2.56560      0.00000      5.37156         0.005662      0.010903      0.094988
      5.13119      0.00000      5.37156        -0.005662      0.010903      0.094988
      1.28280      2.22187      5.37156         0.012273     -0.000548      0.094988
      3.84839      2.22187      5.37156        -0.000000     -0.000000      0.099104
      6.41399      2.22187      5.37156        -0.012273     -0.000548      0.094988
      2.56560      4.44374      5.37156         0.006611     -0.010355      0.094988
      5.13119      4.44374      5.37156        -0.006611     -0.010355      0.094988
      7.69679      4.44374      5.37156        -0.000000     -0.000000      0.071836
      1.28280      0.74062      7.46636         0.021313      0.012305     -0.055552
      3.84839      0.74062      7.46636         0.000000     -0.024730     -0.132785
      6.41399      0.74062      7.46636        -0.021313      0.012305     -0.055552
      2.56560      2.96249      7.46636        -0.021417      0.012365     -0.132785
      5.13119      2.96249      7.46636         0.021417      0.012365     -0.132785
      7.69679      2.96249      7.46636         0.000000     -0.012536     -0.069209
      3.84839      5.18437      7.46636         0.000000     -0.024611     -0.055552
      6.41399      5.18437      7.46636        -0.010857      0.006268     -0.069209
      8.97958      5.18437      7.46636         0.010857      0.006268     -0.069209
      7.69679      1.48353      9.55071        -0.000000      0.018720      0.030570
      2.56540      1.48114      9.54275         0.053996      0.031175     -0.080564
      5.13138      1.48114      9.54275        -0.053996      0.031175     -0.080564
      8.97935      3.70325      9.54809         0.040060     -0.023128     -0.002141
      3.84839      3.70334      9.54275         0.000000     -0.062350     -0.080564
      6.41422      3.70325      9.54809        -0.040060     -0.023128     -0.002141
     10.26040      5.92385      9.55071        -0.016212     -0.009360      0.030570
      5.13317      5.92385      9.55071         0.016212     -0.009360      0.030570
      7.69679      5.92472      9.54809        -0.000000      0.046257     -0.002141
      0.00000      0.00000     11.61525        -0.000000     -0.000000     -0.025251
      2.57297      0.01446     11.62005        -0.101508     -0.192653     -0.057352
      5.12381      0.01446     11.62005         0.101508     -0.192653     -0.057352
      1.29901      2.22103     11.62005        -0.217596      0.008418     -0.057352
      6.39777      2.22103     11.62005         0.217596      0.008418     -0.057352
      2.57443      4.43012     11.62005        -0.116088      0.184235     -0.057352
      5.12235      4.43012     11.62005         0.116088      0.184235     -0.057352
      7.69679      4.44374     11.61370        -0.000000     -0.000000      0.008603
      3.84839      2.22187     11.53520        -0.000000     -0.000000      0.566934
      3.84839      2.22187     13.34954        -0.000000     -0.000000     -0.071715
      3.84839      2.22187     14.31519        -0.000000     -0.000000     -0.027073
 -----------------------------------------------------------------------------------
    total drift:                               -0.055302     -0.034735     -0.060854


--------------------------------------------------------------------------------------------------------



  FREE ENERGIE OF THE ION-ELECTRON SYSTEM (eV)
  ---------------------------------------------------
  free  energy   TOTEN  =      -137.40460847 eV

  energy  without entropy=     -137.40460847  energy(sigma->0) =     -137.40460847
 


--------------------------------------------------------------------------------------------------------


    POTLOK:  cpu time    0.0285: real time    0.0285


--------------------------------------------------------------------------------------------------------


 stress matrix after NEB project (eV)
     -3.09167      0.00000      0.00000
      0.00000     -3.09167      0.00000
     -0.00000      0.00000      4.02023
  FORCES: max atom, RMS     0.071715    0.012435
  FORCE total and by dimension    0.076655    0.071715
  Stress total and by dimension    5.939625    4.020234
     LOOP+:  cpu time   65.6569: real time   65.6859
 -----------------------------------------------------------------------------
|                                                                             |
|           W    W    AA    RRRRR   N    N  II  N    N   GGGG   !!!           |
|           W    W   A  A   R    R  NN   N  II  NN   N  G    G  !!!           |
|           W    W  A    A  R    R  N N  N  II  N N  N  G       !!!           |
|           W WW W  AAAAAA  RRRRR   N  N N  II  N  N N  G  GGG   !            |
|           WW  WW  A    A  R   R   N   NN  II  N   NN  G    G                |
|           W    W  A    A  R    R  N    N  II  N    N   GGGG   !!!           |
|                                                                             |
|     Tetrahedron method does not include variations of the Fermi             |
|     occupations, so forces and stress will be inaccurate. We suggest        |
|     using a different smearing scheme ISMEAR = 1 or 2 for metals in         |
|     relaxations.                                                            |
|                                                                             |
 -----------------------------------------------------------------------------

    4ORBIT:  cpu time    0.0000: real time    0.0000



 total charge

# of ion       s       p       d       tot
------------------------------------------
    1        0.446   0.285   9.188   9.919
    2        0.449   0.285   9.188   9.921
    3        0.449   0.285   9.188   9.921
    4        0.449   0.285   9.188   9.921
    5        0.446   0.287   9.188   9.921
    6        0.449   0.285   9.188   9.921
    7        0.449   0.285   9.188   9.921
    8        0.449   0.285   9.188   9.921
    9        0.445   0.286   9.188   9.919
   10        0.441   0.372   9.180   9.993
   11        0.443   0.369   9.183   9.995
   12        0.441   0.372   9.180   9.993
   13        0.443   0.369   9.183   9.995
   14        0.443   0.369   9.183   9.995
   15        0.440   0.371   9.181   9.992
   16        0.441   0.372   9.180   9.993
   17        0.440   0.371   9.181   9.992
   18        0.440   0.371   9.181   9.992
   19        0.441   0.375   9.179   9.995
   20        0.448   0.386   9.173  10.007
   21        0.448   0.386   9.173  10.007
   22        0.441   0.373   9.184   9.998
   23        0.448   0.386   9.173  10.007
   24        0.441   0.373   9.184   9.998
   25        0.441   0.375   9.179   9.995
   26        0.441   0.375   9.179   9.995
   27        0.441   0.373   9.184   9.998
   28        0.451   0.284   9.194   9.929
   29        0.439   0.282   9.199   9.920
   30        0.439   0.282   9.199   9.920
   31        0.439   0.282   9.199   9.920
   32        0.439   0.282   9.199   9.920
   33        0.439   0.282   9.199   9.920
   34        0.439   0.282   9.199   9.920
   35        0.448   0.287   9.189   9.924
   36        0.451   0.477   8.349   9.277
   37        1.545   3.515   0.000   5.060
   38        0.610   0.127   0.000   0.737
--------------------------------------------------
tot         18.134  15.685 329.859 363.678
 
 BZINTS: Fermi energy:    0.227057;  402.000000 electrons
         Band energy:-0.105731E+04;  BLOECHL correction:   -0.045606

 total amount of memory used by VASP MPI-rank0   105018. kBytes
=======================================================================

   base      :      30000. kBytes
   nonlr-proj:      17629. kBytes
   fftplans  :       2916. kBytes
   grid      :      12878. kBytes
   one-center:        590. kBytes
   wavefun   :      41005. kBytes
 
  
  
 General timing and accounting informations for this job:
 ========================================================
  
                  Total CPU time used (sec):       71.615
                            User time (sec):       68.724
                          System time (sec):        2.891
                         Elapsed time (sec):       72.003
  
                   Maximum memory used (kb):      343900.
                   Average memory used (kb):          N/A
  
                          Minor page faults:        82356
                          Major page faults:            0
                 Voluntary context switches:         4697
