PROCAR new format
# of k-points:   10         # of bands:  252         # of ions:   38

 k-point     1 :    0.00000000 0.00000000 0.00000000     weight = 0.01562500

band     1 # energy  -18.73318461 # occ.  2.00000000
 
ion      s      p      d    tot
    1  0.000  0.000  0.000  0.000
    2  0.000  0.000  0.000  0.000
    3  0.000  0.000  0.000  0.000
    4  0.000  0.000  0.000  0.000
    5  0.000  0.000  0.000  0.000
    6  0.000  0.000  0.000  0.000
    7  0.000  0.000  0.000  0.000
    8  0.000  0.000  0.000  0.000
    9  0.000  0.000  0.000  0.000
   10  0.000  0.000  0.000  0.000
   11  0.000  0.000  0.000  0.000
   12  0.000  0.000  0.000  0.000
   13  0.000  0.000  0.000  0.000
   14  0.000  0.000  0.000  0.000
   15  0.000  0.000  0.000  0.000
   16  0.000  0.000  0.000  0.000
   17  0.000  0.000  0.000  0.000
   18  0.000  0.000  0.000  0.000
   19  0.000  0.000  0.000  0.000
   20  0.000  0.000  0.000  0.000
   21  0.000  0.000  0.000  0.000
   22  0.000  0.000  0.000  0.000
   23  0.000  0.000  0.000  0.000
   24  0.000  0.000  0.000  0.000
   25  0.000  0.000  0.000  0.000
   26  0.000  0.000  0.000  0.000
   27  0.000  0.000  0.000  0.000
   28  0.000  0.000  0.000  0.000
   29  0.000  0.000  0.000  0.000
   30  0.000  0.000  0.000  0.000
   31  0.000  0.000  0.000  0.000
   32  0.000  0.000  0.000  0.000
   33  0.000  0.000  0.000  0.000
   34  0.000  0.000  0.000  0.000
   35  0.000  0.000  0.000  0.000
   36  0.009  0.011  0.009  0.029
   37  0.735  0.018  0.000  0.752
   38  0.120  0.024  0.000  0.144
tot    0.863  0.053  0.009  0.925
 
band     2 # energy   -8.57328283 # occ.  2.00000000
 
ion      s      p      d    tot
    1  0.006  0.001  0.000  0.007
    2  0.006  0.001  0.000  0.007
    3  0.006  0.001  0.000  0.007
    4  0.006  0.001  0.000  0.007
    5  0.006  0.001  0.000  0.007
    6  0.006  0.001  0.000  0.007
    7  0.006  0.001  0.000  0.007
    8  0.006  0.001  0.000  0.007
    9  0.006  0.001  0.000  0.007
   10  0.024  0.000  0.000  0.024
   11  0.024  0.000  0.000  0.024
   12  0.024  0.000  0.000  0.024
   13  0.024  0.000  0.000  0.024
   14  0.024  0.000  0.000  0.024
   15  0.024  0.000  0.000  0.024
   16  0.024  0.000  0.000  0.024
   17  0.024  0.000  0.000  0.024
   18  0.024  0.000  0.000  0.024
   19  0.024  0.000  0.000  0.025
   20  0.025  0.000  0.000  0.025
   21  0.025  0.000  0.000  0.025
   22  0.025  0.000  0.000  0.025
   23  0.025  0.000  0.000  0.025
   24  0.025  0.000  0.000  0.025
   25  0.024  0.000  0.000  0.025
   26  0.024  0.000  0.000  0.025
   27  0.025  0.000  0.000  0.025
   28  0.007  0.001  0.000  0.008
   29  0.007  0.001  0.000  0.008
   30  0.007  0.001  0.000  0.008
   31  0.007  0.001  0.000  0.008
   32  0.007  0.001  0.000  0.008
   33  0.007  0.001  0.000  0.008
   34  0.007  0.001  0.000  0.008
   35  0.007  0.001  0.000  0.008
   36  0.012  0.000  0.001  0.013
   37  0.000  0.007  0.000  0.007
   38  0.003  0.000  0.000  0.003
tot    0.564  0.023  0.001  0.588
 
band     3 # energy   -7.51562221 # occ.  2.00000000
 
ion      s      p      d    tot
    1  0.007  0.000  0.000  0.008
    2  0.007  0.000  0.000  0.008
    3  0.007  0.000  0.000  0.008
    4  0.007  0.000  0.000  0.008
    5  0.007  0.000  0.000  0.008
    6  0.007  0.000  0.000  0.008
    7  0.007  0.000  0.000  0.008
    8  0.007  0.000  0.000  0.008
    9  0.007  0.000  0.000  0.008
   10  0.007  0.001  0.000  0.008
   11  0.006  0.001  0.000  0.007
   12  0.007  0.001  0.000  0.008
   13  0.006  0.001  0.000  0.007
   14  0.006  0.001  0.000  0.007
   15  0.007  0.000  0.000  0.008
   16  0.007  0.001  0.000  0.008
   17  0.007  0.000  0.000  0.008
   18  0.007  0.000  0.000  0.008
   19  0.001  0.001  0.000  0.002
   20  0.003  0.002  0.000  0.005
   21  0.003  0.002  0.000  0.005
   22  0.001  0.001  0.000  0.002
   23  0.003  0.002  0.000  0.005
   24  0.001  0.001  0.000  0.002
   25  0.001  0.001  0.000  0.002
   26  0.001  0.001  0.000  0.002
   27  0.001  0.001  0.000  0.002
   28  0.005  0.000  0.000  0.005
   29  0.008  0.000  0.001  0.009
   30  0.008  0.000  0.001  0.009
   31  0.008  0.000  0.001  0.009
   32  0.008  0.000  0.001  0.009
   33  0.008  0.000  0.001  0.009
   34  0.008  0.000  0.001  0.009
   35  0.005  0.000  0.000  0.005
   36  0.072  0.015  0.036  0.124
   37  0.012  0.294  0.000  0.306
   38  0.102  0.010  0.000  0.112
tot    0.386  0.343  0.045  0.774
 
band     4 # energy   -7.05386620 # occ.  2.00000000
 
ion      s      p      d    tot
    1  0.012  0.000  0.000  0.013
    2  0.012  0.000  0.000  0.013
    3  0.012  0.000  0.000  0.013
    4  0.012  0.000  0.000  0.013
    5  0.013  0.000  0.000  0.013
    6  0.012  0.000  0.000  0.013
    7  0.012  0.000  0.000  0.013
    8  0.012  0.000  0.000  0.013
    9  0.012  0.000  0.001  0.013
   10  0.004  0.002  0.000  0.006
   11  0.005  0.002  0.000  0.007
   12  0.004  0.002  0.000  0.006
   13  0.005  0.002  0.000  0.007
   14  0.005  0.002  0.000  0.007
   15  0.003  0.002  0.000  0.006
   16  0.004  0.002  0.000  0.006
   17  0.003  0.002  0.000  0.006
   18  0.003  0.002  0.000  0.006
   19  0.012  0.001  0.001  0.014
   20  0.006  0.001  0.001  0.008
   21  0.006  0.001  0.001  0.008
   22  0.012  0.001  0.001  0.014
   23  0.006  0.001  0.001  0.008
   24  0.012  0.001  0.001  0.014
   25  0.012  0.001  0.001  0.014
   26  0.012  0.001  0.001  0.014
   27  0.012  0.001  0.001  0.014
   28  0.014  0.001  0.000  0.015
   29  0.008  0.001  0.000  0.010
   30  0.008  0.001  0.000  0.010
   31  0.008  0.001  0.000  0.010
   32  0.008  0.001  0.000  0.010
   33  0.008  0.001  0.000  0.010
   34  0.008  0.001  0.000  0.010
   35  0.014  0.001  0.000  0.015
   36  0.006  0.021  0.041  0.068
   37  0.012  0.191  0.000  0.204
   38  0.064  0.006  0.000  0.070
tot    0.395  0.259  0.058  0.712
 
band     5 # energy   -5.58069742 # occ.  2.00000000
 
ion      s      p      d    tot
    1  0.016  0.000  0.005  0.021
    2  0.012  0.001  0.006  0.018
    3  0.012  0.001  0.006  0.018
    4  0.012  0.001  0.006  0.018
    5  0.001  0.001  0.007  0.009
    6  0.012  0.001  0.006  0.018
    7  0.012  0.001  0.006  0.018
    8  0.012  0.001  0.006  0.018
    9  0.027  0.000  0.003  0.030
   10  0.002  0.003  0.005  0.010
   11  0.022  0.006  0.001  0.029
   12  0.002  0.003  0.005  0.010
   13  0.022  0.006  0.001  0.029
   14  0.022  0.006  0.001  0.029
   15  0.001  0.002  0.007  0.009
   16  0.002  0.003  0.005  0.010
   17  0.001  0.002  0.007  0.009
   18  0.001  0.002  0.007  0.009
   19  0.000  0.002  0.006  0.009
   20  0.024  0.006  0.001  0.031
   21  0.023  0.006  0.001  0.030
   22  0.000  0.005  0.004  0.008
   23  0.023  0.006  0.001  0.030
   24  0.000  0.005  0.004  0.008
   25  0.000  0.002  0.006  0.009
   26  0.000  0.002  0.006  0.009
   27  0.000  0.005  0.004  0.008
   28  0.021  0.000  0.003  0.024
   29  0.011  0.001  0.006  0.018
   30  0.011  0.001  0.006  0.018
   31  0.011  0.001  0.006  0.018
   32  0.011  0.001  0.006  0.018
   33  0.011  0.001  0.006  0.018
   34  0.011  0.001  0.006  0.018
   35  0.026  0.000  0.004  0.030
   36  0.000  0.001  0.009  0.010
   37  0.000  0.000  0.000  0.001
   38  0.000  0.000  0.000  0.000
tot    0.373  0.082  0.174  0.629
 
band     6 # energy   -5.56053421 # occ.  2.00000000
 
ion      s      p      d    tot
    1  0.000  0.000  0.003  0.004
    2  0.006  0.002  0.002  0.010
    3  0.009  0.002  0.002  0.014
    4  0.005  0.002  0.002  0.009
    5  0.000  0.003  0.005  0.009
    6  0.000  0.001  0.002  0.003
    7  0.009  0.002  0.002  0.013
    8  0.001  0.001  0.002  0.003
    9  0.000  0.001  0.003  0.004
   10  0.000  0.002  0.013  0.015
   11  0.048  0.004  0.006  0.058
   12  0.014  0.003  0.005  0.023
   13  0.044  0.004  0.007  0.055
   14  0.000  0.005  0.013  0.018
   15  0.009  0.003  0.005  0.017
   16  0.016  0.004  0.005  0.024
   17  0.008  0.004  0.005  0.017
   18  0.000  0.013  0.002  0.015
   19  0.000  0.003  0.005  0.008
   20  0.000  0.011  0.006  0.017
   21  0.033  0.004  0.006  0.043
   22  0.036  0.004  0.007  0.047
   23  0.036  0.003  0.006  0.046
   24  0.000  0.000  0.018  0.018
   25  0.000  0.010  0.005  0.015
   26  0.000  0.004  0.005  0.009
   27  0.040  0.004  0.006  0.050
   28  0.000  0.000  0.002  0.003
   29  0.005  0.002  0.002  0.009
   30  0.011  0.003  0.003  0.017
   31  0.004  0.002  0.002  0.008
   32  0.001  0.001  0.002  0.005
   33  0.011  0.003  0.003  0.016
   34  0.002  0.001  0.002  0.005
   35  0.000  0.002  0.006  0.008
   36  0.000  0.005  0.003  0.008
   37  0.000  0.000  0.000  0.000
   38  0.000  0.000  0.000  0.000
tot    0.348  0.118  0.176  0.641
 
band     7 # energy   -5.56048110 # occ.  2.00000000
 
ion      s      p      d    tot
    1  0.000  0.000  0.003  0.004
    2  0.004  0.001  0.002  0.007
    3  0.001  0.001  0.002  0.004
    4  0.005  0.002  0.002  0.008
    5  0.000  0.003  0.005  0.009
    6  0.010  0.002  0.002  0.014
    7  0.001  0.001  0.002  0.004
    8  0.009  0.002  0.002  0.014
    9  0.000  0.001  0.003  0.004
   10  0.020  0.004  0.002  0.026
   11  0.013  0.005  0.011  0.029
   12  0.006  0.002  0.010  0.019
   13  0.018  0.005  0.010  0.033
   14  0.061  0.003  0.005  0.069
   15  0.002  0.010  0.003  0.015
   16  0.005  0.002  0.011  0.018
   17  0.003  0.009  0.003  0.015
   18  0.011  0.000  0.006  0.018
   19  0.000  0.008  0.005  0.013
   20  0.046  0.001  0.007  0.055
   21  0.013  0.008  0.006  0.028
   22  0.015  0.001  0.013  0.030
   23  0.010  0.009  0.006  0.025
   24  0.049  0.005  0.002  0.056
   25  0.000  0.002  0.005  0.006
   26  0.000  0.007  0.005  0.012
   27  0.011  0.001  0.014  0.027
   28  0.000  0.000  0.002  0.003
   29  0.007  0.002  0.003  0.011
   30  0.000  0.001  0.002  0.003
   31  0.007  0.002  0.003  0.012
   32  0.010  0.002  0.002  0.015
   33  0.000  0.001  0.002  0.004
   34  0.009  0.002  0.002  0.014
   35  0.000  0.002  0.006  0.007
   36  0.000  0.005  0.003  0.008
   37  0.000  0.000  0.000  0.000
   38  0.000  0.000  0.000  0.000
tot    0.348  0.118  0.176  0.642
 
band     8 # energy   -5.55831760 # occ.  2.00000000
 
ion      s      p      d    tot
    1  0.020  0.003  0.001  0.024
    2  0.000  0.002  0.004  0.006
    3  0.000  0.002  0.004  0.006
    4  0.000  0.002  0.004  0.006
    5  0.000  0.000  0.000  0.001
    6  0.000  0.002  0.004  0.006
    7  0.000  0.002  0.004  0.006
    8  0.000  0.002  0.004  0.006
    9  0.010  0.002  0.001  0.012
   10  0.029  0.005  0.007  0.041
   11  0.003  0.001  0.011  0.015
   12  0.027  0.005  0.007  0.039
   13  0.003  0.001  0.011  0.015
   14  0.004  0.001  0.011  0.015
   15  0.015  0.009  0.003  0.027
   16  0.027  0.005  0.007  0.039
   17  0.015  0.009  0.003  0.027
   18  0.015  0.008  0.003  0.026
   19  0.021  0.009  0.002  0.032
   20  0.000  0.002  0.010  0.012
   21  0.000  0.002  0.010  0.012
   22  0.027  0.003  0.009  0.039
   23  0.000  0.002  0.010  0.012
   24  0.029  0.003  0.009  0.040
   25  0.020  0.009  0.002  0.031
   26  0.021  0.009  0.002  0.032
   27  0.027  0.003  0.009  0.039
   28  0.020  0.003  0.000  0.023
   29  0.000  0.002  0.004  0.006
   30  0.000  0.002  0.004  0.006
   31  0.000  0.002  0.004  0.006
   32  0.000  0.002  0.004  0.006
   33  0.000  0.002  0.004  0.006
   34  0.000  0.002  0.004  0.006
   35  0.013  0.003  0.002  0.018
   36  0.000  0.000  0.000  0.000
   37  0.000  0.000  0.000  0.000
   38  0.000  0.000  0.000  0.000
tot    0.347  0.116  0.176  0.639
 
band     9 # energy   -5.55261233 # occ.  2.00000000
 
ion      s      p      d    tot
    1  0.000  0.003  0.004  0.007
    2  0.006  0.002  0.002  0.010
    3  0.009  0.002  0.002  0.014
    4  0.005  0.002  0.002  0.009
    5  0.000  0.000  0.002  0.002
    6  0.000  0.001  0.002  0.003
    7  0.009  0.002  0.002  0.014
    8  0.001  0.001  0.002  0.003
    9  0.000  0.002  0.005  0.007
   10  0.041  0.001  0.007  0.049
   11  0.000  0.007  0.005  0.013
   12  0.012  0.009  0.005  0.026
   13  0.000  0.007  0.005  0.012
   14  0.001  0.002  0.004  0.007
   15  0.012  0.001  0.014  0.027
   16  0.010  0.009  0.005  0.024
   17  0.014  0.001  0.013  0.029
   18  0.051  0.005  0.003  0.059
   19  0.014  0.004  0.012  0.030
   20  0.018  0.004  0.002  0.024
   21  0.005  0.003  0.010  0.018
   22  0.004  0.010  0.003  0.017
   23  0.004  0.003  0.011  0.018
   24  0.015  0.000  0.007  0.021
   25  0.064  0.004  0.004  0.072
   26  0.017  0.004  0.011  0.032
   27  0.003  0.011  0.003  0.017
   28  0.000  0.003  0.006  0.009
   29  0.004  0.002  0.002  0.008
   30  0.010  0.003  0.003  0.015
   31  0.004  0.001  0.002  0.007
   32  0.001  0.001  0.002  0.005
   33  0.010  0.003  0.003  0.015
   34  0.002  0.001  0.002  0.005
   35  0.000  0.002  0.003  0.005
   36  0.000  0.000  0.003  0.003
   37  0.000  0.000  0.000  0.000
   38  0.000  0.000  0.000  0.000
tot    0.347  0.116  0.177  0.640
 
band    10 # energy   -5.55254774 # occ.  2.00000000
 
ion      s      p      d    tot
    1  0.000  0.003  0.004  0.008
    2  0.004  0.001  0.002  0.008
    3  0.001  0.001  0.002  0.004
    4  0.005  0.002  0.002  0.008
    5  0.000  0.000  0.002  0.002
    6  0.010  0.002  0.003  0.015
    7  0.001  0.001  0.002  0.004
    8  0.010  0.002  0.003  0.015
    9  0.000  0.002  0.005  0.007
   10  0.000  0.011  0.005  0.017
   11  0.000  0.003  0.005  0.008
   12  0.031  0.004  0.006  0.041
   13  0.000  0.004  0.005  0.009
   14  0.000  0.009  0.006  0.015
   15  0.040  0.004  0.006  0.049
   16  0.033  0.003  0.006  0.043
   17  0.037  0.004  0.007  0.047
   18  0.000  0.000  0.017  0.017
   19  0.049  0.004  0.007  0.060
   20  0.000  0.003  0.013  0.016
   21  0.014  0.004  0.005  0.023
   22  0.010  0.004  0.005  0.019
   23  0.015  0.004  0.005  0.023
   24  0.000  0.014  0.002  0.015
   25  0.000  0.004  0.014  0.018
   26  0.046  0.004  0.007  0.057
   27  0.011  0.003  0.006  0.019
   28  0.000  0.003  0.006  0.009
   29  0.006  0.002  0.002  0.010
   30  0.000  0.001  0.002  0.003
   31  0.006  0.002  0.002  0.011
   32  0.009  0.002  0.002  0.014
   33  0.000  0.001  0.002  0.004
   34  0.009  0.002  0.002  0.014
   35  0.000  0.002  0.003  0.005
   36  0.000  0.000  0.003  0.003
   37  0.000  0.000  0.000  0.000
   38  0.000  0.000  0.000  0.000
tot    0.347  0.116  0.177  0.640
 
band    11 # energy   -5.47438159 # occ.  2.00000000
 
ion      s      p      d    tot
    1  0.000  0.001  0.003  0.004
    2  0.005  0.002  0.006  0.013
    3  0.005  0.002  0.006  0.013
    4  0.005  0.002  0.006  0.013
    5  0.042  0.002  0.001  0.045
    6  0.005  0.002  0.006  0.013
    7  0.005  0.002  0.006  0.013
    8  0.005  0.002  0.006  0.013
    9  0.000  0.002  0.006  0.007
   10  0.007  0.005  0.006  0.018
   11  0.012  0.007  0.006  0.025
   12  0.007  0.005  0.006  0.018
   13  0.012  0.007  0.006  0.025
   14  0.012  0.007  0.006  0.025
   15  0.024  0.002  0.009  0.035
   16  0.007  0.005  0.006  0.018
   17  0.024  0.002  0.009  0.035
   18  0.024  0.002  0.009  0.035
   19  0.011  0.003  0.007  0.020
   20  0.012  0.004  0.005  0.021
   21  0.012  0.004  0.005  0.021
   22  0.006  0.006  0.005  0.016
   23  0.012  0.004  0.005  0.021
   24  0.006  0.006  0.005  0.016
   25  0.011  0.003  0.007  0.020
   26  0.011  0.003  0.007  0.020
   27  0.006  0.006  0.005  0.016
   28  0.001  0.001  0.005  0.006
   29  0.006  0.000  0.004  0.010
   30  0.006  0.000  0.004  0.010
   31  0.006  0.000  0.004  0.010
   32  0.006  0.000  0.004  0.010
   33  0.006  0.000  0.004  0.010
   34  0.006  0.000  0.004  0.010
   35  0.002  0.000  0.003  0.005
   36  0.013  0.007  0.008  0.028
   37  0.002  0.011  0.000  0.013
   38  0.003  0.000  0.000  0.004
tot    0.344  0.112  0.198  0.654
 
band    12 # energy   -4.78467738 # occ.  2.00000000
 
ion      s      p      d    tot
    1  0.035  0.003  0.000  0.038
    2  0.000  0.003  0.010  0.013
    3  0.000  0.003  0.010  0.014
    4  0.000  0.003  0.010  0.013
    5  0.000  0.000  0.000  0.000
    6  0.000  0.003  0.010  0.013
    7  0.000  0.003  0.010  0.014
    8  0.000  0.003  0.010  0.013
    9  0.030  0.004  0.001  0.034
   10  0.009  0.004  0.011  0.023
   11  0.001  0.000  0.015  0.017
   12  0.009  0.004  0.010  0.023
   13  0.001  0.000  0.015  0.017
   14  0.001  0.000  0.015  0.016
   15  0.007  0.004  0.017  0.028
   16  0.009  0.004  0.010  0.023
   17  0.007  0.004  0.017  0.028
   18  0.007  0.004  0.018  0.029
   19  0.005  0.004  0.019  0.027
   20  0.000  0.000  0.014  0.015
   21  0.000  0.000  0.014  0.015
   22  0.011  0.004  0.010  0.025
   23  0.000  0.000  0.014  0.015
   24  0.011  0.003  0.010  0.025
   25  0.005  0.004  0.019  0.027
   26  0.005  0.004  0.019  0.027
   27  0.011  0.004  0.010  0.025
   28  0.036  0.003  0.000  0.040
   29  0.000  0.003  0.010  0.013
   30  0.000  0.003  0.010  0.013
   31  0.000  0.003  0.010  0.013
   32  0.000  0.003  0.010  0.013
   33  0.000  0.003  0.010  0.013
   34  0.000  0.003  0.010  0.013
   35  0.027  0.004  0.002  0.032
   36  0.000  0.000  0.000  0.000
   37  0.000  0.000  0.000  0.000
   38  0.000  0.000  0.000  0.000
tot    0.228  0.093  0.383  0.705
 
band    13 # energy   -4.78319684 # occ.  2.00000000
 
ion      s      p      d    tot
    1  0.000  0.002  0.010  0.012
    2  0.005  0.002  0.005  0.013
    3  0.021  0.004  0.005  0.030
    4  0.003  0.002  0.005  0.011
    5  0.000  0.006  0.009  0.015
    6  0.006  0.002  0.005  0.013
    7  0.021  0.004  0.005  0.031
    8  0.008  0.002  0.005  0.015
    9  0.000  0.001  0.012  0.014
   10  0.000  0.001  0.017  0.017
   11  0.016  0.004  0.009  0.029
   12  0.009  0.003  0.011  0.023
   13  0.014  0.003  0.011  0.029
   14  0.000  0.002  0.027  0.028
   15  0.001  0.001  0.010  0.012
   16  0.010  0.003  0.010  0.024
   17  0.001  0.001  0.011  0.013
   18  0.000  0.004  0.019  0.023
   19  0.001  0.001  0.010  0.012
   20  0.000  0.001  0.027  0.028
   21  0.013  0.004  0.012  0.029
   22  0.007  0.003  0.011  0.021
   23  0.015  0.004  0.010  0.029
   24  0.000  0.001  0.014  0.015
   25  0.000  0.004  0.022  0.026
   26  0.001  0.001  0.012  0.014
   27  0.008  0.003  0.011  0.022
   28  0.000  0.002  0.013  0.014
   29  0.007  0.002  0.005  0.014
   30  0.023  0.004  0.005  0.032
   31  0.005  0.002  0.005  0.012
   32  0.005  0.002  0.005  0.012
   33  0.023  0.004  0.005  0.032
   34  0.007  0.002  0.005  0.015
   35  0.000  0.001  0.010  0.012
   36  0.000  0.008  0.003  0.012
   37  0.000  0.002  0.000  0.002
   38  0.000  0.000  0.000  0.000
tot    0.231  0.098  0.375  0.704
 
band    14 # energy   -4.78318240 # occ.  2.00000000
 
ion      s      p      d    tot
    1  0.000  0.002  0.010  0.012
    2  0.016  0.003  0.005  0.025
    3  0.000  0.001  0.005  0.007
    4  0.018  0.003  0.005  0.027
    5  0.000  0.006  0.009  0.015
    6  0.016  0.003  0.006  0.024
    7  0.000  0.001  0.005  0.007
    8  0.013  0.003  0.005  0.022
    9  0.000  0.001  0.012  0.014
   10  0.014  0.004  0.009  0.026
   11  0.004  0.002  0.022  0.029
   12  0.004  0.002  0.014  0.020
   13  0.006  0.002  0.020  0.029
   14  0.021  0.004  0.005  0.030
   15  0.000  0.003  0.017  0.020
   16  0.003  0.001  0.015  0.019
   17  0.000  0.003  0.016  0.019
   18  0.001  0.000  0.008  0.009
   19  0.000  0.003  0.019  0.023
   20  0.019  0.005  0.005  0.029
   21  0.006  0.002  0.021  0.028
   22  0.003  0.002  0.013  0.018
   23  0.004  0.002  0.023  0.028
   24  0.010  0.004  0.010  0.024
   25  0.002  0.000  0.007  0.009
   26  0.001  0.003  0.018  0.021
   27  0.002  0.001  0.013  0.017
   28  0.000  0.002  0.013  0.014
   29  0.016  0.003  0.005  0.025
   30  0.000  0.002  0.005  0.007
   31  0.018  0.003  0.005  0.027
   32  0.018  0.003  0.005  0.026
   33  0.000  0.002  0.005  0.007
   34  0.016  0.003  0.005  0.024
   35  0.000  0.001  0.010  0.012
   36  0.000  0.008  0.003  0.012
   37  0.000  0.002  0.000  0.002
   38  0.000  0.000  0.000  0.000
tot    0.231  0.098  0.375  0.704
 
band    15 # energy   -4.77527380 # occ.  2.00000000
 
ion      s      p      d    tot
    1  0.006  0.000  0.008  0.014
    2  0.004  0.001  0.009  0.013
    3  0.004  0.001  0.008  0.013
    4  0.004  0.001  0.009  0.013
    5  0.000  0.002  0.008  0.010
    6  0.004  0.001  0.008  0.013
    7  0.004  0.001  0.008  0.013
    8  0.004  0.001  0.008  0.013
    9  0.013  0.000  0.006  0.019
   10  0.006  0.000  0.024  0.029
   11  0.011  0.001  0.021  0.032
   12  0.005  0.000  0.024  0.029
   13  0.011  0.001  0.021  0.032
   14  0.011  0.001  0.021  0.032
   15  0.002  0.000  0.021  0.023
   16  0.005  0.000  0.024  0.029
   17  0.002  0.000  0.021  0.023
   18  0.002  0.000  0.021  0.023
   19  0.004  0.000  0.021  0.025
   20  0.012  0.001  0.022  0.035
   21  0.012  0.001  0.022  0.035
   22  0.003  0.000  0.026  0.029
   23  0.012  0.001  0.022  0.035
   24  0.003  0.000  0.026  0.029
   25  0.003  0.000  0.021  0.025
   26  0.004  0.000  0.021  0.025
   27  0.003  0.000  0.026  0.029
   28  0.006  0.000  0.007  0.014
   29  0.004  0.001  0.009  0.014
   30  0.004  0.001  0.009  0.015
   31  0.004  0.001  0.009  0.014
   32  0.004  0.001  0.009  0.014
   33  0.004  0.001  0.009  0.015
   34  0.004  0.001  0.009  0.014
   35  0.015  0.000  0.007  0.023
   36  0.000  0.002  0.007  0.009
   37  0.000  0.000  0.000  0.000
   38  0.000  0.000  0.000  0.000
tot    0.199  0.019  0.556  0.774
 
band    16 # energy   -4.77078256 # occ.  2.00000000
 
ion      s      p      d    tot
    1  0.000  0.004  0.011  0.016
    2  0.004  0.002  0.005  0.011
    3  0.021  0.004  0.006  0.031
    4  0.004  0.002  0.005  0.011
    5  0.000  0.000  0.012  0.012
    6  0.007  0.002  0.005  0.015
    7  0.022  0.004  0.006  0.031
    8  0.007  0.002  0.005  0.015
    9  0.000  0.005  0.008  0.013
   10  0.009  0.002  0.006  0.016
   11  0.001  0.002  0.014  0.016
   12  0.002  0.003  0.022  0.027
   13  0.001  0.002  0.013  0.016
   14  0.003  0.001  0.010  0.014
   15  0.005  0.001  0.019  0.026
   16  0.002  0.003  0.022  0.027
   17  0.006  0.002  0.019  0.026
   18  0.021  0.006  0.007  0.034
   19  0.005  0.001  0.018  0.025
   20  0.001  0.001  0.010  0.012
   21  0.000  0.002  0.014  0.017
   22  0.003  0.003  0.022  0.028
   23  0.000  0.002  0.014  0.017
   24  0.012  0.002  0.005  0.019
   25  0.021  0.006  0.007  0.033
   26  0.005  0.001  0.018  0.025
   27  0.003  0.003  0.022  0.028
   28  0.000  0.004  0.008  0.012
   29  0.005  0.002  0.005  0.012
   30  0.020  0.004  0.005  0.029
   31  0.005  0.002  0.005  0.012
   32  0.005  0.002  0.005  0.013
   33  0.020  0.004  0.005  0.029
   34  0.005  0.002  0.005  0.013
   35  0.000  0.005  0.011  0.015
   36  0.000  0.000  0.007  0.007
   37  0.000  0.000  0.000  0.000
   38  0.000  0.000  0.000  0.000
tot    0.227  0.094  0.383  0.704
 
band    17 # energy   -4.77076406 # occ.  2.00000000
 
ion      s      p      d    tot
    1  0.000  0.004  0.011  0.016
    2  0.018  0.003  0.005  0.026
    3  0.000  0.002  0.005  0.007
    4  0.018  0.003  0.005  0.027
    5  0.000  0.000  0.012  0.012
    6  0.015  0.003  0.006  0.024
    7  0.000  0.002  0.005  0.007
    8  0.014  0.003  0.006  0.023
    9  0.000  0.005  0.008  0.013
   10  0.000  0.003  0.027  0.030
   11  0.002  0.002  0.011  0.015
   12  0.007  0.002  0.011  0.020
   13  0.002  0.002  0.011  0.015
   14  0.000  0.002  0.015  0.017
   15  0.016  0.004  0.011  0.031
   16  0.007  0.002  0.011  0.020
   17  0.016  0.004  0.011  0.031
   18  0.000  0.000  0.023  0.023
   19  0.016  0.004  0.011  0.030
   20  0.000  0.003  0.015  0.018
   21  0.001  0.001  0.011  0.014
   22  0.009  0.002  0.011  0.022
   23  0.001  0.001  0.011  0.014
   24  0.000  0.003  0.028  0.031
   25  0.000  0.000  0.022  0.022
   26  0.015  0.004  0.011  0.030
   27  0.009  0.002  0.011  0.022
   28  0.000  0.004  0.008  0.012
   29  0.015  0.003  0.005  0.024
   30  0.000  0.002  0.005  0.007
   31  0.015  0.003  0.005  0.024
   32  0.015  0.003  0.005  0.023
   33  0.000  0.002  0.005  0.007
   34  0.015  0.003  0.005  0.023
   35  0.000  0.005  0.011  0.015
   36  0.000  0.000  0.007  0.007
   37  0.000  0.000  0.000  0.000
   38  0.000  0.000  0.000  0.000
tot    0.227  0.094  0.383  0.704
 
band    18 # energy   -4.67239435 # occ.  2.00000000
 
ion      s      p      d    tot
    1  0.011  0.002  0.001  0.013
    2  0.000  0.003  0.010  0.013
    3  0.000  0.003  0.010  0.013
    4  0.000  0.003  0.010  0.013
    5  0.044  0.003  0.000  0.047
    6  0.000  0.003  0.010  0.013
    7  0.000  0.003  0.010  0.013
    8  0.000  0.003  0.010  0.013
    9  0.004  0.001  0.001  0.007
   10  0.002  0.001  0.022  0.026
   11  0.004  0.004  0.018  0.026
   12  0.002  0.001  0.022  0.026
   13  0.004  0.004  0.018  0.026
   14  0.004  0.004  0.018  0.026
   15  0.005  0.001  0.011  0.017
   16  0.002  0.001  0.022  0.026
   17  0.005  0.001  0.011  0.017
   18  0.005  0.001  0.011  0.017
   19  0.011  0.001  0.020  0.031
   20  0.008  0.004  0.010  0.022
   21  0.008  0.004  0.010  0.022
   22  0.003  0.001  0.019  0.024
   23  0.008  0.004  0.010  0.022
   24  0.003  0.001  0.019  0.024
   25  0.011  0.001  0.020  0.031
   26  0.011  0.001  0.020  0.031
   27  0.003  0.001  0.019  0.024
   28  0.002  0.002  0.006  0.009
   29  0.002  0.002  0.011  0.014
   30  0.002  0.002  0.011  0.014
   31  0.002  0.002  0.011  0.014
   32  0.002  0.002  0.011  0.014
   33  0.002  0.002  0.011  0.014
   34  0.002  0.002  0.011  0.014
   35  0.003  0.002  0.003  0.007
   36  0.029  0.010  0.008  0.047
   37  0.002  0.007  0.000  0.009
   38  0.002  0.000  0.000  0.002
tot    0.203  0.091  0.447  0.741
 
band    19 # energy   -4.10587712 # occ.  2.00000000
 
ion      s      p      d    tot
    1  0.000  0.002  0.001  0.003
    2  0.014  0.001  0.009  0.024
    3  0.008  0.001  0.009  0.018
    4  0.014  0.001  0.009  0.024
    5  0.000  0.002  0.021  0.023
    6  0.001  0.001  0.009  0.010
    7  0.008  0.001  0.009  0.018
    8  0.001  0.001  0.009  0.010
    9  0.000  0.000  0.029  0.029
   10  0.001  0.007  0.020  0.028
   11  0.000  0.001  0.042  0.043
   12  0.000  0.002  0.011  0.013
   13  0.000  0.001  0.042  0.043
   14  0.001  0.002  0.004  0.007
   15  0.000  0.000  0.028  0.029
   16  0.000  0.002  0.011  0.013
   17  0.000  0.000  0.028  0.029
   18  0.000  0.001  0.013  0.014
   19  0.000  0.000  0.043  0.043
   20  0.002  0.006  0.020  0.028
   21  0.000  0.002  0.014  0.016
   22  0.000  0.001  0.028  0.028
   23  0.000  0.002  0.014  0.016
   24  0.000  0.002  0.014  0.017
   25  0.001  0.001  0.004  0.006
   26  0.000  0.000  0.043  0.043
   27  0.000  0.001  0.028  0.028
   28  0.000  0.002  0.026  0.028
   29  0.014  0.001  0.011  0.025
   30  0.000  0.001  0.010  0.011
   31  0.014  0.001  0.011  0.025
   32  0.011  0.001  0.009  0.021
   33  0.000  0.001  0.010  0.011
   34  0.011  0.001  0.009  0.021
   35  0.000  0.000  0.028  0.029
   36  0.000  0.004  0.002  0.006
   37  0.000  0.010  0.000  0.010
   38  0.000  0.000  0.000  0.000
tot    0.103  0.063  0.627  0.792
 
band    20 # energy   -4.10581123 # occ.  2.00000000
 
ion      s      p      d    tot
    1  0.000  0.002  0.001  0.003
    2  0.001  0.001  0.009  0.011
    3  0.007  0.001  0.009  0.017
    4  0.001  0.001  0.009  0.011
    5  0.000  0.002  0.021  0.023
    6  0.014  0.001  0.009  0.025
    7  0.007  0.001  0.009  0.017
    8  0.014  0.001  0.009  0.025
    9  0.000  0.000  0.029  0.029
   10  0.000  0.000  0.008  0.008
   11  0.001  0.002  0.016  0.019
   12  0.001  0.005  0.017  0.023
   13  0.001  0.002  0.016  0.019
   14  0.000  0.000  0.055  0.055
   15  0.000  0.001  0.018  0.019
   16  0.001  0.005  0.017  0.023
   17  0.000  0.001  0.018  0.019
   18  0.000  0.000  0.034  0.034
   19  0.001  0.001  0.017  0.019
   20  0.000  0.000  0.012  0.012
   21  0.001  0.005  0.018  0.024
   22  0.000  0.002  0.019  0.021
   23  0.001  0.005  0.018  0.024
   24  0.000  0.000  0.032  0.032
   25  0.000  0.000  0.056  0.056
   26  0.001  0.001  0.017  0.019
   27  0.000  0.002  0.019  0.021
   28  0.000  0.002  0.026  0.028
   29  0.003  0.001  0.009  0.013
   30  0.017  0.001  0.010  0.028
   31  0.003  0.001  0.009  0.013
   32  0.005  0.001  0.011  0.017
   33  0.017  0.001  0.010  0.028
   34  0.005  0.001  0.011  0.017
   35  0.000  0.000  0.028  0.028
   36  0.000  0.004  0.002  0.006
   37  0.000  0.009  0.000  0.009
   38  0.000  0.000  0.000  0.000
tot    0.103  0.063  0.627  0.792
 
band    21 # energy   -4.08478673 # occ.  2.00000000
 
ion      s      p      d    tot
    1  0.001  0.000  0.001  0.002
    2  0.000  0.001  0.018  0.020
    3  0.000  0.001  0.018  0.020
    4  0.000  0.001  0.018  0.020
    5  0.018  0.001  0.000  0.018
    6  0.000  0.001  0.018  0.020
    7  0.000  0.001  0.018  0.020
    8  0.000  0.001  0.018  0.020
    9  0.028  0.001  0.002  0.031
   10  0.000  0.001  0.008  0.009
   11  0.000  0.001  0.022  0.023
   12  0.000  0.001  0.008  0.009
   13  0.000  0.001  0.022  0.023
   14  0.000  0.001  0.022  0.023
   15  0.001  0.004  0.040  0.045
   16  0.000  0.001  0.008  0.009