 vasp.6.2.0 18Jan21 (build Jun 12 2021 23:27:24) complex                        
  
 executed on             LinuxIFC date 2022.05.28  00:48:09
 running on   28 total cores
 distrk:  each k-point on   28 cores,    1 groups
 distr:  one band on NCORE=   1 cores,   28 groups


--------------------------------------------------------------------------------------------------------


 INCAR:
   ISMEAR = -5
   SIGMA = 0.1
   ISPIN = 1
   EDIFF = 1.d-5
   EDIFFG = -0.01
   NSW = 0
   NELM = 150
   ENCUT = 500
   ISIF = 2
   IBRION = 2
   LREAL = Auto
   ALGO = Fast
   ICHARG = 11
   LORBIT = 10
   LCHARG = .F.
   LWAVE = .F.

 POTCAR:    PAW_PBE Au 04Oct2007                  
 POTCAR:    PAW_PBE Ni 02Aug2007                  
 POTCAR:    PAW_PBE C 08Apr2002                   
 POTCAR:    PAW_PBE O 08Apr2002                   
 -----------------------------------------------------------------------------
|                                                                             |
|           W    W    AA    RRRRR   N    N  II  N    N   GGGG   !!!           |
|           W    W   A  A   R    R  NN   N  II  NN   N  G    G  !!!           |
|           W    W  A    A  R    R  N N  N  II  N N  N  G       !!!           |
|           W WW W  AAAAAA  RRRRR   N  N N  II  N  N N  G  GGG   !            |
|           WW  WW  A    A  R   R   N   NN  II  N   NN  G    G                |
|           W    W  A    A  R    R  N    N  II  N    N   GGGG   !!!           |
|                                                                             |
|     For optimal performance we recommend to set                             |
|       NCORE = 2 up to number-of-cores-per-socket                            |
|     NCORE specifies how many cores store one orbital (NPAR=cpu/NCORE).      |
|     This setting can greatly improve the performance of VASP for DFT.       |
|     The default, NCORE=1 might be grossly inefficient on modern             |
|     multi-core architectures or massively parallel machines. Do your        |
|     own testing! More info at https://www.vasp.at/wiki/index.php/NCORE      |
|     Unfortunately you need to use the default for GW and RPA                |
|     calculations (for HF NCORE is supported but not extensively tested      |
|     yet).                                                                   |
|                                                                             |
 -----------------------------------------------------------------------------

 POTCAR:    PAW_PBE Au 04Oct2007                  
   VRHFIN =Au: s1d10                                                                                
   LEXCH  = PE                                                                                      
   EATOM  =   926.0867 eV,   68.0654 Ry                                                             
                                                                                                    
   TITEL  = PAW_PBE Au 04Oct2007                                                                    
   LULTRA =        F    use ultrasoft PP ?                                                          
   IUNSCR =        1    unscreen: 0-lin 1-nonlin 2-no                                               
   RPACOR =    2.330    partial core radius                                                         
   POMASS =  196.966; ZVAL   =   11.000    mass and valenz                                          
   RCORE  =    2.500    outmost cutoff radius                                                       
   RWIGS  =    2.840; RWIGS  =    1.503    wigner-seitz radius (au A)                               
   ENMAX  =  229.943; ENMIN  =  172.457 eV                                                          
   ICORE  =        3    local potential                                                             
   LCOR   =        T    correct aug charges                                                         
   LPAW   =        T    paw PP                                                                      
   EAUG   =  356.670                                                                                
   DEXC   =    0.000                                                                                
   RMAX   =    2.562    core radius for proj-oper                                                   
   RAUG   =    1.300    factor for augmentation sphere                                              
   RDEP   =    2.598    radius for radial grids                                                     
   RDEPT  =    2.193    core radius for aug-charge                                                  
                                                                                                    
   Atomic configuration                                                                             
   16 entries                                                                                       
     n  l   j            E        occ.                                                              
     1  0  0.50    -80748.5001   2.0000                                                             
     2  0  0.50    -14244.7466   2.0000                                                             
     2  1  1.50    -12310.9591   6.0000                                                             
     3  0  0.50     -3362.1768   2.0000                                                             
     3  1  1.50     -2801.5463   6.0000                                                             
     3  2  2.50     -2203.8206  10.0000                                                             
     4  0  0.50      -729.8168   2.0000                                                             
     4  1  1.50      -546.0527   6.0000                                                             
     4  2  2.50      -325.7302  10.0000                                                             
     4  3  3.50       -81.1472  14.0000                                                             
     5  0  0.50      -108.3201   2.0000                                                             
     5  1  1.50       -59.7479   6.0000                                                             
     5  2  2.50        -6.8783  10.0000                                                             
     6  0  0.50        -5.7602   1.0000                                                             
     6  1  1.50        -6.8029   0.0000                                                             
     5  3  2.50        -1.3606   0.0000                                                             
   Description                                                                                      
     l       E           TYP  RCUT    TYP  RCUT                                                     
     2     -6.8782861     23  2.500                                                                 
     2     -8.2388687     23  2.500                                                                 
     0     -5.7601759     23  2.500                                                                 
     0     -0.8493231     23  2.500                                                                 
     1     -2.7211652     23  2.500                                                                 
     1     27.2116520     23  2.500                                                                 
     3     -1.3605826     23  2.500                                                                 
  local pseudopotential read in
  partial core-charges read in
  partial kinetic energy density read in
  atomic valenz-charges read in
  non local Contribution for L=           2  read in
    real space projection operators read in
  non local Contribution for L=           2  read in
    real space projection operators read in
  non local Contribution for L=           0  read in
    real space projection operators read in
  non local Contribution for L=           0  read in
    real space projection operators read in
  non local Contribution for L=           1  read in
    real space projection operators read in
  non local Contribution for L=           1  read in
    real space projection operators read in
    PAW grid and wavefunctions read in
 
   number of l-projection  operators is LMAX  =           6
   number of lm-projection operators is LMMAX =          18
 
 POTCAR:    PAW_PBE Ni 02Aug2007                  
   VRHFIN =Ni:                                                                                      
   LEXCH  = PE                                                                                      
   EATOM  =  1077.6739 eV,   79.2068 Ry                                                             
                                                                                                    
   TITEL  = PAW_PBE Ni 02Aug2007                                                                    
   LULTRA =        F    use ultrasoft PP ?                                                          
   IUNSCR =        1    unscreen: 0-lin 1-nonlin 2-no                                               
   RPACOR =    2.000    partial core radius                                                         
   POMASS =   58.690; ZVAL   =   10.000    mass and valenz                                          
   RCORE  =    2.300    outmost cutoff radius                                                       
   RWIGS  =    2.430; RWIGS  =    1.286    wigner-seitz radius (au A)                               
   ENMAX  =  269.532; ENMIN  =  202.149 eV                                                          
   RCLOC  =    1.201    cutoff for local pot                                                        
   LCOR   =        T    correct aug charges                                                         
   LPAW   =        T    paw PP                                                                      
   EAUG   =  544.565                                                                                
   DEXC   =    0.000                                                                                
   RMAX   =    2.357    core radius for proj-oper                                                   
   RAUG   =    1.300    factor for augmentation sphere                                              
   RDEP   =    2.390    radius for radial grids                                                     
   RDEPT  =    1.838    core radius for aug-charge                                                  
                                                                                                    
   Atomic configuration                                                                             
    9 entries                                                                                       
     n  l   j            E        occ.                                                              
     1  0  0.50     -8206.4253   2.0000                                                             
     2  0  0.50      -976.1748   2.0000                                                             
     2  1  1.50      -839.0571   6.0000                                                             
     3  0  0.50      -105.9991   2.0000                                                             
     3  1  1.50       -66.4603   6.0000                                                             
     3  2  2.50        -4.6458   9.0000                                                             
     4  0  0.50        -4.4926   1.0000                                                             
     4  1  1.50        -4.0817   0.0000                                                             
     4  3  2.50        -1.3606   0.0000                                                             
   Description                                                                                      
     l       E           TYP  RCUT    TYP  RCUT                                                     
     2     -4.6457903     23  2.300                                                                 
     2     -6.0063729     23  2.300                                                                 
     0     -4.4925590     23  2.300                                                                 
     0      5.0102601     23  2.300                                                                 
     1     -2.7211652     23  2.300                                                                 
     1     16.5183231     23  2.300                                                                 
  local pseudopotential read in
  partial core-charges read in
  partial kinetic energy density read in
  atomic valenz-charges read in
  non local Contribution for L=           2  read in
    real space projection operators read in
  non local Contribution for L=           2  read in
    real space projection operators read in
  non local Contribution for L=           0  read in
    real space projection operators read in
  non local Contribution for L=           0  read in
    real space projection operators read in
  non local Contribution for L=           1  read in
    real space projection operators read in
  non local Contribution for L=           1  read in
    real space projection operators read in
    PAW grid and wavefunctions read in
 
   number of l-projection  operators is LMAX  =           6
   number of lm-projection operators is LMMAX =          18
 
 POTCAR:    PAW_PBE C 08Apr2002                   
   VRHFIN =C: s2p2                                                                                  
   LEXCH  = PE                                                                                      
   EATOM  =   147.1560 eV,   10.8157 Ry                                                             
                                                                                                    
   TITEL  = PAW_PBE C 08Apr2002                                                                     
   LULTRA =        F    use ultrasoft PP ?                                                          
   IUNSCR =        1    unscreen: 0-lin 1-nonlin 2-no                                               
   RPACOR =    1.200    partial core radius                                                         
   POMASS =   12.011; ZVAL   =    4.000    mass and valenz                                          
   RCORE  =    1.500    outmost cutoff radius                                                       
   RWIGS  =    1.630; RWIGS  =    0.863    wigner-seitz radius (au A)                               
   ENMAX  =  400.000; ENMIN  =  300.000 eV                                                          
   ICORE  =        2    local potential                                                             
   LCOR   =        T    correct aug charges                                                         
   LPAW   =        T    paw PP                                                                      
   EAUG   =  644.873                                                                                
   DEXC   =    0.000                                                                                
   RMAX   =    1.529    core radius for proj-oper                                                   
   RAUG   =    1.300    factor for augmentation sphere                                              
   RDEP   =    1.501    radius for radial grids                                                     
   RDEPT  =    1.300    core radius for aug-charge                                                  
                                                                                                    
   Atomic configuration                                                                             
    4 entries                                                                                       
     n  l   j            E        occ.                                                              
     1  0  0.50      -273.3789   2.0000                                                             
     2  0  0.50       -13.7508   2.0000                                                             
     2  1  0.50        -5.2854   2.0000                                                             
     3  2  1.50        -5.4423   0.0000                                                             
   Description                                                                                      
     l       E           TYP  RCUT    TYP  RCUT                                                     
     0    -13.7508458     23  1.200                                                                 
     0     -8.2022199     23  1.200                                                                 
     1     -5.2854383     23  1.500                                                                 
     1     34.0145650     23  1.500                                                                 
     2     -5.4423304      7  1.500                                                                 
  local pseudopotential read in
  partial core-charges read in
  partial kinetic energy density read in
  atomic valenz-charges read in
  non local Contribution for L=           0  read in
    real space projection operators read in
  non local Contribution for L=           0  read in
    real space projection operators read in
  non local Contribution for L=           1  read in
    real space projection operators read in
  non local Contribution for L=           1  read in
    real space projection operators read in
    PAW grid and wavefunctions read in
 
   number of l-projection  operators is LMAX  =           4
   number of lm-projection operators is LMMAX =           8
 
 POTCAR:    PAW_PBE O 08Apr2002                   
   VRHFIN =O: s2p4                                                                                  
   LEXCH  = PE                                                                                      
   EATOM  =   432.3788 eV,   31.7789 Ry                                                             
                                                                                                    
   TITEL  = PAW_PBE O 08Apr2002                                                                     
   LULTRA =        F    use ultrasoft PP ?                                                          
   IUNSCR =        1    unscreen: 0-lin 1-nonlin 2-no                                               
   RPACOR =    1.200    partial core radius                                                         
   POMASS =   16.000; ZVAL   =    6.000    mass and valenz                                          
   RCORE  =    1.520    outmost cutoff radius                                                       
   RWIGS  =    1.550; RWIGS  =    0.820    wigner-seitz radius (au A)                               
   ENMAX  =  400.000; ENMIN  =  300.000 eV                                                          
   ICORE  =        2    local potential                                                             
   LCOR   =        T    correct aug charges                                                         
   LPAW   =        T    paw PP                                                                      
   EAUG   =  605.392                                                                                
   DEXC   =    0.000                                                                                
   RMAX   =    1.553    core radius for proj-oper                                                   
   RAUG   =    1.300    factor for augmentation sphere                                              
   RDEP   =    1.550    radius for radial grids                                                     
   RDEPT  =    1.329    core radius for aug-charge                                                  
                                                                                                    
   Atomic configuration                                                                             
    4 entries                                                                                       
     n  l   j            E        occ.                                                              
     1  0  0.50      -514.6923   2.0000                                                             
     2  0  0.50       -23.9615   2.0000                                                             
     2  1  0.50        -9.0305   4.0000                                                             
     3  2  1.50        -9.5241   0.0000                                                             
   Description                                                                                      
     l       E           TYP  RCUT    TYP  RCUT                                                     
     0    -23.9615318     23  1.200                                                                 
     0     -9.5240782     23  1.200                                                                 
     1     -9.0304911     23  1.520                                                                 
     1      8.1634956     23  1.520                                                                 
     2     -9.5240782      7  1.500                                                                 
  local pseudopotential read in
  partial core-charges read in
  partial kinetic energy density read in
  kinetic energy density of atom read in
  atomic valenz-charges read in
  non local Contribution for L=           0  read in
    real space projection operators read in
  non local Contribution for L=           0  read in
    real space projection operators read in
  non local Contribution for L=           1  read in
    real space projection operators read in
  non local Contribution for L=           1  read in
    real space projection operators read in
    PAW grid and wavefunctions read in
 
   number of l-projection  operators is LMAX  =           4
   number of lm-projection operators is LMMAX =           8
 
 Optimization of the real space projectors (new method)

 maximal supplied QI-value         = 15.12
 optimisation between [QCUT,QGAM] = [ 11.34, 22.83] = [ 36.00,145.93] Ry 
 Optimized for a Real-space Cutoff    1.39 Angstroem

   l    n(q)    QCUT    max X(q) W(low)/X(q) W(high)/X(q)  e(spline) 
   2      9    11.338    60.898    0.39E-03    0.42E-03    0.21E-06
   2      9    11.338    58.894    0.40E-03    0.42E-03    0.22E-06
   0      9    11.338   109.617    0.13E-03    0.20E-04    0.13E-06
   0      9    11.338    75.026    0.13E-03    0.20E-04    0.13E-06
   1      9    11.338    16.344    0.33E-04    0.24E-03    0.18E-06
   1      9    11.338    10.160    0.26E-04    0.19E-03    0.15E-06
 Optimization of the real space projectors (new method)

 maximal supplied QI-value         = 16.25
 optimisation between [QCUT,QGAM] = [ 11.38, 22.75] = [ 36.24,144.96] Ry 
 Optimized for a Real-space Cutoff    1.39 Angstroem

   l    n(q)    QCUT    max X(q) W(low)/X(q) W(high)/X(q)  e(spline) 
   2      8    11.376    60.317    0.19E-03    0.33E-04    0.13E-06
   2      8    11.376    55.921    0.20E-03    0.34E-04    0.14E-06
   0      9    11.376    51.690    0.82E-04    0.12E-03    0.20E-06
   0      9    11.376    30.015    0.74E-04    0.11E-03    0.18E-06
   1      9    11.376    18.849    0.39E-03    0.12E-03    0.13E-06
   1      9    11.376    14.624    0.33E-03    0.10E-03    0.11E-06
 Optimization of the real space projectors (new method)

 maximal supplied QI-value         = 25.13
 optimisation between [QCUT,QGAM] = [ 11.31, 22.87] = [ 35.82,146.48] Ry 
 Optimized for a Real-space Cutoff    1.00 Angstroem

   l    n(q)    QCUT    max X(q) W(low)/X(q) W(high)/X(q)  e(spline) 
   0      7    11.310   115.676    0.43E-03    0.13E-02    0.19E-06
   0      7    11.310    87.132    0.43E-03    0.13E-02    0.18E-06
   1      6    11.310     4.429    0.42E-03    0.74E-03    0.11E-06
   1      6    11.310     2.733    0.34E-03    0.55E-03    0.92E-07
 Optimization of the real space projectors (new method)

 maximal supplied QI-value         = 24.76
 optimisation between [QCUT,QGAM] = [ 11.39, 22.77] = [ 36.31,145.25] Ry 
 Optimized for a Real-space Cutoff    1.00 Angstroem

   l    n(q)    QCUT    max X(q) W(low)/X(q) W(high)/X(q)  e(spline) 
   0      7    11.387    20.381    0.39E-03    0.13E-02    0.15E-06
   0      7    11.387    15.268    0.42E-03    0.14E-02    0.17E-06
   1      6    11.387     5.964    0.41E-03    0.11E-02    0.17E-06
   1      6    11.387     5.382    0.39E-03    0.87E-03    0.15E-06
  PAW_PBE Au 04Oct2007                  :
 energy of atom  1       EATOM= -926.0867
 kinetic energy error for atom=    0.0042 (will be added to EATOM!!)
  PAW_PBE Ni 02Aug2007                  :
 energy of atom  2       EATOM=-1077.6739
 kinetic energy error for atom=    0.0030 (will be added to EATOM!!)
  PAW_PBE C 08Apr2002                   :
 energy of atom  3       EATOM= -147.1560
 kinetic energy error for atom=    0.0076 (will be added to EATOM!!)
  PAW_PBE O 08Apr2002                   :
 energy of atom  4       EATOM= -432.3788
 kinetic energy error for atom=    0.0224 (will be added to EATOM!!)
 
 
 POSCAR: Au-Ni-CO2
  positions in direct lattice
  velocities in cartesian coordinates
 exchange correlation table for  LEXCH =        8
   RHO(1)=    0.500       N(1)  =     2000
   RHO(2)=  100.500       N(2)  =     4000

 VTST: version 3.2, (02/03/18)

 CHAIN: initializing optimizer
 
 OPT: Using VASP Conjugate-Gradient optimizer
 CHAIN: Read ICHAIN            0
 
 POSCAR: Au-Ni-CO2
  positions in direct lattice
  velocities in cartesian coordinates
 


--------------------------------------------------------------------------------------------------------


 ion  position               nearest neighbor table
   1  0.000  0.000  0.217-  16 2.94  12 2.94   6 2.94   8 2.94   7 2.94   3 2.94  10 2.94   4 2.94
                             2 2.94
   2  0.333  0.000  0.217-   9 2.94  11 2.94  17 2.94  10 2.94   8 2.94   4 2.94   5 2.94   1 2.94
                             3 2.94
   3  0.667  0.000  0.217-   7 2.94  18 2.94  12 2.94   1 2.94  11 2.94   5 2.94   6 2.94   9 2.94
                             2 2.94
   4  0.000  0.333  0.217-  10 2.94   6 2.94   5 2.94  13 2.94   2 2.94  15 2.94   9 2.94   1 2.94
                             7 2.94
   5  0.333  0.333  0.217-  13 2.94   7 2.94  11 2.94   4 2.94   2 2.94  14 2.94   3 2.94   8 2.94
                             6 2.94
   6  0.667  0.333  0.217-  15 2.94  14 2.94   1 2.94  12 2.94   4 2.94   9 2.94   8 2.94   3 2.94
                             5 2.94
   7  0.000  0.667  0.217-  18 2.94   3 2.94  16 2.94   5 2.94   1 2.94  13 2.94   8 2.94   4 2.94
                             9 2.94
   8  0.333  0.667  0.217-   9 2.94  17 2.94   1 2.94   2 2.94  14 2.94  16 2.94   6 2.94   7 2.94
                             5 2.94
   9  0.667  0.667  0.217-   2 2.94   8 2.94  17 2.94   6 2.94  15 2.94   4 2.94   3 2.94  18 2.94
                             7 2.94
  10  0.111  0.111  0.315-  20 2.93  26 2.93  19 2.93  11 2.94  17 2.94   2 2.94   4 2.94   1 2.94
                            12 2.94  16 2.94  13 2.94  15 2.94
  11  0.444  0.111  0.315-  20 2.92  21 2.92  27 2.93  13 2.94   2 2.94  10 2.94  17 2.94   5 2.94
                             3 2.94  18 2.94  14 2.94  12 2.94
  12  0.778  0.111  0.315-  21 2.93  25 2.93  19 2.93  16 2.94  18 2.94   1 2.94  14 2.94  15 2.94
                             3 2.94   6 2.94  10 2.94  11 2.94
  13  0.111  0.444  0.315-  23 2.92  20 2.92  22 2.93   5 2.94  18 2.94  11 2.94   7 2.94   4 2.94
                            16 2.94  10 2.94  14 2.94  15 2.94
  14  0.444  0.444  0.315-  21 2.92  23 2.92  24 2.93  15 2.94   6 2.94  12 2.94   8 2.94  17 2.94
                             5 2.94  16 2.94  13 2.94  11 2.94
  15  0.778  0.444  0.315-  24 2.92  22 2.92  19 2.93  14 2.94   6 2.94  17 2.94  12 2.94   9 2.94
                             4 2.94  10 2.94  13 2.94  18 2.94
  16  0.111  0.778  0.315-  23 2.93  25 2.93  26 2.93  18 2.94  12 2.94   7 2.94   1 2.94   8 2.94
                            13 2.94  10 2.94  14 2.94  17 2.94
  17  0.444  0.778  0.315-  27 2.92  24 2.92  26 2.93   9 2.94  15 2.94   2 2.94  10 2.94  11 2.94
                             8 2.94  14 2.94  16 2.94  18 2.94
  18  0.778  0.778  0.315-  22 2.92  27 2.92  25 2.93  16 2.94   7 2.94  13 2.94  12 2.94   3 2.94
                            11 2.94   9 2.94  15 2.94  17 2.94
  19  0.889  0.222  0.413-  10 2.93  12 2.93  15 2.93  26 2.93  25 2.93  24 2.94  22 2.94  21 2.95
                            20 2.95  28 2.95  32 2.96  31 2.96
  20  0.223  0.223  0.413-  36 2.70  29 2.91  31 2.91  11 2.92  13 2.92  23 2.92  21 2.92  10 2.93
                            27 2.95  22 2.95  26 2.95  19 2.95
  21  0.554  0.223  0.413-  36 2.70  30 2.91  32 2.91  14 2.92  11 2.92  20 2.92  23 2.92  12 2.93
                            27 2.95  24 2.95  25 2.95  19 2.95
  22  0.888  0.556  0.413-  18 2.92  15 2.92  24 2.92  27 2.92  13 2.93  25 2.94  19 2.94  33 2.94
                            31 2.94  23 2.95  20 2.95  35 2.96
  23  0.223  0.554  0.413-  36 2.70  33 2.91  34 2.91  13 2.92  14 2.92  20 2.92  21 2.92  16 2.93
                            22 2.95  24 2.95  25 2.95  26 2.95
  24  0.556  0.556  0.413-  15 2.92  17 2.92  27 2.92  22 2.92  14 2.93  26 2.94  19 2.94  32 2.94
                            34 2.94  21 2.95  23 2.95  35 2.96
  25  0.889  0.889  0.413-  16 2.93  12 2.93  18 2.93  19 2.93  26 2.93  22 2.94  27 2.94  23 2.95
                            21 2.95  28 2.95  33 2.96  30 2.96
  26  0.222  0.889  0.413-  10 2.93  16 2.93  17 2.93  19 2.93  25 2.93  27 2.94  24 2.94  20 2.95
                            23 2.95  28 2.95  29 2.96  34 2.96
  27  0.556  0.888  0.413-  17 2.92  18 2.92  24 2.92  22 2.92  11 2.93  26 2.94  25 2.94  29 2.94
                            30 2.94  20 2.95  21 2.95  35 2.96
  28  0.000  0.000  0.512-  25 2.95  19 2.95  26 2.95  34 2.97  32 2.97  33 2.97  30 2.97  31 2.97
                            29 2.97
  29  0.334  0.007  0.511-  30 2.87  31 2.88  36 2.89  20 2.91  27 2.94  26 2.96  35 2.97  28 2.97
                            34 3.06
  30  0.660  0.007  0.511-  29 2.87  32 2.88  36 2.89  21 2.91  27 2.94  25 2.96  35 2.97  28 2.97
                            33 3.06
  31  0.007  0.334  0.511-  33 2.87  29 2.88  36 2.89  20 2.91  22 2.94  19 2.96  35 2.97  28 2.97
                            32 3.06
  32  0.660  0.334  0.511-  34 2.87  30 2.88  36 2.89  21 2.91  24 2.94  19 2.96  35 2.97  28 2.97
                            31 3.06
  33  0.007  0.660  0.511-  31 2.87  34 2.88  36 2.89  23 2.91  22 2.94  25 2.96  35 2.97  28 2.97
                            30 3.06
  34  0.334  0.660  0.511-  32 2.87  33 2.88  36 2.89  23 2.91  24 2.94  26 2.96  35 2.97  28 2.97
                            29 3.06
  35  0.667  0.667  0.513-  24 2.96  27 2.96  22 2.96  29 2.97  34 2.97  32 2.97  31 2.97  30 2.97
                            33 2.97
  36  0.333  0.333  0.499-  20 2.70  23 2.70  21 2.70  33 2.89  31 2.89  29 2.89  30 2.89  34 2.89
                            32 2.89
  37  0.336  0.340  0.655-  38 1.18  39 1.18
  38  0.206  0.333  0.656-  37 1.18
  39  0.465  0.348  0.654-  37 1.18
 
  LATTYP: Found a hexagonal cell.
 ALAT       =     8.8135128021
 C/A-ratio  =     2.7649717827
  
  Lattice vectors:
  
 A1 = (  -4.4067569092,  -7.6327256898,   0.0000000000)
 A2 = (   8.8135128021,   0.0000000000,   0.0000000000)
 A3 = (   0.0000000000,   0.0000000000,  24.3691142040)


Analysis of symmetry for initial positions (statically):
=====================================================================
 Subroutine PRICEL returns:
 Original cell was already a primitive cell.
 

 Routine SETGRP: Setting up the symmetry group for a 
 hexagonal supercell.


 Subroutine GETGRP returns: Found  1 space group operations
 (whereof  1 operations were pure point group operations)
 out of a pool of 24 trial point group operations.


The static configuration has the point symmetry C_1 .


Analysis of symmetry for dynamics (positions and initial velocities):
=====================================================================
 Subroutine PRICEL returns:
 Original cell was already a primitive cell.
 

 Routine SETGRP: Setting up the symmetry group for a 
 hexagonal supercell.


 Subroutine GETGRP returns: Found  1 space group operations
 (whereof  1 operations were pure point group operations)
 out of a pool of 24 trial point group operations.


The dynamic configuration has the point symmetry C_1 .


Analysis of constrained symmetry for selective dynamics:
=====================================================================
 Subroutine PRICEL returns:
 Original cell was already a primitive cell.
 

 Routine SETGRP: Setting up the symmetry group for a 
 hexagonal supercell.


 Subroutine GETGRP returns: Found  1 space group operations
 (whereof  1 operations were pure point group operations)
 out of a pool of 24 trial point group operations.


The constrained configuration has the point symmetry C_1 .


 Subroutine INISYM returns: Found  1 space group operations
 (whereof  1 operations are pure point group operations),
 and found     1 'primitive' translations


----------------------------------------------------------------------------------------

                                     Primitive cell                                     

  volume of cell :    1639.3377

  direct lattice vectors                    reciprocal lattice vectors
     8.813512802  0.000000000  0.000000000     0.113462137 -0.065507406  0.000000000
     4.406756909  7.632725690  0.000000000     0.000000000  0.131014796  0.000000000
     0.000000000  0.000000000 24.369114204     0.000000000  0.000000000  0.041035550

  length of vectors
     8.813512802  8.813512802 24.369114204     0.131014796  0.131014796  0.041035550

  position of ions in fractional coordinates (direct lattice)
     0.000000000  0.000000000  0.216683294
     0.333333343  0.000000000  0.216683294
     0.666666687  0.000000000  0.216683294
     1.000000000  0.333333343  0.216683294
     0.333333313  0.333333343  0.216683294
     0.666666687  0.333333343  0.216683294
     1.000000000  0.666666687  0.216683294
     0.333333343  0.666666687  0.216683294
     0.666666627  0.666666687  0.216683294
     0.111111119  0.111111112  0.315116667
     0.444444418  0.111111112  0.315116667
     0.777777791  0.111111112  0.315116667
     0.111111127  0.444444448  0.315116667
     0.444444478  0.444444448  0.315116667
     0.777777731  0.444444448  0.315116667
     0.111111090  0.777777791  0.315116667
     0.444444448  0.777777791  0.315116667
     0.777777851  0.777777791  0.315116667
     0.889034572  0.221930873  0.413250398
     0.222892879  0.222892864  0.412755051
     0.554214302  0.222892864  0.412755051
     0.887576566  0.556211747  0.412795178
     0.222892834  0.554214302  0.412755051
     0.556211747  0.556211747  0.412795178
     0.889034572  0.889034572  0.413250398
     0.221930903  0.889034572  0.413250398
     0.556211687  0.887576566  0.412795178
     0.000000000  0.000000000  0.512474427
     0.333602496  0.006773743  0.511246236
     0.659623791  0.006773743  0.511246236
     0.006773743  0.333602496  0.511246236
     0.659623791  0.333602496  0.511246236
     0.006773743  0.659623791  0.511246236
     0.333602496  0.659623791  0.511246236
     0.666666627  0.666666687  0.512617364
     0.333333313  0.333333343  0.499053227
     0.335597531  0.340080936  0.655298795
     0.206001637  0.332606488  0.656137476
     0.465234647  0.347560330  0.654423206

  ion indices of the primitive-cell ions
   primitive index   ion index
                 1           1
                 2           2
                 3           3
                 4           4
                 5           5
                 6           6
                 7           7
                 8           8
                 9           9
                10          10
                11          11
                12          12
                13          13
                14          14
                15          15
                16          16
                17          17
                18          18
                19          19
                20          20
                21          21
                22          22
                23          23
                24          24
                25          25
                26          26
                27          27
                28          28
                29          29
                30          30
                31          31
                32          32
                33          33
                34          34
                35          35
                36          36
                37          37
                38          38
                39          39

----------------------------------------------------------------------------------------

 
 
 KPOINTS: Automatic mesh                          

Automatic generation of k-mesh.
 Grid dimensions read from file:
 generate k-points for:    8    8    1

 Generating k-lattice:

  Cartesian coordinates                     Fractional coordinates (reciprocal lattice)
     0.014182767 -0.008188426  0.000000000     0.125000000 -0.000000000  0.000000000
     0.000000000  0.016376850  0.000000000     0.000000000  0.125000000  0.000000000
     0.000000000  0.000000000  0.041035550     0.000000000  0.000000000  1.000000000

  Length of vectors
     0.016376850  0.016376850  0.041035550

  Shift w.r.t. Gamma in fractional coordinates (k-lattice)
     0.000000000  0.000000000  0.000000000

 TETIRR: Found    192 inequivalent tetrahedra from      384
 
 Subroutine IBZKPT returns following result:
 ===========================================
 
 Found     34 irreducible k-points:
 
 Following reciprocal coordinates:
            Coordinates               Weight
  0.000000  0.000000  0.000000      1.000000
  0.125000  0.000000  0.000000      2.000000
  0.125000  0.125000  0.000000      2.000000
  0.000000  0.125000  0.000000      2.000000
  0.250000  0.000000  0.000000      2.000000
  0.250000  0.250000  0.000000      2.000000
  0.000000  0.250000  0.000000      2.000000
  0.375000 -0.000000  0.000000      2.000000
  0.375000  0.375000  0.000000      2.000000
  0.000000  0.375000  0.000000      2.000000
  0.500000  0.000000  0.000000      1.000000
  0.500000  0.500000  0.000000      1.000000
  0.000000  0.500000  0.000000      1.000000
  0.250000  0.125000  0.000000      2.000000
  0.125000  0.250000  0.000000      2.000000
 -0.125000  0.125000  0.000000      2.000000
  0.375000  0.125000  0.000000      2.000000
  0.250000  0.375000  0.000000      2.000000
 -0.125000  0.250000  0.000000      2.000000
  0.250000 -0.125000  0.000000      2.000000
 -0.125000 -0.375000  0.000000      2.000000
 -0.375000 -0.250000  0.000000      2.000000
  0.500000  0.125000  0.000000      2.000000
  0.375000  0.500000  0.000000      2.000000
 -0.125000  0.375000  0.000000      2.000000
  0.375000 -0.125000  0.000000      2.000000
 -0.125000  0.500000  0.000000      2.000000
  0.500000 -0.375000  0.000000      2.000000
  0.500000  0.250000  0.000000      2.000000
  0.250000  0.500000  0.000000      2.000000
 -0.250000  0.250000  0.000000      2.000000
 -0.375000  0.250000  0.000000      2.000000
  0.375000 -0.375000  0.000000      2.000000
 -0.250000  0.375000  0.000000      2.000000
 
 Following cartesian coordinates:
            Coordinates               Weight
  0.000000  0.000000  0.000000      1.000000
  0.014183 -0.008188  0.000000      2.000000
  0.014183  0.008188  0.000000      2.000000
  0.000000  0.016377  0.000000      2.000000
  0.028366 -0.016377  0.000000      2.000000
  0.028366  0.016377  0.000000      2.000000
  0.000000  0.032754  0.000000      2.000000
  0.042548 -0.024565  0.000000      2.000000
  0.042548  0.024565  0.000000      2.000000
  0.000000  0.049131  0.000000      2.000000
  0.056731 -0.032754  0.000000      1.000000
  0.056731  0.032754  0.000000      1.000000
  0.000000  0.065507  0.000000      1.000000
  0.028366 -0.000000  0.000000      2.000000
  0.014183  0.024565  0.000000      2.000000
 -0.014183  0.024565  0.000000      2.000000
  0.042548 -0.008188  0.000000      2.000000
  0.028366  0.032754  0.000000      2.000000
 -0.014183  0.040942  0.000000      2.000000
  0.028366 -0.032754  0.000000      2.000000
 -0.014183 -0.040942  0.000000      2.000000
 -0.042548 -0.008188  0.000000      2.000000
  0.056731 -0.016377  0.000000      2.000000
  0.042548  0.040942  0.000000      2.000000
 -0.014183  0.057319  0.000000      2.000000
  0.042548 -0.040942  0.000000      2.000000
 -0.014183  0.073696  0.000000      2.000000
  0.056731 -0.081884  0.000000      2.000000
  0.056731 -0.000000  0.000000      2.000000
  0.028366  0.049131  0.000000      2.000000
 -0.028366  0.049131  0.000000      2.000000
 -0.042548  0.057319  0.000000      2.000000
  0.042548 -0.073696  0.000000      2.000000
 -0.028366  0.065507  0.000000      2.000000
 


--------------------------------------------------------------------------------------------------------




 Dimension of arrays:
   k-points           NKPTS =     34   k-points in BZ     NKDIM =     34   number of bands    NBANDS=    252
   number of dos      NEDOS =    301   number of ions     NIONS =     39
   non local maximal  LDIM  =      6   non local SUM 2l+1 LMDIM =     18
   total plane-waves  NPLWV = 322560
   max r-space proj   IRMAX =   2262   max aug-charges    IRDMAX=  12231
   dimension x,y,z NGX =    48 NGY =   48 NGZ =  140
   dimension x,y,z NGXF=    96 NGYF=   96 NGZF=  280
   support grid    NGXF=    96 NGYF=   96 NGZF=  280
   ions per type =              35   1   1   2
   NGX,Y,Z   is equivalent  to a cutoff of   9.05,  9.05,  9.55 a.u.
   NGXF,Y,Z  is equivalent  to a cutoff of  18.11, 18.11, 19.10 a.u.

 SYSTEM =  unknown system                          
 POSCAR =  Au-Ni-CO2                               

 Startparameter for this run:
   NWRITE =      2    write-flag & timer
   PREC   = normal    normal or accurate (medium, high low for compatibility)
   ISTART =      0    job   : 0-new  1-cont  2-samecut
   ICHARG =     11    charge: 1-file 2-atom 10-const
   ISPIN  =      1    spin polarized calculation?
   LNONCOLLINEAR =      F non collinear calculations
   LSORBIT =      F    spin-orbit coupling
   INIWAV =      1    electr: 0-lowe 1-rand  2-diag
   LASPH  =      F    aspherical Exc in radial PAW
   METAGGA=      F    non-selfconsistent MetaGGA calc.

 Electronic Relaxation 1
   ENCUT  =  500.0 eV  36.75 Ry    6.06 a.u.  16.07 16.07 44.43*2*pi/ulx,y,z
   ENINI  =  500.0     initial cutoff
   ENAUG  =  644.9 eV  augmentation charge cutoff
   NELM   =    150;   NELMIN=  2; NELMDL= -5     # of ELM steps 
   EDIFF  = 0.1E-04   stopping-criterion for ELM
   LREAL  =      T    real-space projection
   NLSPLINE    = F    spline interpolate recip. space projectors
   LCOMPAT=      F    compatible to vasp.4.4
   GGA_COMPAT  = T    GGA compatible to vasp.4.4-vasp.4.6
   LMAXPAW     = -100 max onsite density
   LMAXMIX     =    2 max onsite mixed and CHGCAR
   VOSKOWN=      0    Vosko Wilk Nusair interpolation
   ROPT   =   -0.00050  -0.00050  -0.00050  -0.00050
 Ionic relaxation
   EDIFFG = -.1E-01   stopping-criterion for IOM
   NSW    =      0    number of steps for IOM
   NBLOCK =      1;   KBLOCK =      1    inner block; outer block 
   IBRION =     -1    ionic relax: 0-MD 1-quasi-New 2-CG
   NFREE  =      1    steps in history (QN), initial steepest desc. (CG)
   ISIF   =      2    stress and relaxation
   IWAVPR =     10    prediction:  0-non 1-charg 2-wave 3-comb
   ISYM   =      2    0-nonsym 1-usesym 2-fastsym
   LCORR  =      T    Harris-Foulkes like correction to forces

   POTIM  = 0.5000    time-step for ionic-motion
   TEIN   =    0.0    initial temperature
   TEBEG  =    0.0;   TEEND  =   0.0 temperature during run
   SMASS  =  -3.00    Nose mass-parameter (am)
   estimated Nose-frequenzy (Omega)   =  0.10E-29 period in steps = 0.13E+47 mass=  -0.178E-26a.u.
   SCALEE = 1.0000    scale energy and forces
   NPACO  =    256;   APACO  = 16.0  distance and # of slots for P.C.
   PSTRESS=    0.0 pullay stress

  Mass of Ions in am
   POMASS = 196.97 58.69 12.01 16.00
  Ionic Valenz
   ZVAL   =  11.00 10.00  4.00  6.00
  Atomic Wigner-Seitz radii
   RWIGS  =  -1.00 -1.00 -1.00 -1.00
  virtual crystal weights 
   VCA    =   1.00  1.00  1.00  1.00
   NELECT =     411.0000    total number of electrons
   NUPDOWN=      -1.0000    fix difference up-down

 DOS related values:
   EMIN   =  10.00;   EMAX   =-10.00  energy-range for DOS
   EFERMI =   0.00
   ISMEAR =    -5;   SIGMA  =   0.10  broadening in eV -4-tet -1-fermi 0-gaus

 Electronic relaxation 2 (details)
   IALGO  =     68    algorithm
   LDIAG  =      T    sub-space diagonalisation (order eigenvalues)
   LSUBROT=      F    optimize rotation matrix (better conditioning)
   TURBO    =      0    0=normal 1=particle mesh
   IRESTART =      0    0=no restart 2=restart with 2 vectors
   NREBOOT  =      0    no. of reboots
   NMIN     =      0    reboot dimension
   EREF     =   0.00    reference energy to select bands
   IMIX   =      4    mixing-type and parameters
     AMIX     =   0.40;   BMIX     =  1.00
     AMIX_MAG =   1.60;   BMIX_MAG =  1.00
     AMIN     =   0.10
     WC   =   100.;   INIMIX=   1;  MIXPRE=   1;  MAXMIX= -45

 Intra band minimization:
   WEIMIN = 0.0000     energy-eigenvalue tresh-hold
   EBREAK =  0.99E-08  absolut break condition
   DEPER  =   0.30     relativ break condition  

   TIME   =   0.40     timestep for ELM

  volume/ion in A,a.u.               =      42.03       283.66
  Fermi-wavevector in a.u.,A,eV,Ry     =   1.032284  1.950734 14.498514  1.065611
  Thomas-Fermi vector in A             =   2.166474
 
 Write flags
   LWAVE        =      F    write WAVECAR
   LDOWNSAMPLE  =      F    k-point downsampling of WAVECAR
   LCHARG       =      F    write CHGCAR
   LVTOT        =      F    write LOCPOT, total local potential
   LVHAR        =      F    write LOCPOT, Hartree potential only
   LELF         =      F    write electronic localiz. function (ELF)
   LORBIT       =     10    0 simple, 1 ext, 2 COOP (PROOUT), +10 PAW based schemes


 Dipole corrections
   LMONO  =      F    monopole corrections only (constant potential shift)
   LDIPOL =      F    correct potential (dipole corrections)
   IDIPOL =      0    1-x, 2-y, 3-z, 4-all directions 
   EPSILON=  1.0000000 bulk dielectric constant

 Exchange correlation treatment:
   GGA     =    --    GGA type
   LEXCH   =     8    internal setting for exchange type
   VOSKOWN=      0    Vosko Wilk Nusair interpolation
   LHFCALC =     F    Hartree Fock is set to
   LHFONE  =     F    Hartree Fock one center treatment
   AEXX    =    0.0000 exact exchange contribution

 Linear response parameters
   LEPSILON=     F    determine dielectric tensor
   LRPA    =     F    only Hartree local field effects (RPA)
   LNABLA  =     F    use nabla operator in PAW spheres
   LVEL    =     F    velocity operator in full k-point grid
   LINTERFAST=   F  fast interpolation
   KINTER  =     0    interpolate to denser k-point grid
   CSHIFT  =0.1000    complex shift for real part using Kramers Kronig
   OMEGAMAX=  -1.0    maximum frequency
   DEG_THRESHOLD= 0.2000000E-02 threshold for treating states as degnerate
   RTIME   =   -0.100 relaxation time in fs
  (WPLASMAI=    0.000 imaginary part of plasma frequency in eV, 0.658/RTIME)
   DFIELD  = 0.0000000 0.0000000 0.0000000 field for delta impulse in time
 
 Orbital magnetization related:
   ORBITALMAG=     F  switch on orbital magnetization
   LCHIMAG   =     F  perturbation theory with respect to B field
   DQ        =  0.001000  dq finite difference perturbation B field
   LLRAUG    =     F  two centre corrections for induced B field



--------------------------------------------------------------------------------------------------------


 Static calculation
 charge density and potential remain constant during run
 non-spin polarized calculation
 RMM-DIIS sequential band-by-band and
  variant of blocked Davidson during initial phase
 perform sub-space diagonalisation
    before iterative eigenvector-optimisation
 no mixing
 using additional bands           46
 real space projection scheme for non local part
 use partial core corrections
 calculate Harris-corrections to forces 
   (improved forces if not selfconsistent)
 use gradient corrections 
 WARNING: stress and forces are not correct
  (second derivative of E(xc) not defined)
 use of overlap-Matrix (Vanderbilt PP)
 Fermi weights with tetrahedron method with Bloechl corrections


--------------------------------------------------------------------------------------------------------


  energy-cutoff  :      500.00
  volume of cell :     1639.34
      direct lattice vectors                 reciprocal lattice vectors
     8.813512802  0.000000000  0.000000000     0.113462137 -0.065507406  0.000000000
     4.406756909  7.632725690  0.000000000     0.000000000  0.131014796  0.000000000
     0.000000000  0.000000000 24.369114204     0.000000000  0.000000000  0.041035550

  length of vectors
     8.813512802  8.813512802 24.369114204     0.131014796  0.131014796  0.041035550


 
 k-points in units of 2pi/SCALE and weight: Automatic mesh                          
   0.00000000  0.00000000  0.00000000       0.016
   0.01418277 -0.00818843  0.00000000       0.031
   0.01418277  0.00818842  0.00000000       0.031
   0.00000000  0.01637685  0.00000000       0.031
   0.02836553 -0.01637685  0.00000000       0.031
   0.02836553  0.01637685  0.00000000       0.031
   0.00000000  0.03275370  0.00000000       0.031
   0.04254830 -0.02456528  0.00000000       0.031
   0.04254830  0.02456527  0.00000000       0.031
   0.00000000  0.04913055  0.00000000       0.031
   0.05673107 -0.03275370  0.00000000       0.016
   0.05673107  0.03275370  0.00000000       0.016
   0.00000000  0.06550740  0.00000000       0.016
   0.02836553 -0.00000000  0.00000000       0.031
   0.01418277  0.02456527  0.00000000       0.031
  -0.01418277  0.02456528  0.00000000       0.031
   0.04254830 -0.00818843  0.00000000       0.031
   0.02836553  0.03275370  0.00000000       0.031
  -0.01418277  0.04094212  0.00000000       0.031
   0.02836553 -0.03275370  0.00000000       0.031
  -0.01418277 -0.04094212  0.00000000       0.031
  -0.04254830 -0.00818842  0.00000000       0.031
   0.05673107 -0.01637685  0.00000000       0.031
   0.04254830  0.04094212  0.00000000       0.031
  -0.01418277  0.05731897  0.00000000       0.031
   0.04254830 -0.04094213  0.00000000       0.031
  -0.01418277  0.07369582  0.00000000       0.031
   0.05673107 -0.08188425  0.00000000       0.031
   0.05673107 -0.00000000  0.00000000       0.031
   0.02836553  0.04913055  0.00000000       0.031
  -0.02836553  0.04913055  0.00000000       0.031
  -0.04254830  0.05731898  0.00000000       0.031
   0.04254830 -0.07369583  0.00000000       0.031
  -0.02836553  0.06550740  0.00000000       0.031
 
 k-points in reciprocal lattice and weights: Automatic mesh                          
   0.00000000  0.00000000  0.00000000       0.016
   0.12500000  0.00000000  0.00000000       0.031
   0.12500000  0.12500000  0.00000000       0.031
   0.00000000  0.12500000  0.00000000       0.031
   0.25000000  0.00000000  0.00000000       0.031
   0.25000000  0.25000000  0.00000000       0.031
   0.00000000  0.25000000  0.00000000       0.031
   0.37500000 -0.00000000  0.00000000       0.031
   0.37500000  0.37500000  0.00000000       0.031
   0.00000000  0.37500000  0.00000000       0.031
   0.50000000  0.00000000  0.00000000       0.016
   0.50000000  0.50000000  0.00000000       0.016
   0.00000000  0.50000000  0.00000000       0.016
   0.25000000  0.12500000  0.00000000       0.031
   0.12500000  0.25000000  0.00000000       0.031
  -0.12500000  0.12500000  0.00000000       0.031
   0.37500000  0.12500000  0.00000000       0.031
   0.25000000  0.37500000  0.00000000       0.031
  -0.12500000  0.25000000  0.00000000       0.031
   0.25000000 -0.12500000  0.00000000       0.031
  -0.12500000 -0.37500000  0.00000000       0.031
  -0.37500000 -0.25000000  0.00000000       0.031
   0.50000000  0.12500000  0.00000000       0.031
   0.37500000  0.50000000  0.00000000       0.031
  -0.12500000  0.37500000  0.00000000       0.031
   0.37500000 -0.12500000  0.00000000       0.031
  -0.12500000  0.50000000  0.00000000       0.031
   0.50000000 -0.37500000  0.00000000       0.031
   0.50000000  0.25000000  0.00000000       0.031
   0.25000000  0.50000000  0.00000000       0.031
  -0.25000000  0.25000000  0.00000000       0.031
  -0.37500000  0.25000000  0.00000000       0.031
   0.37500000 -0.37500000  0.00000000       0.031
  -0.25000000  0.37500000  0.00000000       0.031
 
 position of ions in fractional coordinates (direct lattice) 
   0.00000000  0.00000000  0.21668329
   0.33333334  0.00000000  0.21668329
   0.66666669  0.00000000  0.21668329
   0.00000000  0.33333334  0.21668329
   0.33333331  0.33333334  0.21668329
   0.66666669  0.33333334  0.21668329
   0.00000000  0.66666669  0.21668329
   0.33333334  0.66666669  0.21668329
   0.66666663  0.66666669  0.21668329
   0.11111112  0.11111111  0.31511667
   0.44444442  0.11111111  0.31511667
   0.77777779  0.11111111  0.31511667
   0.11111113  0.44444445  0.31511667
   0.44444448  0.44444445  0.31511667
   0.77777773  0.44444445  0.31511667
   0.11111109  0.77777779  0.31511667
   0.44444445  0.77777779  0.31511667
   0.77777785  0.77777779  0.31511667
   0.88903457  0.22193087  0.41325040
   0.22289288  0.22289286  0.41275505
   0.55421430  0.22289286  0.41275505
   0.88757657  0.55621175  0.41279518
   0.22289283  0.55421430  0.41275505
   0.55621175  0.55621175  0.41279518
   0.88903457  0.88903457  0.41325040
   0.22193090  0.88903457  0.41325040
   0.55621169  0.88757657  0.41279518
   0.00000000  0.00000000  0.51247443
   0.33360250  0.00677374  0.51124624
   0.65962379  0.00677374  0.51124624
   0.00677374  0.33360250  0.51124624
   0.65962379  0.33360250  0.51124624
   0.00677374  0.65962379  0.51124624
   0.33360250  0.65962379  0.51124624
   0.66666663  0.66666669  0.51261736
   0.33333331  0.33333334  0.49905323
   0.33559753  0.34008094  0.65529879
   0.20600164  0.33260649  0.65613748
   0.46523465  0.34756033  0.65442321
 
 position of ions in cartesian coordinates  (Angst):
   0.00000000  0.00000000  5.28037993
   2.93783769  0.00000000  5.28037993
   5.87567538  0.00000000  5.28037993
   1.46891901  2.54424197  5.28037993
   4.40675643  2.54424197  5.28037993
   7.34459439  2.54424197  5.28037993
   2.93783803  5.08848395  5.28037993
   5.87567571  5.08848395  5.28037993
   8.81351288  5.08848395  5.28037993
   1.46891893  0.84808064  7.67911405
   4.40675623  0.84808064  7.67911405
   7.34459418  0.84808064  7.67911405
   2.93783798  3.39232256  7.67911405
   5.87567574  3.39232256  7.67911405
   8.81351263  3.39232256  7.67911405
   4.40675667  5.93656453  7.67911405
   7.34459449  5.93656453  7.67911405
  10.28243270  5.93656453  7.67911405
   8.81351299  1.69393747 10.07054615
   2.94670391  1.70128009 10.05847497
   5.86680951  1.70128009 10.05847497
  10.27375739  4.24541169 10.05945283
   4.40675655  4.23016574 10.05847497
   7.35326931  4.24541169 10.05945283
  11.75327682  6.78575701 10.07054615
   5.87375009  6.78575701 10.07054615
   8.81351299  6.77462846 10.05945283
   0.00000000  0.00000000 12.48854784
   2.97006011  0.05170212 12.45861791
   5.84345296  0.05170212 12.45861791
   1.52980557  2.54629634 12.45861791
   7.28370783  2.54629634 12.45861791
   2.96650217  5.03472745 12.45861791
   5.84701157  5.03472745 12.45861791
   8.81351288  5.08848395 12.49203108
   4.40675643  2.54424197 12.16148509
   4.45644715  2.59574450 15.96905117
   3.28131400  2.53869409 15.98948908
   5.63196541  2.65283266 15.94771385
 


--------------------------------------------------------------------------------------------------------


 k-point   1 :   0.0000 0.0000 0.0000  plane waves:   41519
 k-point   2 :   0.1250 0.0000 0.0000  plane waves:   41578
 k-point   3 :   0.1250 0.1250 0.0000  plane waves:   41578
 k-point   4 :   0.0000 0.1250 0.0000  plane waves:   41578
 k-point   5 :   0.2500 0.0000 0.0000  plane waves:   41600
 k-point   6 :   0.2500 0.2500 0.0000  plane waves:   41600
 k-point   7 :   0.0000 0.2500 0.0000  plane waves:   41600
 k-point   8 :   0.3750-0.0000 0.0000  plane waves:   41638
 k-point   9 :   0.3750 0.3750 0.0000  plane waves:   41638
 k-point  10 :   0.0000 0.3750 0.0000  plane waves:   41638
 k-point  11 :   0.5000 0.0000 0.0000  plane waves:   41584
 k-point  12 :   0.5000 0.5000 0.0000  plane waves:   41584
 k-point  13 :   0.0000 0.5000 0.0000  plane waves:   41584
 k-point  14 :   0.2500 0.1250 0.0000  plane waves:   41548
 k-point  15 :   0.1250 0.2500 0.0000  plane waves:   41548
 k-point  16 :  -0.1250 0.1250 0.0000  plane waves:   41548
 k-point  17 :   0.3750 0.1250 0.0000  plane waves:   41640
 k-point  18 :   0.2500 0.3750 0.0000  plane waves:   41640
 k-point  19 :  -0.1250 0.2500 0.0000  plane waves:   41640
 k-point  20 :   0.2500-0.1250 0.0000  plane waves:   41640
 k-point  21 :  -0.1250-0.3750 0.0000  plane waves:   41640
 k-point  22 :  -0.3750-0.2500 0.0000  plane waves:   41640
 k-point  23 :   0.5000 0.1250 0.0000  plane waves:   41652
 k-point  24 :   0.3750 0.5000 0.0000  plane waves:   41652
 k-point  25 :  -0.1250 0.3750 0.0000  plane waves:   41652
 k-point  26 :   0.3750-0.1250 0.0000  plane waves:   41652
 k-point  27 :  -0.1250 0.5000 0.0000  plane waves:   41652
 k-point  28 :   0.5000-0.3750 0.0000  plane waves:   41652
 k-point  29 :   0.5000 0.2500 0.0000  plane waves:   41658
 k-point  30 :   0.2500 0.5000 0.0000  plane waves:   41658
 k-point  31 :  -0.2500 0.2500 0.0000  plane waves:   41658
 k-point  32 :  -0.3750 0.2500 0.0000  plane waves:   41624
 k-point  33 :   0.3750-0.3750 0.0000  plane waves:   41624
 k-point  34 :  -0.2500 0.3750 0.0000  plane waves:   41624

 maximum and minimum number of plane-waves per node :     41658    41519

 maximum number of plane-waves:     41658
 maximum index in each direction: 
   IXMAX=   16   IYMAX=   16   IZMAX=   44
   IXMIN=  -16   IYMIN=  -16   IZMIN=  -44


 serial   3D FFT for wavefunctions
 parallel 3D FFT for charge:
    minimum data exchange during FFTs selected (reduces bandwidth)


 total amount of memory used by VASP MPI-rank0   277294. kBytes
=======================================================================

   base      :      30000. kBytes
   nonlr-proj:      13880. kBytes
   fftplans  :       4808. kBytes
   grid      :      20723. kBytes
   one-center:        606. kBytes
   wavefun   :     207277. kBytes
 
     INWAV:  cpu time    0.0000: real time    0.0001
 initial charge density was supplied:
 number of electron     411.0000148 magnetization 
 keeping initial charge density in first step


--------------------------------------------------------------------------------------------------------


 Maximum index for non-local projection operator         2164
 Maximum index for augmentation-charges          867 (set IRDMAX)


--------------------------------------------------------------------------------------------------------


 First call to EWALD:  gamma=   0.150
 Maximum number of real-space cells 4x 4x 2
 Maximum number of reciprocal cells 2x 2x 5

    FEWALD:  cpu time    0.0016: real time    0.0016


--------------------------------------- Iteration      1(   1)  ---------------------------------------


    POTLOK:  cpu time    0.0476: real time    0.0479
    SETDIJ:  cpu time    0.0050: real time    0.0051
     EDDAV:  cpu time   26.1994: real time   26.2014
 BZINTS: Fermi energy:   11.280494;  411.000000 electrons
         Band energy: 0.144384E+04;  BLOECHL correction:   -0.014935
       DOS:  cpu time    0.0624: real time    0.0624
    --------------------------------------------
      LOOP:  cpu time   26.3144: real time   26.3169

 eigenvalue-minimisations  : 17136
 total energy-change (2. order) : 0.2804854E+04  (-0.1843240E+05)
 number of electron     411.0000148 magnetization 
 augmentation part      411.0000148 magnetization 

 Free energy of the ion-electron system (eV)
  ---------------------------------------------------
  alpha Z        PSCENC =       958.72474042
  Ewald energy   TEWEN  =    124687.01139143
  -Hartree energ DENC   =   -160062.84850732
  -exchange      EXHF   =         0.00000000
  -V(xc)+E(xc)   XCENC  =       617.44238260
  PAW double counting   =     37726.28482133   -37068.01576569
  entropy T*S    EENTRO =         0.00000000
  eigenvalues    EBANDS =      1443.83653069
  atomic energy  EATOM  =     34502.41840517
  Solvation  Ediel_sol  =         0.00000000
  ---------------------------------------------------
  free energy    TOTEN  =      2804.85399864 eV

  energy without entropy =     2804.85399864  energy(sigma->0) =     2804.85399864


--------------------------------------------------------------------------------------------------------




--------------------------------------- Iteration      1(   2)  ---------------------------------------


     EDDAV:  cpu time   28.5533: real time   28.5538
 BZINTS: Fermi energy:    1.087542;  411.000000 electrons
         Band energy:-0.132288E+04;  BLOECHL correction:   -0.060675
       DOS:  cpu time    0.0586: real time    0.0586
    --------------------------------------------
      LOOP:  cpu time   28.6119: real time   28.6124

 eigenvalue-minimisations  : 19096
 total energy-change (2. order) :-0.2766717E+04  (-0.2588021E+04)
 number of electron     411.0000148 magnetization 
 augmentation part      411.0000148 magnetization 

 Free energy of the ion-electron system (eV)
  ---------------------------------------------------
  alpha Z        PSCENC =       958.72474042
  Ewald energy   TEWEN  =    124687.01139143
  -Hartree energ DENC   =   -160062.84850732
  -exchange      EXHF   =         0.00000000
  -V(xc)+E(xc)   XCENC  =       617.44238260
  PAW double counting   =     37726.28482133   -37068.01576569
  entropy T*S    EENTRO =         0.00000000
  eigenvalues    EBANDS =     -1322.88053875
  atomic energy  EATOM  =     34502.41840517
  Solvation  Ediel_sol  =         0.00000000
  ---------------------------------------------------
  free energy    TOTEN  =        38.13692920 eV

  energy without entropy =       38.13692920  energy(sigma->0) =       38.13692920


--------------------------------------------------------------------------------------------------------




--------------------------------------- Iteration      1(   3)  ---------------------------------------


     EDDAV:  cpu time   30.3722: real time   30.3726
 BZINTS: Fermi energy:    0.273326;  411.000000 electrons
         Band energy:-0.149188E+04;  BLOECHL correction:   -0.105608
       DOS:  cpu time    0.0588: real time    0.0588
    --------------------------------------------
      LOOP:  cpu time   30.4310: real time   30.4314

 eigenvalue-minimisations  : 20552
 total energy-change (2. order) :-0.1689955E+03  (-0.1648656E+03)
 number of electron     411.0000148 magnetization 
 augmentation part      411.0000148 magnetization 

 Free energy of the ion-electron system (eV)
  ---------------------------------------------------
  alpha Z        PSCENC =       958.72474042
  Ewald energy   TEWEN  =    124687.01139143
  -Hartree energ DENC   =   -160062.84850732
  -exchange      EXHF   =         0.00000000
  -V(xc)+E(xc)   XCENC  =       617.44238260
  PAW double counting   =     37726.28482133   -37068.01576569
  entropy T*S    EENTRO =         0.00000000
  eigenvalues    EBANDS =     -1491.87599484
  atomic energy  EATOM  =     34502.41840517
  Solvation  Ediel_sol  =         0.00000000
  ---------------------------------------------------
  free energy    TOTEN  =      -130.85852689 eV

  energy without entropy =     -130.85852689  energy(sigma->0) =     -130.85852689


--------------------------------------------------------------------------------------------------------




--------------------------------------- Iteration      1(   4)  ---------------------------------------


     EDDAV:  cpu time   28.6356: real time   28.6360
 BZINTS: Fermi energy:    0.253351;  411.000000 electrons
         Band energy:-0.149528E+04;  BLOECHL correction:   -0.103057
       DOS:  cpu time    0.0565: real time    0.0565
    --------------------------------------------
      LOOP:  cpu time   28.6921: real time   28.6925

 eigenvalue-minimisations  : 19096
 total energy-change (2. order) :-0.3403287E+01  (-0.3379323E+01)
 number of electron     411.0000148 magnetization 
 augmentation part      411.0000148 magnetization 

 Free energy of the ion-electron system (eV)
  ---------------------------------------------------
  alpha Z        PSCENC =       958.72474042
  Ewald energy   TEWEN  =    124687.01139143
  -Hartree energ DENC   =   -160062.84850732
  -exchange      EXHF   =         0.00000000
  -V(xc)+E(xc)   XCENC  =       617.44238260
  PAW double counting   =     37726.28482133   -37068.01576569
  entropy T*S    EENTRO =         0.00000000
  eigenvalues    EBANDS =     -1495.27928225
  atomic energy  EATOM  =     34502.41840517
  Solvation  Ediel_sol  =         0.00000000
  ---------------------------------------------------
  free energy    TOTEN  =      -134.26181431 eV

  energy without entropy =     -134.26181431  energy(sigma->0) =     -134.26181431


--------------------------------------------------------------------------------------------------------




--------------------------------------- Iteration      1(   5)  ---------------------------------------


     EDDAV:  cpu time   30.6922: real time   30.6955
 BZINTS: Fermi energy:    0.252758;  411.000000 electrons
         Band energy:-0.149540E+04;  BLOECHL correction:   -0.102906
       DOS:  cpu time    0.0562: real time    0.0562
    --------------------------------------------
      LOOP:  cpu time   30.7485: real time   30.7517

 eigenvalue-minimisations  : 20804
 total energy-change (2. order) :-0.1191714E+00  (-0.1190296E+00)
 number of electron     411.0000148 magnetization 
 augmentation part      411.0000148 magnetization 

 Free energy of the ion-electron system (eV)
  ---------------------------------------------------
  alpha Z        PSCENC =       958.72474042
  Ewald energy   TEWEN  =    124687.01139143
  -Hartree energ DENC   =   -160062.84850732
  -exchange      EXHF   =         0.00000000
  -V(xc)+E(xc)   XCENC  =       617.44238260
  PAW double counting   =     37726.28482133   -37068.01576569
  entropy T*S    EENTRO =         0.00000000
  eigenvalues    EBANDS =     -1495.39845370
  atomic energy  EATOM  =     34502.41840517
  Solvation  Ediel_sol  =         0.00000000
  ---------------------------------------------------
  free energy    TOTEN  =      -134.38098575 eV

  energy without entropy =     -134.38098575  energy(sigma->0) =     -134.38098575


--------------------------------------------------------------------------------------------------------




--------------------------------------- Iteration      1(   6)  ---------------------------------------


    EDDIAG:  cpu time    5.1933: real time    5.1937
  RMM-DIIS:  cpu time   15.7799: real time   15.7833
    ORTHCH:  cpu time    0.9676: real time    0.9676
 BZINTS: Fermi energy:    0.252752;  411.000000 electrons
         Band energy:-0.149540E+04;  BLOECHL correction:   -0.102906
       DOS:  cpu time    0.0600: real time    0.0600
    --------------------------------------------
      LOOP:  cpu time   22.0007: real time   22.0046

 eigenvalue-minimisations  : 17833
 total energy-change (2. order) :-0.2650114E-02  (-0.2650421E-02)
 number of electron     411.0000148 magnetization 
 augmentation part      411.0000148 magnetization 

 Free energy of the ion-electron system (eV)
  ---------------------------------------------------
  alpha Z        PSCENC =       958.72474042
  Ewald energy   TEWEN  =    124687.01139143
  -Hartree energ DENC   =   -160062.84850732
  -exchange      EXHF   =         0.00000000
  -V(xc)+E(xc)   XCENC  =       617.44238260
  PAW double counting   =     37726.28482133   -37068.01576569
  entropy T*S    EENTRO =         0.00000000
  eigenvalues    EBANDS =     -1495.40110381
  atomic energy  EATOM  =     34502.41840517
  Solvation  Ediel_sol  =         0.00000000
  ---------------------------------------------------
  free energy    TOTEN  =      -134.38363587 eV

  energy without entropy =     -134.38363587  energy(sigma->0) =     -134.38363587


--------------------------------------------------------------------------------------------------------




--------------------------------------- Iteration      1(   7)  ---------------------------------------


    EDDIAG:  cpu time    5.1934: real time    5.1935
  RMM-DIIS:  cpu time   21.1130: real time   21.1131
    ORTHCH:  cpu time    0.9683: real time    0.9683
 BZINTS: Fermi energy:    0.252751;  411.000000 electrons
         Band energy:-0.149540E+04;  BLOECHL correction:   -0.102905
       DOS:  cpu time    0.0550: real time    0.0549
    --------------------------------------------
      LOOP:  cpu time   27.3297: real time   27.3299

 eigenvalue-minimisations  : 24939
 total energy-change (2. order) :-0.9628322E-03  (-0.9503038E-03)
 number of electron     411.0000148 magnetization 
 augmentation part      411.0000148 magnetization 

 Free energy of the ion-electron system (eV)
  ---------------------------------------------------
  alpha Z        PSCENC =       958.72474042
  Ewald energy   TEWEN  =    124687.01139143
  -Hartree energ DENC   =   -160062.84850732
  -exchange      EXHF   =         0.00000000
  -V(xc)+E(xc)   XCENC  =       617.44238260
  PAW double counting   =     37726.28482133   -37068.01576569
  entropy T*S    EENTRO =         0.00000000
  eigenvalues    EBANDS =     -1495.40206664
  atomic energy  EATOM  =     34502.41840517
  Solvation  Ediel_sol  =         0.00000000
  ---------------------------------------------------
  free energy    TOTEN  =      -134.38459870 eV

  energy without entropy =     -134.38459870  energy(sigma->0) =     -134.38459870


--------------------------------------------------------------------------------------------------------




--------------------------------------- Iteration      1(   8)  ---------------------------------------


    EDDIAG:  cpu time    5.1946: real time    5.1946
  RMM-DIIS:  cpu time   17.1436: real time   17.1437
    ORTHCH:  cpu time    0.9681: real time    0.9681
 BZINTS: Fermi energy:    0.252750;  411.000000 electrons
         Band energy:-0.149540E+04;  BLOECHL correction:   -0.102905
       DOS:  cpu time    0.0588: real time    0.0588
    --------------------------------------------
      LOOP:  cpu time   23.3650: real time   23.3652

 eigenvalue-minimisations  : 19666
 total energy-change (2. order) :-0.6057089E-04  (-0.6093956E-04)
 number of electron     411.0000148 magnetization 
 augmentation part      411.0000148 magnetization 

 Free energy of the ion-electron system (eV)
  ---------------------------------------------------
  alpha Z        PSCENC =       958.72474042
  Ewald energy   TEWEN  =    124687.01139143
  -Hartree energ DENC   =   -160062.84850732
  -exchange      EXHF   =         0.00000000
  -V(xc)+E(xc)   XCENC  =       617.44238260
  PAW double counting   =     37726.28482133   -37068.01576569
  entropy T*S    EENTRO =         0.00000000
  eigenvalues    EBANDS =     -1495.40212721
  atomic energy  EATOM  =     34502.41840517
  Solvation  Ediel_sol  =         0.00000000
  ---------------------------------------------------
  free energy    TOTEN  =      -134.38465927 eV

  energy without entropy =     -134.38465927  energy(sigma->0) =     -134.38465927


--------------------------------------------------------------------------------------------------------




--------------------------------------- Iteration      1(   9)  ---------------------------------------


    EDDIAG:  cpu time    5.1988: real time    5.1991
  RMM-DIIS:  cpu time   16.8071: real time   16.8072
    ORTHCH:  cpu time    0.9680: real time    0.9681
 BZINTS: Fermi energy:    0.252750;  411.000000 electrons
         Band energy:-0.149540E+04;  BLOECHL correction:   -0.102905
       DOS:  cpu time    0.0588: real time    0.0588
    --------------------------------------------
      LOOP:  cpu time   23.0328: real time   23.0332

 eigenvalue-minimisations  : 18331
 total energy-change (2. order) :-0.1584983E-04  (-0.1570488E-04)
 number of electron     411.0000148 magnetization 
 augmentation part      411.0000148 magnetization 

 Free energy of the ion-electron system (eV)
  ---------------------------------------------------
  alpha Z        PSCENC =       958.72474042
  Ewald energy   TEWEN  =    124687.01139143
  -Hartree energ DENC   =   -160062.84850732
  -exchange      EXHF   =         0.00000000
  -V(xc)+E(xc)   XCENC  =       617.44238260
  PAW double counting   =     37726.28482133   -37068.01576569
  entropy T*S    EENTRO =         0.00000000
  eigenvalues    EBANDS =     -1495.40214306
  atomic energy  EATOM  =     34502.41840517
  Solvation  Ediel_sol  =         0.00000000
  ---------------------------------------------------
  free energy    TOTEN  =      -134.38467512 eV

  energy without entropy =     -134.38467512  energy(sigma->0) =     -134.38467512


--------------------------------------------------------------------------------------------------------




--------------------------------------- Iteration      1(  10)  ---------------------------------------


    EDDIAG:  cpu time    5.2169: real time    5.2170
  RMM-DIIS:  cpu time   11.5262: real time   11.5262
    ORTHCH:  cpu time    0.9694: real time    0.9694
 BZINTS: Fermi energy:    0.252750;  411.000000 electrons
         Band energy:-0.149540E+04;  BLOECHL correction:   -0.102905
       DOS:  cpu time    0.0575: real time    0.0575
    --------------------------------------------
      LOOP:  cpu time   17.7700: real time   17.7701

 eigenvalue-minimisations  : 11553
 total energy-change (2. order) :-0.1452339E-05  (-0.1514290E-05)
 number of electron     411.0000148 magnetization 
 augmentation part      411.0000148 magnetization 

 Free energy of the ion-electron system (eV)
  ---------------------------------------------------
  alpha Z        PSCENC =       958.72474042
  Ewald energy   TEWEN  =    124687.01139143
  -Hartree energ DENC   =   -160062.84850732
  -exchange      EXHF   =         0.00000000
  -V(xc)+E(xc)   XCENC  =       617.44238260
  PAW double counting   =     37726.28482133   -37068.01576569
  entropy T*S    EENTRO =         0.00000000
  eigenvalues    EBANDS =     -1495.40214452
  atomic energy  EATOM  =     34502.41840517
  Solvation  Ediel_sol  =         0.00000000
  ---------------------------------------------------
  free energy    TOTEN  =      -134.38467657 eV

  energy without entropy =     -134.38467657  energy(sigma->0) =     -134.38467657


--------------------------------------------------------------------------------------------------------




 average (electrostatic) potential at core
  the test charge radii are     1.2098  0.9791  0.6991  0.7215
  (the norm of the test charge is              1.0000)
       1 -72.7541       2 -72.7382       3 -72.7381       4 -72.7382       5 -72.7467
       6 -72.7379       7 -72.7380       8 -72.7377       9 -72.7381      10 -73.1052
      11 -73.0886      12 -73.1050      13 -73.0887      14 -73.0883      15 -73.0985
      16 -73.1053      17 -73.0976      18 -73.0976      19 -73.0484      20 -73.1063
      21 -73.1061      22 -73.0740      23 -73.1066      24 -73.0738      25 -73.0481
      26 -73.0481      27 -73.0726      28 -72.6615      29 -72.6705      30 -72.6715
      31 -72.6624      32 -72.6620      33 -72.6713      34 -72.6702      35 -72.6506
      36 -90.1466      37 -58.2017      38 -77.2126      39 -77.2102
 
 
 
 E-fermi :   0.2528     XC(G=0):  -5.7879     alpha+bet : -5.3313

 Fermi energy:         0.2527503783

 k-point     1 :       0.0000    0.0000    0.0000
  band No.  band energies     occupation 
      1     -23.6718      2.00000
      2     -22.6564      2.00000
      3      -8.5395      2.00000
      4      -8.3044      2.00000
      5      -7.3506      2.00000
      6      -7.1666      2.00000
      7      -7.1496      2.00000
      8      -7.1135      2.00000
      9      -6.4056      2.00000
     10      -6.3836      2.00000
     11      -6.3795      2.00000
     12      -6.3791      2.00000
     13      -6.3730      2.00000
     14      -6.3566      2.00000
     15      -6.3564      2.00000
     16      -6.2109      2.00000
     17      -5.8974      2.00000
     18      -5.8868      2.00000
     19      -5.8866      2.00000
     20      -5.8708      2.00000
     21      -5.8678      2.00000
     22      -5.8675      2.00000
     23      -5.5067      2.00000
     24      -5.5065      2.00000
     25      -5.4972      2.00000
     26      -5.4803      2.00000
     27      -5.4686      2.00000
     28      -5.4685      2.00000
     29      -5.3320      2.00000
     30      -5.3314      2.00000
     31      -5.3249      2.00000
     32      -5.2979      2.00000
     33      -5.2974      2.00000
     34      -5.2968      2.00000
     35      -5.1717      2.00000
     36      -5.1716      2.00000
     37      -5.1491      2.00000
     38      -5.1490      2.00000
     39      -5.1436      2.00000
     40      -5.1246      2.00000
     41      -5.1239      2.00000
     42      -5.1229      2.00000
     43      -5.1228      2.00000
     44      -4.9861      2.00000
[...]
  0.000   0.000   0.000   0.000   0.000   0.000   0.000   0.000   0.000   0.000   1.000   0.000   0.000   0.000   0.000   0.000
  0.000   0.000   0.000   0.000   0.000   0.000   0.000   0.000   0.000   0.000   0.000   0.000   0.000   0.000   0.000   0.000
  0.000   0.000   0.000   0.000   0.000   0.000   0.000   0.000   0.000   0.000   0.000   0.000   0.000   0.000   0.000   0.000
  0.000   0.000   0.000   0.000   0.000   0.000   0.000   0.000   0.000   0.000   0.000   0.000   0.000   0.000   0.000   0.000
  0.000   0.000   0.000   0.000   0.000   0.000   0.000   0.000   0.000   0.000   0.000   0.000   0.000   0.000   0.000   0.000
  0.000   0.000   0.000   0.000   0.000   0.000   0.000   0.000   0.000   0.000   0.000   0.000   0.000   0.000   0.000   0.000
  0.000   0.000   0.000   0.000   0.000   0.000   0.000   0.000   0.000   0.000   0.000   0.000   0.000   0.000   0.000   0.000
  0.000   0.000   0.000   0.000   0.000   0.000   0.000   0.000   0.000   0.000   0.000   0.000   0.000   0.000   0.000   0.000


------------------------ aborting loop because EDIFF is reached ----------------------------------------





 total charge

# of ion       s       p       d       tot
------------------------------------------
    1        0.544   0.240   8.767   9.550
    2        0.544   0.240   8.765   9.550
    3        0.544   0.240   8.765   9.550
    4        0.544   0.240   8.765   9.550
    5        0.542   0.241   8.763   9.546
    6        0.544   0.240   8.765   9.550
    7        0.545   0.240   8.765   9.550
    8        0.544   0.240   8.765   9.550
    9        0.545   0.239   8.766   9.550
   10        0.520   0.308   8.770   9.598
   11        0.520   0.307   8.777   9.604
   12        0.520   0.308   8.770   9.598
   13        0.520   0.307   8.777   9.604
   14        0.520   0.307   8.777   9.604
   15        0.518   0.308   8.775   9.601
   16        0.520   0.308   8.770   9.598
   17        0.518   0.308   8.775   9.601
   18        0.518   0.308   8.775   9.601
   19        0.516   0.302   8.776   9.595
   20        0.534   0.322   8.761   9.617
   21        0.534   0.322   8.761   9.617
   22        0.513   0.309   8.773   9.596
   23        0.535   0.322   8.760   9.617
   24        0.513   0.309   8.773   9.595
   25        0.517   0.302   8.776   9.595
   26        0.517   0.302   8.776   9.595
   27        0.513   0.309   8.773   9.596
   28        0.539   0.225   8.767   9.531
   29        0.551   0.234   8.761   9.546
   30        0.551   0.234   8.761   9.546
   31        0.550   0.232   8.762   9.544
   32        0.549   0.232   8.762   9.544
   33        0.551   0.234   8.761   9.546
   34        0.551   0.234   8.761   9.546
   35        0.538   0.225   8.768   9.531
   36        0.336   0.230   8.376   8.942
   37        0.933   1.799   0.000   2.732
   38        1.607   3.529   0.000   5.136
   39        1.607   3.529   0.000   5.136
--------------------------------------------------
tot         23.128  18.665 315.264 357.056
 
    CHARGE:  cpu time    1.2532: real time    1.2533
    FORLOC:  cpu time    0.0124: real time    0.0124
    FORNL :  cpu time    5.3063: real time    5.3065
    STRESS:  cpu time   15.9535: real time   15.9537
    FORCOR:  cpu time    0.0505: real time    0.0506
    FORHAR:  cpu time    0.0197: real time    0.0197
    OFIELD:  cpu time    0.0003: real time    0.0003

  FORCE on cell =-STRESS in cart. coord.  units (eV):
  Direction    XX          YY          ZZ          XY          YZ          ZX
  --------------------------------------------------------------------------------------
  Alpha Z   958.72474   958.72474   958.72474
  Ewald  147947.01706147153.79037************    37.87515    -1.77356   -14.71145
  Hartree156595.64919156218.99438************    17.63808    -1.05567    -6.83125
  E(xc)   -1855.58756 -1857.68829 -1864.63488     0.10216    -0.00294    -0.03846
  Local  ************************315762.39925   -52.03226     2.74916    20.26120
  n-local  -125.01811  -119.13197   -96.07065    -0.29030     0.00216     0.12177
  augment  2554.42368  2557.09882  2572.18074    -0.13246     0.01125     0.05002
  Kinetic  5702.36541  5767.41484  5818.04748    -3.16497     0.06084     1.16425
  Fock        0.00000     0.00000     0.00000     0.00000     0.00000     0.00000
  -------------------------------------------------------------------------------------
  Total     -22.46718   -22.45520     1.44367    -0.00460    -0.00876     0.01607
  in kB     -21.95789   -21.94619     1.41094    -0.00450    -0.00856     0.01571
  external pressure =      -14.16 kB  Pullay stress =        0.00 kB


 VOLUME and BASIS-vectors are now :
 -----------------------------------------------------------------------------
  energy-cutoff  :      500.00
  volume of cell :     1639.34
      direct lattice vectors                 reciprocal lattice vectors
     8.813512802  0.000000000  0.000000000     0.113462137 -0.065507406  0.000000000
     4.406756909  7.632725690  0.000000000     0.000000000  0.131014796  0.000000000
     0.000000000  0.000000000 24.369114204     0.000000000  0.000000000  0.041035550

  length of vectors
     8.813512802  8.813512802 24.369114204     0.131014796  0.131014796  0.041035550


 FORCES acting on ions
    electron-ion (+dipol)            ewald-force                    non-local-force                 convergence-correction
 -----------------------------------------------------------------------------------------------
   0.117E-02 0.134E-01 0.268E+04   0.752E-03 -.143E-01 -.268E+04   -.136E-03 -.236E-02 -.632E+00   -.187E-02 0.231E-02 -.229E+00
   0.465E+00 0.523E+00 0.268E+04   -.523E+00 -.482E+00 -.268E+04   0.153E-01 -.906E-02 -.353E+00   0.397E-01 -.310E-01 -.247E+00
   -.467E+00 0.517E+00 0.268E+04   0.522E+00 -.487E+00 -.268E+04   -.151E-01 -.943E-02 -.352E+00   -.377E-01 -.197E-01 -.243E+00
   0.672E+00 0.154E+00 0.268E+04   -.666E+00 -.221E+00 -.268E+04   0.363E-02 0.173E-01 -.360E+00   -.880E-02 0.467E-01 -.245E+00
   -.102E-01 -.660E-03 0.268E+04   -.455E-02 -.455E-02 -.268E+04   0.373E-05 0.259E-03 -.356E+00   0.149E-01 0.489E-02 -.275E+00
   -.666E+00 0.151E+00 0.268E+04   0.671E+00 -.223E+00 -.268E+04   -.360E-02 0.174E-01 -.361E+00   -.137E-02 0.514E-01 -.238E+00
   0.205E+00 -.674E+00 0.268E+04   -.148E+00 0.705E+00 -.268E+04   -.149E-01 -.798E-02 -.351E+00   -.387E-01 -.204E-01 -.240E+00
   -.210E+00 -.670E+00 0.268E+04   0.144E+00 0.708E+00 -.268E+04   0.146E-01 -.830E-02 -.352E+00   0.483E-01 -.277E-01 -.237E+00
   0.991E-02 -.162E-01 0.268E+04   0.408E-02 0.189E-01 -.268E+04   0.280E-03 0.336E-02 -.411E+00   -.144E-01 -.571E-02 -.221E+00
   0.415E+01 0.251E+01 0.958E+03   -.395E+01 -.240E+01 -.958E+03   -.130E+00 -.737E-01 -.597E+00   -.444E-01 -.249E-01 -.550E-01
   0.229E-02 0.581E+01 0.967E+03   -.164E-01 -.579E+01 -.966E+03   0.289E-03 0.467E-02 -.441E+00   0.141E-01 -.370E-01 -.275E-01
   -.415E+01 0.253E+01 0.958E+03   0.396E+01 -.243E+01 -.958E+03   0.130E+00 -.736E-01 -.597E+00   0.345E-01 -.142E-01 -.521E-01
   0.492E+01 -.291E+01 0.967E+03   -.491E+01 0.289E+01 -.966E+03   0.381E-02 -.115E-02 -.442E+00   -.257E-01 0.284E-01 -.239E-01
   -.491E+01 -.290E+01 0.967E+03   0.488E+01 0.289E+01 -.966E+03   -.397E-02 -.114E-02 -.443E+00   0.503E-01 0.247E-01 -.223E-01
   -.195E-01 0.174E+01 0.960E+03   0.347E-01 -.183E+01 -.959E+03   -.525E-04 0.265E-01 -.500E+00   -.153E-01 0.426E-01 -.245E-01
   0.141E-01 -.485E+01 0.958E+03   -.175E-01 0.463E+01 -.957E+03   0.244E-03 0.147E+00 -.592E+00   0.327E-02 0.399E-01 -.501E-01
   0.155E+01 -.975E+00 0.959E+03   -.163E+01 0.103E+01 -.959E+03   0.231E-01 -.144E-01 -.485E+00   0.326E-01 -.326E-01 -.252E-01
   -.157E+01 -.960E+00 0.959E+03   0.165E+01 0.100E+01 -.959E+03   -.233E-01 -.141E-01 -.483E+00   -.351E-01 -.184E-01 -.241E-01
   -.162E+00 0.300E+01 -.800E+03   0.180E+00 -.316E+01 0.799E+03   -.784E-03 0.499E-01 0.512E+00   -.171E-01 0.962E-01 0.314E+00
   0.360E+02 0.214E+02 -.750E+03   -.355E+02 -.211E+02 0.750E+03   -.597E+00 -.340E+00 -.484E+00   0.880E-01 0.535E-01 0.465E+00
   -.358E+02 0.216E+02 -.750E+03   0.353E+02 -.213E+02 0.750E+03   0.598E+00 -.339E+00 -.483E+00   -.743E-01 0.617E-01 0.463E+00
   0.116E+02 -.755E+01 -.787E+03   -.119E+02 0.774E+01 0.786E+03   0.248E+00 -.154E+00 0.505E+00   0.569E-01 -.408E-01 0.313E+00
   0.225E+00 -.423E+02 -.750E+03   -.238E+00 0.418E+02 0.750E+03   0.619E-03 0.684E+00 -.479E+00   0.129E-01 -.956E-01 0.464E+00
   -.119E+02 -.764E+01 -.787E+03   0.122E+02 0.784E+01 0.786E+03   -.249E+00 -.154E+00 0.505E+00   -.780E-01 -.474E-01 0.313E+00
   -.198E+01 -.909E+00 -.801E+03   0.210E+01 0.983E+00 0.801E+03   -.350E-01 -.187E-01 0.489E+00   -.812E-01 -.475E-01 0.310E+00
   0.203E+01 -.112E+01 -.801E+03   -.215E+01 0.121E+01 0.800E+03   0.362E-01 -.195E-01 0.491E+00   0.738E-01 -.620E-01 0.313E+00
   -.381E-01 0.136E+02 -.788E+03   0.449E-01 -.139E+02 0.787E+03   -.879E-03 0.292E+00 0.503E+00   -.614E-02 0.683E-01 0.311E+00
   -.156E+00 0.433E+01 -.254E+04   0.157E+00 -.434E+01 0.254E+04   -.101E-03 -.340E-02 0.630E+00   -.107E-02 0.274E-02 0.494E+00
   0.274E+02 0.518E+02 -.251E+04   -.270E+02 -.510E+02 0.251E+04   -.499E+00 -.774E+00 0.392E+00   0.775E-01 0.667E-01 0.390E+00
   -.272E+02 0.531E+02 -.251E+04   0.268E+02 -.524E+02 0.251E+04   0.500E+00 -.778E+00 0.376E+00   -.755E-01 0.784E-01 0.388E+00
   0.572E+02 0.179E+01 -.250E+04   -.564E+02 -.178E+01 0.250E+04   -.890E+00 -.382E-01 0.518E+00   0.936E-01 0.357E-01 0.391E+00
   -.591E+02 0.276E+01 -.250E+04   0.583E+02 -.276E+01 0.250E+04   0.887E+00 -.355E-01 0.532E+00   -.103E+00 0.405E-01 0.383E+00
   0.266E+02 -.542E+02 -.251E+04   -.262E+02 0.535E+02 0.251E+04   -.436E+00 0.815E+00 0.377E+00   0.277E-01 -.107E+00 0.386E+00
   -.255E+02 -.558E+02 -.251E+04   0.250E+02 0.551E+02 0.251E+04   0.436E+00 0.811E+00 0.391E+00   -.171E-01 -.114E+00 0.382E+00
   -.113E+01 -.554E+01 -.254E+04   0.114E+01 0.555E+01 0.254E+04   0.539E-03 0.375E-02 0.593E+00   -.151E-01 -.120E-01 0.402E+00
   0.135E+01 0.134E+01 -.213E+04   -.136E+01 -.135E+01 0.213E+04   -.631E-02 -.301E-02 0.203E+01   0.209E-01 0.140E-01 0.518E+00
   -.343E-01 0.109E+00 -.880E+03   0.660E-01 -.108E+00 0.880E+03   -.244E-01 0.241E-02 -.290E-01   -.155E-02 0.912E-03 -.455E-01
   0.262E+03 0.129E+02 -.132E+04   -.326E+03 -.160E+02 0.132E+04   0.637E+02 0.309E+01 -.107E+01   0.130E-01 0.444E-02 -.491E-01
   -.262E+03 -.126E+02 -.132E+04   0.325E+03 0.157E+02 0.132E+04   -.636E+02 -.309E+01 0.118E+01   -.160E-01 0.193E-02 -.561E-01
 -----------------------------------------------------------------------------------------------
   -.283E-01 -.194E-02 -.392E+01   0.000E+00 0.156E-12 -.637E-11   0.383E-01 -.421E-02 -.630E+00   -.730E-02 0.840E-02 0.437E+01
 
 
 POSITION                                       TOTAL-FORCE (eV/Angst)
 -----------------------------------------------------------------------------------
      0.00000      0.00000      5.28038        -0.000159     -0.000984     -0.057997
      2.93784      0.00000      5.28038        -0.002733      0.001067     -0.051096
      5.87568      0.00000      5.28038         0.002682      0.001065     -0.051185
      1.46892      2.54424      5.28038        -0.000089     -0.003123     -0.052623
      4.40676      2.54424      5.28038         0.000080     -0.000117     -0.071700
      7.34459      2.54424      5.28038         0.000002     -0.003221     -0.052624
      2.93784      5.08848      5.28038         0.002882      0.002287     -0.052244
      5.87568      5.08848      5.28038        -0.003063      0.002288     -0.052397
      8.81351      5.08848      5.28038        -0.000228      0.000214     -0.060441
      1.46892      0.84808      7.67911         0.027436      0.016590      0.061180
      4.40676      0.84808      7.67911         0.000219     -0.013122      0.012243
      7.34459      0.84808      7.67911        -0.027728      0.016718      0.061124
      2.93784      3.39232      7.67911        -0.012038      0.007149      0.011234
      5.87568      3.39232      7.67911         0.012472      0.007192      0.011061
      8.81351      3.39232      7.67911        -0.000261     -0.024530      0.047747
      4.40676      5.93656      7.67911         0.000018     -0.033290      0.061826
      7.34459      5.93656      7.67911        -0.021462      0.011059      0.048905
     10.28243      5.93656      7.67911         0.021244      0.011292      0.049040
      8.81351      1.69394     10.07055        -0.000301     -0.014298      0.012355
      2.94670      1.70128     10.05847        -0.018626     -0.011143      0.022532
      5.86681      1.70128     10.05847         0.018402     -0.010842      0.022750
     10.27376      4.24541     10.05945         0.010639     -0.005815      0.014820
      4.40676      4.23017     10.05847         0.000017      0.019448      0.022350
      7.35327      4.24541     10.05945        -0.011294     -0.006056      0.015592
     11.75328      6.78576     10.07055         0.010450      0.007354      0.005655
      5.87375      6.78576     10.07055        -0.010914      0.007542      0.006288
      8.81351      6.77463     10.05945        -0.000293      0.011550      0.010137
      0.00000      0.00000     12.48855        -0.000131     -0.001553     -0.022936
      2.97006      0.05170     12.45862         0.009559     -0.003257      0.013552
      5.84345      0.05170     12.45862        -0.009655     -0.003228      0.013432
      1.52981      2.54630     12.45862        -0.000199      0.007761      0.009496
      7.28371      2.54630     12.45862         0.000897      0.007009      0.007742
      2.96650      5.03473     12.45862        -0.001818     -0.005102      0.014270
      5.84701      5.03473     12.45862         0.001486     -0.004083      0.012677
      8.81351      5.08848     12.49203         0.000035      0.001629     -0.003028
      4.40676      2.54424     12.16149        -0.000487      0.002894     -0.051746
      4.45645      2.59574     15.96905         0.005678      0.003784      0.000283
      3.28131      2.53869     15.98949         0.002455     -0.000550      0.008434
      5.63197      2.65283     15.94771        -0.005175     -0.001577      0.003293
 -----------------------------------------------------------------------------------
    total drift:                                0.002692      0.002251     -0.179758


--------------------------------------------------------------------------------------------------------



  FREE ENERGIE OF THE ION-ELECTRON SYSTEM (eV)
  ---------------------------------------------------
  free  energy   TOTEN  =      -134.38467657 eV

  energy  without entropy=     -134.38467657  energy(sigma->0) =     -134.38467657
 


--------------------------------------------------------------------------------------------------------


    POTLOK:  cpu time    0.0477: real time    0.0477


--------------------------------------------------------------------------------------------------------


 stress matrix after NEB project (eV)
    -22.46718     -0.00460      0.01607
     -0.00460    -22.45520     -0.00876
      0.01607     -0.00876      1.44367
  FORCES: max atom, RMS     0.008801    0.002052
  FORCE total and by dimension    0.012814    0.008434
  Stress total and by dimension   31.797721   22.467176
     LOOP+:  cpu time  281.0629: real time  281.0797
 -----------------------------------------------------------------------------
|                                                                             |
|           W    W    AA    RRRRR   N    N  II  N    N   GGGG   !!!           |
|           W    W   A  A   R    R  NN   N  II  NN   N  G    G  !!!           |
|           W    W  A    A  R    R  N N  N  II  N N  N  G       !!!           |
|           W WW W  AAAAAA  RRRRR   N  N N  II  N  N N  G  GGG   !            |
|           WW  WW  A    A  R   R   N   NN  II  N   NN  G    G                |
|           W    W  A    A  R    R  N    N  II  N    N   GGGG   !!!           |
|                                                                             |
|     Tetrahedron method does not include variations of the Fermi             |
|     occupations, so forces and stress will be inaccurate. We suggest        |
|     using a different smearing scheme ISMEAR = 1 or 2 for metals in         |
|     relaxations.                                                            |
|                                                                             |
 -----------------------------------------------------------------------------

    4ORBIT:  cpu time    0.0000: real time    0.0000



 total charge

# of ion       s       p       d       tot
------------------------------------------
    1        0.544   0.240   8.767   9.550
    2        0.544   0.240   8.765   9.550
    3        0.544   0.240   8.765   9.550
    4        0.544   0.240   8.765   9.550
    5        0.542   0.241   8.763   9.546
    6        0.544   0.240   8.765   9.550
    7        0.545   0.240   8.765   9.550
    8        0.544   0.240   8.765   9.550
    9        0.545   0.239   8.766   9.550
   10        0.520   0.308   8.770   9.598
   11        0.520   0.307   8.777   9.604
   12        0.520   0.308   8.770   9.598
   13        0.520   0.307   8.777   9.604
   14        0.520   0.307   8.777   9.604
   15        0.518   0.308   8.775   9.601
   16        0.520   0.308   8.770   9.598
   17        0.518   0.308   8.775   9.601
   18        0.518   0.308   8.775   9.601
   19        0.516   0.302   8.776   9.595
   20        0.534   0.322   8.761   9.617
   21        0.534   0.322   8.761   9.617
   22        0.513   0.309   8.773   9.596
   23        0.535   0.322   8.760   9.617
   24        0.513   0.309   8.773   9.595
   25        0.517   0.302   8.776   9.595
   26        0.517   0.302   8.776   9.595
   27        0.513   0.309   8.773   9.596
   28        0.539   0.225   8.767   9.531
   29        0.551   0.234   8.761   9.546
   30        0.551   0.234   8.761   9.546
   31        0.550   0.232   8.762   9.544
   32        0.549   0.232   8.762   9.544
   33        0.551   0.234   8.761   9.546
   34        0.551   0.234   8.761   9.546
   35        0.538   0.225   8.768   9.531
   36        0.336   0.230   8.376   8.942
   37        0.933   1.799   0.000   2.732
   38        1.607   3.529   0.000   5.136
   39        1.607   3.529   0.000   5.136
--------------------------------------------------
tot         23.128  18.665 315.264 357.056
 
 BZINTS: Fermi energy:    0.252750;  411.000000 electrons
         Band energy:-0.149540E+04;  BLOECHL correction:   -0.102905

 total amount of memory used by VASP MPI-rank0   277294. kBytes
=======================================================================

   base      :      30000. kBytes
   nonlr-proj:      13880. kBytes
   fftplans  :       4808. kBytes
   grid      :      20723. kBytes
   one-center:        606. kBytes
   wavefun   :     207277. kBytes
 
  
  
 General timing and accounting informations for this job:
 ========================================================
  
                  Total CPU time used (sec):      304.114
                            User time (sec):      293.791
                          System time (sec):       10.323
                         Elapsed time (sec):      304.459
  
                   Maximum memory used (kb):      581464.
                   Average memory used (kb):          N/A
  
                          Minor page faults:       128266
                          Major page faults:            0
                 Voluntary context switches:         6718
