PROCAR new format
# of k-points:   10         # of bands:  252         # of ions:   38

 k-point     1 :    0.00000000 0.00000000 0.00000000     weight = 0.01562500

band     1 # energy  -22.98017298 # occ.  2.00000000
 
ion      s      p      d    tot
    1  0.000  0.000  0.000  0.000
    2  0.000  0.000  0.000  0.000
    3  0.000  0.000  0.000  0.000
    4  0.000  0.000  0.000  0.000
    5  0.000  0.000  0.000  0.000
    6  0.000  0.000  0.000  0.000
    7  0.000  0.000  0.000  0.000
    8  0.000  0.000  0.000  0.000
    9  0.000  0.000  0.000  0.000
   10  0.000  0.000  0.000  0.000
   11  0.000  0.000  0.000  0.000
   12  0.000  0.000  0.000  0.000
   13  0.000  0.000  0.000  0.000
   14  0.000  0.000  0.000  0.000
   15  0.000  0.000  0.000  0.000
   16  0.000  0.000  0.000  0.000
   17  0.000  0.000  0.000  0.000
   18  0.000  0.000  0.000  0.000
   19  0.000  0.000  0.000  0.000
   20  0.000  0.000  0.000  0.000
   21  0.000  0.000  0.000  0.000
   22  0.000  0.000  0.000  0.000
   23  0.000  0.000  0.000  0.000
   24  0.000  0.000  0.000  0.000
   25  0.000  0.000  0.000  0.000
   26  0.000  0.000  0.000  0.000
   27  0.000  0.000  0.000  0.000
   28  0.000  0.000  0.000  0.000
   29  0.000  0.000  0.000  0.000
   30  0.000  0.000  0.000  0.000
   31  0.000  0.000  0.000  0.000
   32  0.000  0.000  0.000  0.000
   33  0.000  0.000  0.000  0.000
   34  0.000  0.000  0.000  0.000
   35  0.000  0.000  0.000  0.000
   36  0.000  0.000  0.000  0.000
   37  0.155  0.114  0.000  0.270
   38  0.640  0.093  0.000  0.733
tot    0.795  0.208  0.000  1.003
 
band     2 # energy   -8.81423776 # occ.  2.00000000
 
ion      s      p      d    tot
    1  0.005  0.001  0.000  0.005
    2  0.005  0.001  0.000  0.005
    3  0.005  0.001  0.000  0.005
    4  0.005  0.001  0.000  0.005
    5  0.005  0.001  0.000  0.005
    6  0.005  0.001  0.000  0.005
    7  0.005  0.001  0.000  0.005
    8  0.005  0.001  0.000  0.005
    9  0.005  0.001  0.000  0.005
   10  0.019  0.000  0.000  0.019
   11  0.019  0.000  0.000  0.019
   12  0.019  0.000  0.000  0.019
   13  0.019  0.000  0.000  0.019
   14  0.019  0.000  0.000  0.019
   15  0.018  0.000  0.000  0.018
   16  0.019  0.000  0.000  0.019
   17  0.018  0.000  0.000  0.018
   18  0.018  0.000  0.000  0.018
   19  0.020  0.000  0.000  0.021
   20  0.022  0.000  0.000  0.022
   21  0.022  0.000  0.000  0.022
   22  0.020  0.000  0.000  0.020
   23  0.022  0.000  0.000  0.022
   24  0.020  0.000  0.000  0.020
   25  0.020  0.000  0.000  0.021
   26  0.020  0.000  0.000  0.021
   27  0.020  0.000  0.000  0.020
   28  0.006  0.001  0.000  0.007
   29  0.007  0.001  0.000  0.008
   30  0.007  0.001  0.000  0.008
   31  0.007  0.001  0.000  0.008
   32  0.007  0.001  0.000  0.008
   33  0.007  0.001  0.000  0.008
   34  0.007  0.001  0.000  0.008
   35  0.006  0.001  0.000  0.007
   36  0.027  0.001  0.006  0.034
   37  0.051  0.001  0.000  0.052
   38  0.026  0.039  0.000  0.066
tot    0.558  0.053  0.007  0.617
 
band     3 # energy   -8.54276470 # occ.  2.00000000
 
ion      s      p      d    tot
    1  0.002  0.000  0.000  0.003
    2  0.002  0.000  0.000  0.003
    3  0.002  0.000  0.000  0.003
    4  0.002  0.000  0.000  0.003
    5  0.002  0.000  0.000  0.003
    6  0.002  0.000  0.000  0.003
    7  0.002  0.000  0.000  0.003
    8  0.002  0.000  0.000  0.003
    9  0.002  0.000  0.000  0.003
   10  0.007  0.000  0.000  0.007
   11  0.007  0.000  0.000  0.007
   12  0.007  0.000  0.000  0.007
   13  0.007  0.000  0.000  0.007
   14  0.007  0.000  0.000  0.007
   15  0.007  0.000  0.000  0.007
   16  0.007  0.000  0.000  0.007
   17  0.007  0.000  0.000  0.007
   18  0.007  0.000  0.000  0.007
   19  0.004  0.000  0.000  0.004
   20  0.003  0.000  0.000  0.003
   21  0.003  0.000  0.000  0.003
   22  0.004  0.000  0.000  0.004
   23  0.003  0.000  0.000  0.003
   24  0.004  0.000  0.000  0.004
   25  0.004  0.000  0.000  0.004
   26  0.004  0.000  0.000  0.004
   27  0.004  0.000  0.000  0.004
   28  0.000  0.000  0.000  0.001
   29  0.000  0.000  0.000  0.001
   30  0.000  0.000  0.000  0.001
   31  0.000  0.000  0.000  0.001
   32  0.000  0.000  0.000  0.001
   33  0.000  0.000  0.000  0.001
   34  0.000  0.000  0.000  0.001
   35  0.000  0.000  0.000  0.001
   36  0.017  0.020  0.021  0.058
   37  0.211  0.000  0.000  0.211
   38  0.123  0.223  0.000  0.346
tot    0.467  0.251  0.023  0.741
 
band     4 # energy   -7.44300295 # occ.  2.00000000
 
ion      s      p      d    tot
    1  0.018  0.001  0.001  0.019
    2  0.017  0.001  0.001  0.019
    3  0.017  0.001  0.001  0.019
    4  0.017  0.001  0.001  0.019
    5  0.018  0.001  0.001  0.019
    6  0.017  0.001  0.001  0.019
    7  0.017  0.001  0.001  0.019
    8  0.017  0.001  0.001  0.019
    9  0.017  0.001  0.001  0.019
   10  0.009  0.002  0.001  0.012
   11  0.009  0.002  0.000  0.012
   12  0.009  0.002  0.001  0.012
   13  0.009  0.002  0.000  0.012
   14  0.009  0.002  0.000  0.012
   15  0.009  0.002  0.001  0.012
   16  0.009  0.002  0.001  0.012
   17  0.009  0.002  0.001  0.012
   18  0.009  0.002  0.001  0.012
   19  0.011  0.002  0.001  0.014
   20  0.009  0.002  0.001  0.012
   21  0.009  0.002  0.001  0.012
   22  0.011  0.002  0.001  0.014
   23  0.009  0.002  0.001  0.012
   24  0.011  0.002  0.001  0.014
   25  0.011  0.002  0.001  0.014
   26  0.011  0.002  0.001  0.014
   27  0.011  0.002  0.001  0.014
   28  0.019  0.001  0.000  0.020
   29  0.017  0.001  0.000  0.018
   30  0.017  0.001  0.000  0.018
   31  0.017  0.001  0.000  0.018
   32  0.017  0.001  0.000  0.018
   33  0.017  0.001  0.000  0.018
   34  0.017  0.001  0.000  0.018
   35  0.018  0.001  0.000  0.020
   36  0.017  0.001  0.001  0.019
   37  0.003  0.004  0.000  0.007
   38  0.005  0.022  0.000  0.027
tot    0.499  0.079  0.019  0.597
 
band     5 # energy   -5.94553804 # occ.  2.00000000
 
ion      s      p      d    tot
    1  0.009  0.000  0.003  0.012
    2  0.010  0.000  0.003  0.014
    3  0.010  0.000  0.003  0.014
    4  0.010  0.000  0.003  0.014
    5  0.016  0.000  0.003  0.019
    6  0.010  0.000  0.003  0.014
    7  0.010  0.000  0.003  0.014
    8  0.010  0.000  0.003  0.014
    9  0.007  0.000  0.004  0.011
   10  0.002  0.003  0.001  0.006
   11  0.000  0.002  0.001  0.004
   12  0.003  0.003  0.001  0.006
   13  0.000  0.002  0.001  0.004
   14  0.000  0.002  0.001  0.004
   15  0.004  0.003  0.001  0.008
   16  0.003  0.003  0.001  0.006
   17  0.004  0.003  0.001  0.008
   18  0.004  0.003  0.001  0.008
   19  0.009  0.002  0.002  0.013
   20  0.000  0.003  0.003  0.006
   21  0.000  0.003  0.003  0.006
   22  0.006  0.002  0.002  0.010
   23  0.000  0.003  0.003  0.006
   24  0.007  0.002  0.002  0.010
   25  0.009  0.002  0.002  0.013
   26  0.009  0.002  0.002  0.013
   27  0.006  0.002  0.002  0.010
   28  0.004  0.000  0.004  0.008
   29  0.009  0.001  0.004  0.014
   30  0.009  0.001  0.004  0.014
   31  0.009  0.001  0.004  0.014
   32  0.009  0.001  0.004  0.014
   33  0.009  0.001  0.004  0.014
   34  0.009  0.001  0.004  0.014
   35  0.004  0.000  0.004  0.008
   36  0.074  0.013  0.015  0.102
   37  0.010  0.097  0.000  0.107
   38  0.008  0.126  0.000  0.134
tot    0.315  0.283  0.110  0.707
 
band     6 # energy   -5.85115829 # occ.  2.00000000
 
ion      s      p      d    tot
    1  0.000  0.000  0.000  0.000
    2  0.000  0.000  0.000  0.000
    3  0.000  0.000  0.000  0.000
    4  0.000  0.000  0.000  0.000
    5  0.000  0.000  0.000  0.001
    6  0.001  0.000  0.000  0.001
    7  0.000  0.000  0.000  0.000
    8  0.001  0.000  0.000  0.001
    9  0.000  0.000  0.000  0.000
   10  0.002  0.000  0.000  0.002
   11  0.001  0.000  0.001  0.002
   12  0.000  0.000  0.001  0.001
   13  0.001  0.000  0.001  0.002
   14  0.004  0.000  0.000  0.004
   15  0.000  0.001  0.000  0.001
   16  0.000  0.000  0.001  0.001
   17  0.000  0.001  0.000  0.001
   18  0.001  0.000  0.000  0.001
   19  0.000  0.001  0.000  0.001
   20  0.004  0.000  0.001  0.005
   21  0.001  0.001  0.000  0.002
   22  0.001  0.000  0.001  0.002
   23  0.001  0.001  0.000  0.002
   24  0.004  0.000  0.000  0.005
   25  0.000  0.000  0.000  0.000
   26  0.000  0.001  0.000  0.001
   27  0.001  0.000  0.001  0.002
   28  0.000  0.000  0.001  0.001
   29  0.003  0.001  0.000  0.004
   30  0.000  0.000  0.001  0.001
   31  0.003  0.001  0.000  0.004
   32  0.003  0.000  0.000  0.004
   33  0.000  0.000  0.001  0.001
   34  0.003  0.000  0.000  0.004
   35  0.000  0.000  0.001  0.001
   36  0.000  0.007  0.006  0.013
   37  0.000  0.158  0.000  0.158
   38  0.000  0.434  0.000  0.434
tot    0.036  0.609  0.021  0.666
 
band     7 # energy   -5.85108541 # occ.  2.00000000
 
ion      s      p      d    tot
    1  0.000  0.000  0.000  0.000
    2  0.000  0.000  0.000  0.001
    3  0.001  0.000  0.000  0.001
    4  0.000  0.000  0.000  0.001
    5  0.000  0.000  0.000  0.001
    6  0.000  0.000  0.000  0.000
    7  0.001  0.000  0.000  0.001
    8  0.000  0.000  0.000  0.000
    9  0.000  0.000  0.000  0.000
   10  0.000  0.000  0.001  0.001
   11  0.003  0.000  0.000  0.004
   12  0.001  0.000  0.000  0.002
   13  0.003  0.000  0.000  0.004
   14  0.000  0.000  0.001  0.001
   15  0.000  0.000  0.000  0.001
   16  0.001  0.000  0.000  0.002
   17  0.000  0.000  0.000  0.001
   18  0.000  0.001  0.000  0.001
   19  0.000  0.000  0.000  0.001
   20  0.000  0.001  0.000  0.001
   21  0.003  0.000  0.001  0.004
   22  0.003  0.000  0.001  0.004
   23  0.003  0.000  0.001  0.004
   24  0.000  0.000  0.001  0.001
   25  0.000  0.001  0.000  0.001
   26  0.000  0.000  0.000  0.001
   27  0.003  0.000  0.001  0.004
   28  0.000  0.000  0.001  0.001
   29  0.001  0.000  0.001  0.002
   30  0.004  0.001  0.000  0.005
   31  0.001  0.000  0.001  0.002
   32  0.001  0.000  0.000  0.002
   33  0.004  0.001  0.000  0.005
   34  0.001  0.000  0.000  0.002
   35  0.000  0.000  0.001  0.001
   36  0.000  0.007  0.006  0.013
   37  0.000  0.158  0.000  0.158
   38  0.000  0.434  0.000  0.434
tot    0.036  0.609  0.021  0.666
 
band     8 # energy   -5.80546483 # occ.  2.00000000
 
ion      s      p      d    tot
    1  0.009  0.000  0.002  0.011
    2  0.004  0.001  0.004  0.009
    3  0.004  0.001  0.004  0.009
    4  0.004  0.001  0.004  0.009
    5  0.002  0.002  0.004  0.008
    6  0.004  0.001  0.004  0.009
    7  0.004  0.001  0.004  0.009
    8  0.004  0.001  0.004  0.009
    9  0.019  0.001  0.000  0.021
   10  0.000  0.003  0.006  0.009
   11  0.028  0.008  0.001  0.036
   12  0.000  0.003  0.006  0.009
   13  0.028  0.008  0.001  0.036
   14  0.028  0.008  0.001  0.036
   15  0.006  0.001  0.009  0.016
   16  0.000  0.003  0.006  0.009
   17  0.006  0.001  0.009  0.016
   18  0.006  0.001  0.009  0.016
   19  0.003  0.001  0.010  0.014
   20  0.033  0.007  0.002  0.043
   21  0.033  0.007  0.002  0.043
   22  0.002  0.005  0.004  0.012
   23  0.033  0.007  0.002  0.043
   24  0.002  0.005  0.004  0.011
   25  0.003  0.001  0.010  0.014
   26  0.003  0.001  0.010  0.014
   27  0.002  0.005  0.004  0.012
   28  0.016  0.001  0.001  0.017
   29  0.004  0.002  0.005  0.010
   30  0.004  0.002  0.005  0.010
   31  0.004  0.002  0.005  0.010
   32  0.004  0.002  0.005  0.010
   33  0.004  0.002  0.005  0.010
   34  0.004  0.002  0.005  0.010
   35  0.020  0.001  0.001  0.021
   36  0.015  0.000  0.023  0.038
   37  0.003  0.017  0.000  0.020
   38  0.001  0.017  0.000  0.018
tot    0.350  0.129  0.179  0.658
 
band     9 # energy   -5.78224973 # occ.  2.00000000
 
ion      s      p      d    tot
    1  0.000  0.003  0.005  0.008
    2  0.009  0.002  0.002  0.014
    3  0.004  0.001  0.002  0.007
    4  0.009  0.002  0.002  0.014
    5  0.000  0.002  0.003  0.004
    6  0.002  0.001  0.002  0.005
    7  0.003  0.001  0.002  0.006
    8  0.001  0.001  0.002  0.004
    9  0.000  0.000  0.003  0.003
   10  0.060  0.004  0.004  0.068
   11  0.003  0.010  0.003  0.016
   12  0.016  0.004  0.011  0.030
   13  0.004  0.010  0.003  0.016
   14  0.015  0.000  0.006  0.021
   15  0.004  0.003  0.009  0.016
   16  0.014  0.004  0.011  0.029
   17  0.004  0.003  0.009  0.016
   18  0.015  0.004  0.002  0.021
   19  0.010  0.009  0.005  0.024
   20  0.053  0.005  0.003  0.061
   21  0.014  0.001  0.015  0.030
   22  0.000  0.006  0.005  0.012
   23  0.013  0.001  0.015  0.029
   24  0.001  0.002  0.004  0.007
   25  0.040  0.001  0.007  0.047
   26  0.011  0.009  0.005  0.025
   27  0.000  0.007  0.005  0.012
   28  0.000  0.003  0.004  0.007
   29  0.008  0.002  0.003  0.014
   30  0.006  0.002  0.003  0.010
   31  0.008  0.002  0.003  0.013
   32  0.000  0.001  0.003  0.004
   33  0.006  0.002  0.003  0.010
   34  0.000  0.001  0.003  0.004
   35  0.000  0.000  0.002  0.002
   36  0.000  0.002  0.009  0.011
   37  0.000  0.006  0.000  0.006
   38  0.000  0.016  0.000  0.016
tot    0.332  0.133  0.180  0.645
 
band    10 # energy   -5.78221055 # occ.  2.00000000
 
ion      s      p      d    tot
    1  0.000  0.003  0.005  0.008
    2  0.000  0.001  0.002  0.003
    3  0.006  0.002  0.002  0.010
    4  0.000  0.001  0.002  0.003
    5  0.000  0.002  0.003  0.004
    6  0.008  0.002  0.002  0.012
    7  0.006  0.002  0.002  0.010
    8  0.008  0.002  0.002  0.012
    9  0.000  0.000  0.003  0.003
   10  0.000  0.004  0.013  0.017
   11  0.011  0.003  0.005  0.020
   12  0.044  0.004  0.007  0.055
   13  0.011  0.004  0.005  0.019
   14  0.000  0.013  0.002  0.015
   15  0.011  0.003  0.005  0.019
   16  0.046  0.004  0.006  0.056
   17  0.011  0.003  0.005  0.019
   18  0.000  0.003  0.012  0.014
   19  0.030  0.003  0.006  0.040
   20  0.000  0.000  0.019  0.019
   21  0.039  0.003  0.007  0.050
   22  0.000  0.003  0.005  0.008
   23  0.041  0.004  0.007  0.051
   24  0.000  0.008  0.006  0.014
   25  0.000  0.011  0.005  0.016
   26  0.029  0.004  0.006  0.039
   27  0.001  0.003  0.005  0.008
   28  0.000  0.003  0.004  0.007
   29  0.001  0.001  0.003  0.005
   30  0.004  0.002  0.003  0.008
   31  0.001  0.001  0.003  0.005
   32  0.009  0.002  0.003  0.014
   33  0.004  0.002  0.003  0.008
   34  0.009  0.003  0.003  0.014
   35  0.000  0.000  0.002  0.002
   36  0.000  0.002  0.009  0.011
   37  0.000  0.006  0.000  0.006
   38  0.000  0.016  0.000  0.016
tot    0.332  0.133  0.180  0.645
 
band    11 # energy   -5.76384734 # occ.  2.00000000
 
ion      s      p      d    tot
    1  0.019  0.003  0.001  0.023
    2  0.000  0.002  0.004  0.006
    3  0.000  0.002  0.004  0.006
    4  0.000  0.002  0.004  0.006
    5  0.001  0.000  0.000  0.002
    6  0.000  0.002  0.004  0.006
    7  0.000  0.002  0.004  0.006
    8  0.000  0.002  0.004  0.006
    9  0.010  0.002  0.000  0.012
   10  0.030  0.005  0.006  0.042
   11  0.004  0.000  0.011  0.016
   12  0.030  0.005  0.006  0.042
   13  0.004  0.000  0.011  0.016
   14  0.004  0.000  0.011  0.016
   15  0.012  0.008  0.003  0.024
   16  0.030  0.005  0.006  0.042
   17  0.012  0.008  0.003  0.024
   18  0.013  0.008  0.003  0.024
   19  0.022  0.009  0.002  0.033
   20  0.000  0.002  0.012  0.014
   21  0.000  0.002  0.011  0.014
   22  0.026  0.002  0.009  0.037
   23  0.000  0.002  0.011  0.014
   24  0.025  0.002  0.009  0.036
   25  0.021  0.009  0.002  0.033
   26  0.022  0.009  0.002  0.033
   27  0.026  0.002  0.009  0.037
   28  0.017  0.003  0.001  0.020
   29  0.000  0.002  0.004  0.006
   30  0.000  0.002  0.004  0.006
   31  0.000  0.002  0.004  0.006
   32  0.000  0.002  0.004  0.006
   33  0.000  0.002  0.004  0.006
   34  0.000  0.002  0.004  0.006
   35  0.015  0.002  0.001  0.018
   36  0.000  0.000  0.000  0.000
   37  0.000  0.000  0.000  0.000
   38  0.000  0.000  0.000  0.000
tot    0.344  0.114  0.182  0.640
 
band    12 # energy   -5.75362406 # occ.  2.00000000
 
ion      s      p      d    tot
    1  0.000  0.000  0.002  0.002
    2  0.010  0.002  0.002  0.014
    3  0.004  0.001  0.002  0.007
    4  0.010  0.002  0.002  0.014
    5  0.000  0.002  0.005  0.006
    6  0.002  0.001  0.002  0.005
    7  0.003  0.001  0.002  0.006
    8  0.001  0.001  0.002  0.005
    9  0.000  0.003  0.005  0.008
   10  0.000  0.010  0.004  0.014
   11  0.034  0.004  0.005  0.043
   12  0.000  0.004  0.005  0.008
   13  0.032  0.003  0.006  0.041
   14  0.000  0.000  0.016  0.016
   15  0.035  0.003  0.006  0.044
   16  0.000  0.003  0.005  0.008
   17  0.033  0.004  0.006  0.042
   18  0.000  0.010  0.006  0.016
   19  0.019  0.003  0.005  0.027
   20  0.000  0.013  0.002  0.015
   21  0.006  0.004  0.005  0.015
   22  0.042  0.004  0.006  0.052
   23  0.006  0.003  0.005  0.015
   24  0.000  0.006  0.011  0.017
   25  0.000  0.001  0.014  0.015
   26  0.017  0.003  0.005  0.026
   27  0.045  0.004  0.006  0.055
   28  0.000  0.001  0.004  0.004
   29  0.009  0.002  0.002  0.014
   30  0.004  0.002  0.003  0.009
   31  0.009  0.002  0.002  0.014
   32  0.001  0.001  0.002  0.005
   33  0.003  0.002  0.003  0.008
   34  0.001  0.001  0.003  0.004
   35  0.000  0.003  0.006  0.009
   36  0.000  0.001  0.005  0.006
   37  0.000  0.008  0.000  0.008
   38  0.000  0.024  0.000  0.024
tot    0.326  0.143  0.173  0.642
 
band    13 # energy   -5.75359522 # occ.  2.00000000
 
ion      s      p      d    tot
    1  0.000  0.000  0.002  0.002
    2  0.000  0.001  0.002  0.003
    3  0.006  0.002  0.002  0.010
    4  0.000  0.001  0.002  0.003
    5  0.000  0.002  0.005  0.006
    6  0.008  0.002  0.002  0.012
    7  0.007  0.002  0.002  0.011
    8  0.008  0.002  0.002  0.013
    9  0.000  0.003  0.005  0.008
   10  0.000  0.001  0.005  0.006
   11  0.010  0.001  0.013  0.024
   12  0.000  0.007  0.004  0.012
   13  0.012  0.001  0.012  0.026
   14  0.044  0.005  0.002  0.051
   15  0.010  0.008  0.006  0.024
   16  0.000  0.008  0.004  0.012
   17  0.013  0.007  0.006  0.026
   18  0.045  0.001  0.006  0.052
   19  0.005  0.002  0.011  0.019
   20  0.008  0.000  0.006  0.015
   21  0.002  0.009  0.003  0.015
   22  0.016  0.005  0.009  0.030
   23  0.002  0.010  0.003  0.015
   24  0.058  0.003  0.004  0.066
   25  0.024  0.004  0.002  0.030
   26  0.007  0.002  0.011  0.020
   27  0.013  0.005  0.009  0.027
   28  0.000  0.001  0.004  0.004
   29  0.000  0.001  0.003  0.004
   30  0.005  0.002  0.002  0.009
   31  0.000  0.001  0.003  0.004
   32  0.008  0.003  0.003  0.013
   33  0.006  0.002  0.002  0.010
   34  0.008  0.003  0.003  0.014
   35  0.000  0.003  0.006  0.009
   36  0.000  0.001  0.005  0.006
   37  0.000  0.008  0.000  0.008
   38  0.000  0.024  0.000  0.024
tot    0.326  0.143  0.173  0.642
 
band    14 # energy   -5.46099658 # occ.  2.00000000
 
ion      s      p      d    tot
    1  0.000  0.001  0.002  0.003
    2  0.003  0.001  0.006  0.011
    3  0.003  0.001  0.006  0.011
    4  0.003  0.001  0.006  0.011
    5  0.035  0.002  0.001  0.037
    6  0.003  0.001  0.006  0.011
    7  0.003  0.001  0.006  0.011
    8  0.003  0.001  0.006  0.011
    9  0.001  0.002  0.005  0.008
   10  0.004  0.002  0.006  0.013
   11  0.006  0.005  0.005  0.016
   12  0.004  0.002  0.006  0.013
   13  0.006  0.005  0.005  0.016
   14  0.006  0.005  0.005  0.016
   15  0.020  0.001  0.008  0.028
   16  0.004  0.002  0.006  0.013
   17  0.020  0.001  0.008  0.028
   18  0.020  0.001  0.008  0.028
   19  0.000  0.003  0.001  0.004
   20  0.002  0.000  0.010  0.012
   21  0.002  0.000  0.010  0.012
   22  0.001  0.003  0.003  0.007
   23  0.002  0.000  0.010  0.012
   24  0.001  0.003  0.003  0.007
   25  0.000  0.003  0.001  0.004
   26  0.000  0.003  0.001  0.004
   27  0.001  0.003  0.003  0.007
   28  0.009  0.000  0.002  0.011
   29  0.003  0.001  0.003  0.007
   30  0.003  0.001  0.003  0.007
   31  0.003  0.001  0.003  0.007
   32  0.003  0.001  0.003  0.007
   33  0.003  0.001  0.003  0.007
   34  0.003  0.001  0.003  0.007
   35  0.006  0.000  0.002  0.007
   36  0.017  0.025  0.057  0.099
   37  0.024  0.103  0.000  0.127
   38  0.004  0.099  0.000  0.102
tot    0.232  0.283  0.222  0.738
 
band    15 # energy   -5.02073372 # occ.  2.00000000
 
ion      s      p      d    tot
    1  0.002  0.001  0.009  0.012
    2  0.004  0.001  0.009  0.014
    3  0.004  0.001  0.009  0.014
    4  0.004  0.001  0.009  0.014
    5  0.000  0.002  0.008  0.010
    6  0.004  0.001  0.009  0.014
    7  0.004  0.001  0.009  0.014
    8  0.004  0.001  0.009  0.014
    9  0.021  0.000  0.005  0.027
   10  0.009  0.000  0.024  0.033
   11  0.010  0.001  0.020  0.031
   12  0.009  0.000  0.024  0.033
   13  0.010  0.001  0.020  0.031
   14  0.010  0.001  0.020  0.031
   15  0.001  0.001  0.021  0.022
   16  0.009  0.000  0.024  0.033
   17  0.001  0.001  0.021  0.022
   18  0.001  0.001  0.021  0.022
   19  0.005  0.000  0.020  0.025
   20  0.011  0.001  0.026  0.039
   21  0.011  0.001  0.027  0.039
   22  0.001  0.001  0.021  0.023
   23  0.011  0.001  0.027  0.039
   24  0.001  0.001  0.021  0.023
   25  0.005  0.000  0.020  0.025
   26  0.005  0.000  0.020  0.025
   27  0.001  0.001  0.021  0.023
   28  0.001  0.001  0.007  0.009
   29  0.004  0.001  0.009  0.013
   30  0.004  0.001  0.009  0.013
   31  0.004  0.001  0.009  0.013
   32  0.004  0.001  0.009  0.013
   33  0.004  0.001  0.009  0.013
   34  0.004  0.001  0.009  0.013
   35  0.019  0.000  0.006  0.025
   36  0.000  0.002  0.009  0.011
   37  0.000  0.000  0.000  0.000
   38  0.000  0.000  0.000  0.000
tot    0.203  0.023  0.547  0.773
 
band    16 # energy   -5.00871368 # occ.  2.00000000
 
ion      s      p      d    tot
    1  0.000  0.004  0.011  0.015
    2  0.003  0.002  0.005  0.010
    3  0.020  0.004  0.005  0.029
    4  0.003  0.002  0.005  0.010
    5  0.000  0.000  0.011  0.011
    6  0.008  0.002  0.005  0.015
    7  0.020  0.004  0.005  0.030
    8  0.009  0.002  0.005  0.016
    9  0.000  0.005  0.008  0.013
   10  0.008  0.001  0.006  0.015
   11  0.001  0.002  0.013  0.016
   12  0.002  0.003  0.019  0.024
   13  0.001  0.002  0.013  0.016
   14  0.004  0.002  0.009  0.015
   15  0.005  0.001  0.019  0.026
   16  0.002  0.003  0.019  0.024
   17  0.006  0.002  0.019  0.026
   18  0.024  0.005  0.006  0.034
   19  0.004  0.001  0.016  0.021
   20  0.000  0.001  0.011  0.012
   21  0.000  0.002  0.015  0.018
   22  0.003  0.003  0.022  0.027
   23  0.000  0.002  0.016  0.018
   24  0.012  0.003  0.004  0.019
   25  0.017  0.006  0.008  0.030
   26  0.004  0.002  0.015  0.021
   27  0.003  0.003  0.022  0.028
   28  0.000  0.004  0.009  0.013
   29  0.004  0.002  0.006  0.012
   30  0.022  0.004  0.006  0.032
   31  0.004  0.002  0.006  0.012
   32  0.007  0.002  0.006  0.016
   33  0.022  0.004  0.006  0.032
   34  0.008  0.002  0.006  0.017
   35  0.000  0.005  0.010  0.016
   36  0.000  0.000  0.011  0.011
   37  0.000  0.000  0.000  0.000
   38  0.000  0.000  0.000  0.000
tot    0.228  0.094  0.380  0.702
 
band    17 # energy   -5.00870296 # occ.  2.00000000
 
ion      s      p      d    tot
    1  0.000  0.004  0.011  0.015
    2  0.018  0.003  0.005  0.027
    3  0.001  0.002  0.005  0.007
    4  0.018  0.003  0.005  0.027
    5  0.000  0.000  0.011  0.011
    6  0.013  0.003  0.005  0.021
    7  0.000  0.002  0.005  0.007
    8  0.012  0.003  0.005  0.021
    9  0.000  0.005  0.008  0.013
   10  0.000  0.004  0.023  0.027
   11  0.003  0.002  0.010  0.015
   12  0.006  0.002  0.010  0.018
   13  0.003  0.002  0.010  0.015
   14  0.000  0.002  0.014  0.016
   15  0.018  0.004  0.010  0.032
   16  0.006  0.002  0.010  0.018
   17  0.017  0.004  0.010  0.031
   18  0.000  0.000  0.023  0.023
   19  0.013  0.004  0.010  0.027
   20  0.000  0.003  0.017  0.020
   21  0.000  0.001  0.012  0.014
   22  0.009  0.003  0.010  0.022
   23  0.000  0.001  0.012  0.014
   24  0.000  0.002  0.028  0.030
   25  0.000  0.000  0.018  0.018
   26  0.012  0.004  0.011  0.027
   27  0.009  0.003  0.010  0.022
   28  0.000  0.004  0.009  0.013
   29  0.019  0.003  0.006  0.029
   30  0.000  0.002  0.006  0.008
   31  0.019  0.003  0.006  0.029
   32  0.015  0.003  0.006  0.024
   33  0.000  0.002  0.006  0.008
   34  0.015  0.003  0.006  0.024
   35  0.000  0.005  0.010  0.016
   36  0.000  0.000  0.011  0.011
   37  0.000  0.000  0.000  0.000
   38  0.000  0.000  0.000  0.000
tot    0.228  0.094  0.380  0.702
 
band    18 # energy   -5.00288448 # occ.  2.00000000
 
ion      s      p      d    tot
    1  0.038  0.003  0.000  0.041
    2  0.000  0.003  0.010  0.013
    3  0.000  0.003  0.010  0.013
    4  0.000  0.003  0.010  0.013
    5  0.000  0.000  0.001  0.002
    6  0.000  0.003  0.010  0.013
    7  0.000  0.003  0.010  0.013
    8  0.000  0.003  0.010  0.013
    9  0.022  0.003  0.002  0.027
   10  0.006  0.003  0.012  0.021
   11  0.003  0.000  0.016  0.018
   12  0.006  0.003  0.012  0.021
   13  0.003  0.000  0.016  0.018
   14  0.003  0.000  0.016  0.019
   15  0.008  0.003  0.016  0.028
   16  0.006  0.003  0.012  0.021
   17  0.008  0.003  0.016  0.028
   18  0.008  0.003  0.017  0.028
   19  0.003  0.003  0.019  0.026
   20  0.000  0.000  0.016  0.016
   21  0.000  0.000  0.016  0.016
   22  0.013  0.003  0.010  0.026
   23  0.000  0.000  0.016  0.016
   24  0.013  0.003  0.010  0.026
   25  0.003  0.003  0.019  0.026
   26  0.003  0.003  0.019  0.026
   27  0.013  0.003  0.010  0.026
   28  0.041  0.003  0.000  0.044
   29  0.000  0.003  0.011  0.015
   30  0.000  0.003  0.011  0.015
   31  0.000  0.003  0.011  0.015
   32  0.000  0.003  0.011  0.015
   33  0.000  0.003  0.011  0.015
   34  0.000  0.003  0.011  0.015
   35  0.021  0.003  0.002  0.026
   36  0.000  0.000  0.000  0.001
   37  0.000  0.000  0.000  0.000
   38  0.000  0.000  0.000  0.000
tot    0.224  0.086  0.400  0.710
 
band    19 # energy   -4.99842659 # occ.  2.00000000
 
ion      s      p      d    tot
    1  0.000  0.002  0.009  0.012
    2  0.019  0.004  0.005  0.028
    3  0.000  0.002  0.005  0.007
    4  0.018  0.003  0.005  0.027
    5  0.000  0.006  0.009  0.015
    6  0.011  0.003  0.005  0.019
    7  0.001  0.002  0.005  0.008
    8  0.013  0.003  0.005  0.022
    9  0.000  0.001  0.012  0.013
   10  0.015  0.004  0.008  0.028
   11  0.005  0.002  0.021  0.028
   12  0.003  0.001  0.016  0.020
   13  0.004  0.002  0.023  0.029
   14  0.019  0.004  0.005  0.027
   15  0.000  0.003  0.015  0.017
   16  0.005  0.002  0.015  0.021
   17  0.000  0.003  0.016  0.019
   18  0.000  0.000  0.008  0.009
   19  0.001  0.002  0.018  0.022
   20  0.021  0.005  0.006  0.031
   21  0.004  0.002  0.027  0.033
   22  0.002  0.001  0.013  0.016
   23  0.006  0.002  0.024  0.033
   24  0.008  0.003  0.010  0.022
   25  0.003  0.000  0.007  0.010
   26  0.001  0.003  0.020  0.023
   27  0.002  0.002  0.013  0.017
   28  0.000  0.002  0.013  0.015
   29  0.017  0.003  0.007  0.027
   30  0.000  0.001  0.006  0.007
   31  0.016  0.003  0.006  0.025
   32  0.013  0.003  0.006  0.022
   33  0.000  0.002  0.006  0.007
   34  0.015  0.003  0.006  0.024
   35  0.000  0.001  0.010  0.011
   36  0.000  0.010  0.007  0.017
   37  0.000  0.000  0.000  0.000
   38  0.000  0.002  0.000  0.002
tot    0.222  0.099  0.393  0.713
 
band    20 # energy   -4.99841347 # occ.  2.00000000
 
ion      s      p      d    tot
    1  0.000  0.003  0.009  0.012
    2  0.002  0.002  0.005  0.009
    3  0.021  0.004  0.005  0.030
    4  0.003  0.002  0.005  0.010
    5  0.000  0.006  0.009  0.015
    6  0.010  0.003  0.005  0.018
    7  0.020  0.004  0.005  0.029
    8  0.008  0.002  0.005  0.015
    9  0.000  0.001  0.012  0.013
   10  0.000  0.000  0.018  0.018
   11  0.013  0.003  0.011  0.028
   12  0.012  0.004  0.010  0.026
   13  0.015  0.003  0.009  0.027
   14  0.000  0.002  0.027  0.029
   15  0.000  0.001  0.011  0.012
   16  0.011  0.003  0.011  0.025
   17  0.000  0.001  0.010  0.011
   18  0.000  0.004  0.017  0.021
   19  0.002  0.001  0.012  0.015
   20  0.000  0.001  0.032  0.033
   21  0.016  0.004  0.011  0.032
   22  0.007  0.003  0.011  0.020
   23  0.015  0.004  0.014  0.032
   24  0.000  0.001  0.014  0.015
   25  0.000  0.003  0.023  0.026
   26  0.002  0.001  0.010  0.013
   27  0.006  0.003  0.011  0.019
   28  0.000  0.002  0.013  0.015
   29  0.003  0.002  0.006  0.010
   30  0.020  0.004  0.007  0.031
   31  0.004  0.002  0.006  0.012
   32  0.008  0.002  0.006  0.016
   33  0.020  0.004  0.007  0.030
   34  0.006  0.002  0.006  0.014
   35  0.000  0.001  0.010  0.011
   36  0.000  0.010  0.007  0.017
   37  0.000  0.000  0.000  0.000
   38  0.000  0.002  0.000  0.002
tot    0.222  0.099  0.393  0.713
 
band    21 # energy   -4.76388482 # occ.  2.00000000
 
ion      s      p      d    tot
    1  0.016  0.002  0.000  0.017
    2  0.000  0.003  0.011  0.014
    3  0.000  0.003  0.011  0.014
    4  0.000  0.003  0.011  0.014
    5  0.039  0.003  0.000  0.042
    6  0.000  0.003  0.011  0.014
    7  0.000  0.003  0.011  0.014
    8  0.000  0.003  0.011  0.014
    9  0.003  0.001  0.000  0.004
   10  0.001  0.001  0.029  0.032
   11  0.002  0.004  0.023  0.028
   12  0.001  0.001  0.029  0.032
   13  0.002  0.004  0.023  0.028
   14  0.002  0.004  0.023  0.028
   15  0.002  0.001  0.007  0.010
   16  0.001  0.001  0.029  0.032