 vasp.6.2.0 18Jan21 (build Jun 12 2021 23:27:24) complex                        
  
 executed on             LinuxIFC date 2022.05.27  06:15:47
 running on   28 total cores
 distrk:  each k-point on   28 cores,    1 groups
 distr:  one band on NCORE=   1 cores,   28 groups


--------------------------------------------------------------------------------------------------------


 INCAR:
   ISMEAR = -5
   SIGMA = 0.1
   ISPIN = 1
   EDIFF = 1.d-5
   EDIFFG = -0.01
   NSW = 0
   NELM = 150
   ENCUT = 500
   ISIF = 2
   IBRION = 2
   LREAL = Auto
   ALGO = Fast
   ICHARG = 11
   LORBIT = 10
   LCHARG = .F.
   LWAVE = .F.

 POTCAR:    PAW_PBE Cu 22Jun2005                  
 POTCAR:    PAW_PBE Ta 17Jan2003                  
 POTCAR:    PAW_PBE H 15Jun2001                   
 -----------------------------------------------------------------------------
|                                                                             |
|           W    W    AA    RRRRR   N    N  II  N    N   GGGG   !!!           |
|           W    W   A  A   R    R  NN   N  II  NN   N  G    G  !!!           |
|           W    W  A    A  R    R  N N  N  II  N N  N  G       !!!           |
|           W WW W  AAAAAA  RRRRR   N  N N  II  N  N N  G  GGG   !            |
|           WW  WW  A    A  R   R   N   NN  II  N   NN  G    G                |
|           W    W  A    A  R    R  N    N  II  N    N   GGGG   !!!           |
|                                                                             |
|     For optimal performance we recommend to set                             |
|       NCORE = 2 up to number-of-cores-per-socket                            |
|     NCORE specifies how many cores store one orbital (NPAR=cpu/NCORE).      |
|     This setting can greatly improve the performance of VASP for DFT.       |
|     The default, NCORE=1 might be grossly inefficient on modern             |
|     multi-core architectures or massively parallel machines. Do your        |
|     own testing! More info at https://www.vasp.at/wiki/index.php/NCORE      |
|     Unfortunately you need to use the default for GW and RPA                |
|     calculations (for HF NCORE is supported but not extensively tested      |
|     yet).                                                                   |
|                                                                             |
 -----------------------------------------------------------------------------

 POTCAR:    PAW_PBE Cu 22Jun2005                  
   VRHFIN =Cu: d10 p1                                                                               
   LEXCH  = PE                                                                                      
   EATOM  =  1390.9808 eV,  102.2342 Ry                                                             
                                                                                                    
   TITEL  = PAW_PBE Cu 22Jun2005                                                                    
   LULTRA =        F    use ultrasoft PP ?                                                          
   IUNSCR =        1    unscreen: 0-lin 1-nonlin 2-no                                               
   RPACOR =    2.000    partial core radius                                                         
   POMASS =   63.546; ZVAL   =   11.000    mass and valenz                                          
   RCORE  =    2.300    outmost cutoff radius                                                       
   RWIGS  =    2.200; RWIGS  =    1.164    wigner-seitz radius (au A)                               
   ENMAX  =  295.446; ENMIN  =  221.585 eV                                                          
   ICORE  =        3    local potential                                                             
   LCOR   =        T    correct aug charges                                                         
   LPAW   =        T    paw PP                                                                      
   EAUG   =  586.980                                                                                
   DEXC   =    0.000                                                                                
   RMAX   =    2.344    core radius for proj-oper                                                   
   RAUG   =    1.300    factor for augmentation sphere                                              
   RDEP   =    2.302    radius for radial grids                                                     
   RDEPT  =    1.771    core radius for aug-charge                                                  
                                                                                                    
   Atomic configuration                                                                             
    9 entries                                                                                       
     n  l   j            E        occ.                                                              
     1  0  0.50     -8850.2468   2.0000                                                             
     2  0  0.50     -1062.3498   2.0000                                                             
     2  1  1.50      -916.8226   6.0000                                                             
     3  0  0.50      -114.6929   2.0000                                                             
     3  1  1.50       -72.1325   6.0000                                                             
     3  2  2.50        -5.0394  10.0000                                                             
     4  0  0.50        -4.6097   1.0000                                                             
     4  1  0.50        -4.0817   0.0000                                                             
     4  3  2.50        -1.3606   0.0000                                                             
   Description                                                                                      
     l       E           TYP  RCUT    TYP  RCUT                                                     
     2     -5.0393973     23  2.200                                                                 
     2     10.8846608     23  2.200                                                                 
     0     -4.6097109     23  2.200                                                                 
     0      8.2520465     23  2.200                                                                 
     1     -2.7211652     23  2.200                                                                 
     1     21.7055443     23  2.200                                                                 
     3      2.7211652     23  2.300                                                                 
  local pseudopotential read in
  partial core-charges read in
  partial kinetic energy density read in
  atomic valenz-charges read in
  non local Contribution for L=           2  read in
    real space projection operators read in
  non local Contribution for L=           2  read in
    real space projection operators read in
  non local Contribution for L=           0  read in
    real space projection operators read in
  non local Contribution for L=           0  read in
    real space projection operators read in
  non local Contribution for L=           1  read in
    real space projection operators read in
  non local Contribution for L=           1  read in
    real space projection operators read in
    PAW grid and wavefunctions read in
 
   number of l-projection  operators is LMAX  =           6
   number of lm-projection operators is LMMAX =          18
 
 POTCAR:    PAW_PBE Ta 17Jan2003                  
   VRHFIN =Ta:  6s5d                                                                                
   LEXCH  = PE                                                                                      
   EATOM  =   130.6506 eV,    9.6025 Ry                                                             
                                                                                                    
   TITEL  = PAW_PBE Ta 17Jan2003                                                                    
   LULTRA =        F    use ultrasoft PP ?                                                          
   IUNSCR =        1    unscreen: 0-lin 1-nonlin 2-no                                               
   RPACOR =    2.330    partial core radius                                                         
   POMASS =  180.948; ZVAL   =    5.000    mass and valenz                                          
   RCORE  =    2.900    outmost cutoff radius                                                       
   RWIGS  =    2.840; RWIGS  =    1.503    wigner-seitz radius (au A)                               
   ENMAX  =  223.667; ENMIN  =  167.750 eV                                                          
   RCLOC  =    2.205    cutoff for local pot                                                        
   LCOR   =        T    correct aug charges                                                         
   LPAW   =        T    paw PP                                                                      
   EAUG   =  332.075                                                                                
   DEXC   =    0.000                                                                                
   RMAX   =    2.970    core radius for proj-oper                                                   
   RAUG   =    1.300    factor for augmentation sphere                                              
   RDEP   =    3.060    radius for radial grids                                                     
   RDEPT  =    2.354    core radius for aug-charge                                                  
                                                                                                    
   Atomic configuration                                                                             
   16 entries                                                                                       
     n  l   j            E        occ.                                                              
     1  0  0.50    -67341.2807   2.0000                                                             
     2  0  0.50    -11566.9376   2.0000                                                             
     2  1  1.50    -10134.1182   6.0000                                                             
     3  0  0.50     -2648.5620   2.0000                                                             
     3  1  1.50     -2222.6012   6.0000                                                             
     3  2  2.50     -1726.3120  10.0000                                                             
     4  0  0.50      -538.6961   2.0000                                                             
     4  1  1.50      -399.0129   6.0000                                                             
     4  2  2.50      -220.3959  10.0000                                                             
     4  3  3.50       -23.0374  14.0000                                                             
     5  0  0.50       -71.2901   2.0000                                                             
     5  1  1.50       -37.8225   6.0000                                                             
     5  2  2.50        -2.6455   4.0000                                                             
     6  0  0.50        -4.9623   1.0000                                                             
     6  1  1.50        -1.3606   0.0000                                                             
     5  3  2.50        -1.3606   0.0000                                                             
   Description                                                                                      
     l       E           TYP  RCUT    TYP  RCUT                                                     
     2     -2.6455043     23  2.500                                                                 
     2     -0.6258895     23  2.500                                                                 
     0     -4.9622780     23  2.500                                                                 
     0      4.7531321     23  2.500                                                                 
     1     -1.3605826     23  2.900                                                                 
     1     27.2116520     23  2.900                                                                 
  local pseudopotential read in
  partial core-charges read in
  partial kinetic energy density read in
  atomic valenz-charges read in
  non local Contribution for L=           2  read in
    real space projection operators read in
  non local Contribution for L=           2  read in
    real space projection operators read in
  non local Contribution for L=           0  read in
    real space projection operators read in
  non local Contribution for L=           0  read in
    real space projection operators read in
  non local Contribution for L=           1  read in
    real space projection operators read in
  non local Contribution for L=           1  read in
    real space projection operators read in
    PAW grid and wavefunctions read in
 
   number of l-projection  operators is LMAX  =           6
   number of lm-projection operators is LMMAX =          18
 
 POTCAR:    PAW_PBE H 15Jun2001                   
   VRHFIN =H: ultrasoft test                                                                        
   LEXCH  = PE                                                                                      
   EATOM  =    12.4884 eV,    0.9179 Ry                                                             
                                                                                                    
   TITEL  = PAW_PBE H 15Jun2001                                                                     
   LULTRA =        F    use ultrasoft PP ?                                                          
   IUNSCR =        0    unscreen: 0-lin 1-nonlin 2-no                                               
   RPACOR =    0.000    partial core radius                                                         
   POMASS =    1.000; ZVAL   =    1.000    mass and valenz                                          
   RCORE  =    1.100    outmost cutoff radius                                                       
   RWIGS  =    0.700; RWIGS  =    0.370    wigner-seitz radius (au A)                               
   ENMAX  =  250.000; ENMIN  =  200.000 eV                                                          
   RCLOC  =    0.701    cutoff for local pot                                                        
   LCOR   =        T    correct aug charges                                                         
   LPAW   =        T    paw PP                                                                      
   EAUG   =  400.000                                                                                
   RMAX   =    1.123    core radius for proj-oper                                                   
   RAUG   =    1.200    factor for augmentation sphere                                              
   RDEP   =    1.112    radius for radial grids                                                     
   RDEPT  =    0.926    core radius for aug-charge                                                  
                                                                                                    
   Atomic configuration                                                                             
    2 entries                                                                                       
     n  l   j            E        occ.                                                              
     1  0  0.50        -6.4927   1.0000                                                             
     2  1  0.50        -3.4015   0.0000                                                             
   Description                                                                                      
     l       E           TYP  RCUT    TYP  RCUT                                                     
     0     -6.4927494     23  1.100                                                                 
     0      6.8029130     23  1.100                                                                 
     1     -4.0817478     23  1.100                                                                 
  local pseudopotential read in
  atomic valenz-charges read in
  non local Contribution for L=           0  read in
    real space projection operators read in
  non local Contribution for L=           0  read in
    real space projection operators read in
  non local Contribution for L=           1  read in
    real space projection operators read in
    PAW grid and wavefunctions read in
 
   number of l-projection  operators is LMAX  =           3
   number of lm-projection operators is LMMAX =           5
 
 Optimization of the real space projectors (new method)

 maximal supplied QI-value         = 16.25
 optimisation between [QCUT,QGAM] = [ 11.38, 22.75] = [ 36.24,144.96] Ry 
 Optimized for a Real-space Cutoff    1.52 Angstroem

   l    n(q)    QCUT    max X(q) W(low)/X(q) W(high)/X(q)  e(spline) 
   2      9    11.376     4.610    0.21E-03    0.10E-03    0.26E-06
   2      9    11.376     8.522    0.33E-03    0.16E-03    0.37E-06
   0     10    11.376    51.609    0.62E-04    0.20E-04    0.13E-06
   0     10    11.376    27.747    0.54E-04    0.20E-04    0.13E-06
   1     10    11.376    20.408    0.13E-04    0.99E-04    0.19E-06
   1     10    11.376    13.425    0.12E-04    0.87E-04    0.17E-06
 Optimization of the real space projectors (new method)

 maximal supplied QI-value         = 12.85
 optimisation between [QCUT,QGAM] = [ 11.44, 22.87] = [ 36.63,146.51] Ry 
 Optimized for a Real-space Cutoff    1.61 Angstroem

   l    n(q)    QCUT    max X(q) W(low)/X(q) W(high)/X(q)  e(spline) 
   2     10    11.437    62.315    0.14E-03    0.26E-03    0.80E-06
   2     10    11.437    52.185    0.14E-03    0.26E-03    0.80E-06
   0     11    11.437   103.837    0.25E-04    0.17E-04    0.84E-07
   0     11    11.437    59.728    0.20E-04    0.15E-04    0.73E-07
   1     11    11.437    13.958    0.47E-03    0.12E-03    0.89E-06
   1     11    11.437     8.441    0.33E-03    0.88E-04    0.61E-06
 Optimization of the real space projectors (new method)

 maximal supplied QI-value         = 34.20
 optimisation between [QCUT,QGAM] = [ 11.29, 22.57] = [ 35.68,142.71] Ry 
 Optimized for a Real-space Cutoff    1.16 Angstroem

   l    n(q)    QCUT    max X(q) W(low)/X(q) W(high)/X(q)  e(spline) 
   0      8    11.287    19.460    0.40E-03    0.73E-03    0.16E-06
   0      8    11.287    12.209    0.38E-03    0.70E-03    0.15E-06
   1      7    11.287     4.655    0.22E-03    0.25E-04    0.22E-06
  PAW_PBE Cu 22Jun2005                  :
 energy of atom  1       EATOM=-1390.9808
 kinetic energy error for atom=    0.0043 (will be added to EATOM!!)
  PAW_PBE Ta 17Jan2003                  :
 energy of atom  2       EATOM= -130.6506
 kinetic energy error for atom=    0.0012 (will be added to EATOM!!)
  PAW_PBE H 15Jun2001                   :
 energy of atom  3       EATOM=  -12.4884
 kinetic energy error for atom=    0.0020 (will be added to EATOM!!)
 
 
 POSCAR: Cu-Ta-H2
  positions in direct lattice
  velocities in cartesian coordinates
 exchange correlation table for  LEXCH =        8
   RHO(1)=    0.500       N(1)  =     2000
   RHO(2)=  100.500       N(2)  =     4000

 VTST: version 3.2, (02/03/18)

 CHAIN: initializing optimizer
 
 OPT: Using VASP Conjugate-Gradient optimizer
 CHAIN: Read ICHAIN            0
 
 POSCAR: Cu-Ta-H2
  positions in direct lattice
  velocities in cartesian coordinates
 


--------------------------------------------------------------------------------------------------------


 ion  position               nearest neighbor table
   1  0.000  0.000  0.252-   7 2.57   3 2.57   4 2.57   2 2.57   6 2.57   8 2.57  12 2.57  10 2.57
                            16 2.57
   2  0.333  0.000  0.252-   8 2.57   9 2.57   5 2.57   1 2.57   3 2.57  11 2.57   4 2.57  10 2.57
                            17 2.57
   3  0.667  0.000  0.252-   1 2.57   7 2.57   6 2.57   9 2.57   2 2.57  12 2.57   5 2.57  18 2.57
                            11 2.57
   4  0.000  0.333  0.252-   5 2.57   6 2.57   1 2.57   7 2.57   2 2.57  13 2.57   9 2.57  10 2.57
                            15 2.57
   5  0.333  0.333  0.252-   4 2.57   2 2.57   7 2.57  13 2.57   8 2.57   6 2.57   3 2.57  11 2.57
                            14 2.57
   6  0.667  0.333  0.252-   4 2.57   9 2.57  15 2.57   3 2.57   1 2.57   8 2.57  14 2.57   5 2.57
                            12 2.57
   7  0.000  0.667  0.252-   1 2.57   3 2.57  16 2.57  18 2.57   4 2.57   5 2.57   8 2.57   9 2.57
                            13 2.57
   8  0.333  0.667  0.252-   9 2.57   2 2.57  17 2.57   6 2.57   1 2.57   7 2.57   5 2.57  14 2.57
                            16 2.57
   9  0.667  0.667  0.252-   8 2.57   6 2.57   2 2.57  17 2.57   3 2.57   7 2.57   4 2.57  15 2.57
                            18 2.57
  10  0.111  0.111  0.351-  20 2.55  26 2.56  19 2.56  11 2.57  12 2.57  13 2.57   1 2.57   2 2.57
                             4 2.57  15 2.57  16 2.57  17 2.57
  11  0.444  0.111  0.351-  20 2.56  21 2.56  10 2.57  13 2.57   2 2.57  17 2.57  14 2.57  12 2.57
                             5 2.57   3 2.57  18 2.57  27 2.57
  12  0.778  0.111  0.351-  21 2.55  19 2.56  25 2.56  15 2.57  10 2.57  14 2.57  18 2.57   3 2.57
                             1 2.57  16 2.57  11 2.57   6 2.57
  13  0.111  0.444  0.351-  23 2.56  20 2.56  16 2.57  18 2.57  10 2.57  11 2.57  14 2.57   5 2.57
                             4 2.57   7 2.57  15 2.57  22 2.57
  14  0.444  0.444  0.351-  21 2.56  23 2.56  15 2.57  17 2.57  12 2.57  16 2.57  13 2.57  11 2.57
                             6 2.57   8 2.57   5 2.57  24 2.57
  15  0.778  0.444  0.351-  19 2.56  14 2.57  17 2.57  12 2.57   6 2.57  18 2.57  10 2.57   9 2.57
                            13 2.57   4 2.57  24 2.57  22 2.57
  16  0.111  0.778  0.351-  23 2.55  25 2.56  26 2.56  18 2.57  13 2.57   7 2.57  14 2.57  17 2.57
                            12 2.57  10 2.57   8 2.57   1 2.57
  17  0.444  0.778  0.351-  26 2.56  14 2.57  15 2.57   8 2.57   9 2.57  11 2.57  16 2.57  18 2.57
                            10 2.57   2 2.57  27 2.57  24 2.57
  18  0.778  0.778  0.351-  25 2.56  16 2.57  13 2.57   7 2.57  15 2.57  12 2.57  17 2.57   9 2.57
                             3 2.57  11 2.57  22 2.57  27 2.57
  19  0.889  0.222  0.449-  12 2.56  10 2.56  15 2.56  21 2.56  20 2.56  25 2.56  26 2.56  22 2.57
                            24 2.57  28 2.57  32 2.59  31 2.59
  20  0.222  0.222  0.449-  10 2.55  11 2.56  13 2.56  26 2.56  19 2.56  27 2.57  22 2.57  23 2.58
                            21 2.58  36 2.61  29 2.61  31 2.61
  21  0.557  0.222  0.449-  12 2.55  14 2.56  11 2.56  19 2.56  25 2.56  24 2.57  27 2.57  20 2.58
                            23 2.58  36 2.61  32 2.61  30 2.61
  22  0.888  0.556  0.450-  24 2.56  27 2.56  19 2.57  25 2.57  23 2.57  20 2.57  18 2.57  15 2.57
                            35 2.57  13 2.57  31 2.59  33 2.59
  23  0.222  0.557  0.449-  16 2.55  13 2.56  14 2.56  25 2.56  26 2.56  22 2.57  24 2.57  20 2.58
                            21 2.58  36 2.61  33 2.61  34 2.61
  24  0.556  0.556  0.450-  22 2.56  27 2.56  19 2.57  26 2.57  21 2.57  23 2.57  15 2.57  17 2.57
                            35 2.57  14 2.57  32 2.59  34 2.59
  25  0.889  0.889  0.449-  12 2.56  16 2.56  18 2.56  21 2.56  23 2.56  19 2.56  26 2.56  22 2.57
                            27 2.57  28 2.57  33 2.59  30 2.59
  26  0.222  0.889  0.449-  10 2.56  16 2.56  17 2.56  20 2.56  23 2.56  25 2.56  19 2.56  27 2.57
                            24 2.57  28 2.57  29 2.59  34 2.59
  27  0.556  0.888  0.450-  24 2.56  22 2.56  26 2.57  25 2.57  20 2.57  21 2.57  17 2.57  18 2.57
                            35 2.57  11 2.57  29 2.59  30 2.59
  28  0.000  0.000  0.548-  33 2.55  30 2.55  31 2.55  29 2.55  32 2.55  34 2.55  25 2.57  19 2.57
                            26 2.57
  29  0.333  0.997  0.549-  34 2.52  35 2.55  28 2.55  31 2.59  27 2.59  36 2.59  30 2.59  26 2.59
                            20 2.61
  30  0.670  0.997  0.549-  33 2.52  35 2.55  28 2.55  32 2.59  27 2.59  36 2.59  29 2.59  25 2.59
                            21 2.61
  31  0.997  0.333  0.549-  32 2.52  35 2.55  28 2.55  29 2.59  22 2.59  36 2.59  33 2.59  19 2.59
                            20 2.61
  32  0.670  0.333  0.549-  31 2.52  35 2.55  28 2.55  30 2.59  24 2.59  36 2.59  34 2.59  19 2.59
                            21 2.61
  33  0.997  0.670  0.549-  30 2.52  35 2.55  28 2.55  34 2.59  22 2.59  36 2.59  31 2.59  25 2.59
                            23 2.61
  34  0.333  0.670  0.549-  29 2.52  35 2.55  28 2.55  33 2.59  24 2.59  36 2.59  32 2.59  26 2.59
                            23 2.61
  35  0.667  0.667  0.549-  34 2.55  32 2.55  29 2.55  30 2.55  33 2.55  31 2.55  24 2.57  27 2.57
                            22 2.57
  36  0.333  0.333  0.549-  38 2.00  37 2.00  31 2.59  29 2.59  33 2.59  34 2.59  32 2.59  30 2.59
                            23 2.61  20 2.61  21 2.61
  37  0.279  0.334  0.641-  38 0.84  36 2.00
  38  0.387  0.334  0.641-  37 0.84  36 2.00
 
  LATTYP: Found a hexagonal cell.
 ALAT       =     7.6967864036
 C/A-ratio  =     2.7653617908
  
  Lattice vectors:
  
 A1 = (  -3.8483927580,  -6.6656128093,   0.0000000000)
 A2 = (   7.6967864037,   0.0000000000,   0.0000000000)
 A3 = (   0.0000000000,   0.0000000000,  21.2843990326)


Analysis of symmetry for initial positions (statically):
=====================================================================
 Subroutine PRICEL returns:
 Original cell was already a primitive cell.
 

 Routine SETGRP: Setting up the symmetry group for a 
 hexagonal supercell.


 Subroutine GETGRP returns: Found  2 space group operations
 (whereof  2 operations were pure point group operations)
 out of a pool of 24 trial point group operations.


The static configuration has the point symmetry C_1h.


Analysis of symmetry for dynamics (positions and initial velocities):
=====================================================================
 Subroutine PRICEL returns:
 Original cell was already a primitive cell.
 

 Routine SETGRP: Setting up the symmetry group for a 
 hexagonal supercell.


 Subroutine GETGRP returns: Found  2 space group operations
 (whereof  2 operations were pure point group operations)
 out of a pool of 24 trial point group operations.


The dynamic configuration has the point symmetry C_1h.


Analysis of constrained symmetry for selective dynamics:
=====================================================================
 Subroutine PRICEL returns:
 Original cell was already a primitive cell.
 

 Routine SETGRP: Setting up the symmetry group for a 
 hexagonal supercell.


 Subroutine GETGRP returns: Found  2 space group operations
 (whereof  2 operations were pure point group operations)
 out of a pool of 24 trial point group operations.


The constrained configuration has the point symmetry C_1h.


 Subroutine INISYM returns: Found  2 space group operations
 (whereof  2 operations are pure point group operations),
 and found     1 'primitive' translations


----------------------------------------------------------------------------------------

                                     Primitive cell                                     

  volume of cell :    1091.9705

  direct lattice vectors                    reciprocal lattice vectors
     7.696786404  0.000000000  0.000000000     0.129924354 -0.075011849  0.000000000
     3.848392758  6.665612809  0.000000000     0.000000000  0.150023716  0.000000000
     0.000000000  0.000000000 21.284399033     0.000000000  0.000000000  0.046982769

  length of vectors
     7.696786404  7.696786404 21.284399033     0.150023716  0.150023716  0.046982769

  position of ions in fractional coordinates (direct lattice)
     0.000000000  0.000000000  0.252370745
     0.333333343  0.000000000  0.252370745
     0.666666687  0.000000000  0.252370745
     1.000000000  0.333333343  0.252370745
     0.333333313  0.333333343  0.252370745
     0.666666687  0.333333343  0.252370745
     1.000000000  0.666666687  0.252370745
     0.333333373  0.666666687  0.252370745
     0.666666627  0.666666687  0.252370745
     0.111111119  0.111111112  0.350790262
     0.444444418  0.111111112  0.350790262
     0.777777791  0.111111112  0.350790262
     0.111111119  0.444444448  0.350790262
     0.444444478  0.444444448  0.350790262
     0.777777731  0.444444448  0.350790262
     0.111111112  0.777777731  0.350790262
     0.444444478  0.777777731  0.350790262
     0.777777851  0.777777731  0.350790262
     0.888920760  0.222158496  0.448773230
     0.221702589  0.221702574  0.448707679
     0.556594881  0.221702574  0.448707679
     0.888359181  0.555820380  0.449590563
     0.221702559  0.556594821  0.448707679
     0.555820440  0.555820380  0.449590563
     0.888920760  0.888920760  0.448773230
     0.222158511  0.888920760  0.448773230
     0.555820380  0.888359181  0.449590563
     0.000000000  0.000000000  0.547660277
     0.333322426  0.997018191  0.549261755
     0.669659413  0.997018191  0.549261755
     0.997018191  0.333322426  0.549261755
     0.669659413  0.333322426  0.549261755
     0.997018191  0.669659413  0.549261755
     0.333322456  0.669659413  0.549261755
     0.666666627  0.666666687  0.548596933
     0.333333313  0.333333343  0.549395330
     0.278678649  0.334122494  0.641261229
     0.387198826  0.334122494  0.641261229

  ion indices of the primitive-cell ions
   primitive index   ion index
                 1           1
                 2           2
                 3           3
                 4           4
                 5           5
                 6           6
                 7           7
                 8           8
                 9           9
                10          10
                11          11
                12          12
                13          13
                14          14
                15          15
                16          16
                17          17
                18          18
                19          19
                20          20
                21          21
                22          22
                23          23
                24          24
                25          25
                26          26
                27          27
                28          28
                29          29
                30          30
                31          31
                32          32
                33          33
                34          34
                35          35
                36          36
                37          37
                38          38

----------------------------------------------------------------------------------------

 
 
 KPOINTS: Automatic mesh                          

Automatic generation of k-mesh.
 Grid dimensions read from file:
 generate k-points for:    8    8    1

 Generating k-lattice:

  Cartesian coordinates                     Fractional coordinates (reciprocal lattice)
     0.016240544 -0.009376481  0.000000000     0.125000000 -0.000000000  0.000000000
     0.000000000  0.018752964  0.000000000     0.000000000  0.125000000  0.000000000
     0.000000000  0.000000000  0.046982769     0.000000000  0.000000000  1.000000000

  Length of vectors
     0.018752964  0.018752964  0.046982769

  Shift w.r.t. Gamma in fractional coordinates (k-lattice)
     0.000000000  0.000000000  0.000000000

 TETIRR: Found    100 inequivalent tetrahedra from      384
 
 Subroutine IBZKPT returns following result:
 ===========================================
 
 Found     21 irreducible k-points:
 
 Following reciprocal coordinates:
            Coordinates               Weight
  0.000000  0.000000  0.000000      1.000000
  0.125000 -0.000000  0.000000      4.000000
  0.000000  0.125000  0.000000      2.000000
  0.250000 -0.000000  0.000000      4.000000
  0.000000  0.250000  0.000000      2.000000
  0.375000 -0.000000  0.000000      4.000000
  0.000000  0.375000  0.000000      2.000000
  0.500000 -0.000000  0.000000      2.000000
  0.000000  0.500000  0.000000      1.000000
  0.250000  0.125000  0.000000      2.000000
  0.125000  0.250000  0.000000      4.000000
  0.375000  0.125000  0.000000      4.000000
  0.250000  0.375000  0.000000      4.000000
 -0.125000  0.250000  0.000000      4.000000
  0.500000  0.125000  0.000000      4.000000
  0.375000  0.500000  0.000000      4.000000
 -0.125000  0.375000  0.000000      4.000000
  0.500000  0.250000  0.000000      2.000000
  0.250000  0.500000  0.000000      4.000000
 -0.375000  0.250000  0.000000      4.000000
 -0.250000  0.375000  0.000000      2.000000
 
 Following cartesian coordinates:
            Coordinates               Weight
  0.000000  0.000000  0.000000      1.000000
  0.016241 -0.009376  0.000000      4.000000
  0.000000  0.018753  0.000000      2.000000
  0.032481 -0.018753  0.000000      4.000000
  0.000000  0.037506  0.000000      2.000000
  0.048722 -0.028129  0.000000      4.000000
  0.000000  0.056259  0.000000      2.000000
  0.064962 -0.037506  0.000000      2.000000
  0.000000  0.075012  0.000000      1.000000
  0.032481  0.000000  0.000000      2.000000
  0.016241  0.028129  0.000000      4.000000
  0.048722 -0.009376  0.000000      4.000000
  0.032481  0.037506  0.000000      4.000000
 -0.016241  0.046882  0.000000      4.000000
  0.064962 -0.018753  0.000000      4.000000
  0.048722  0.046882  0.000000      4.000000
 -0.016241  0.065635  0.000000      4.000000
  0.064962  0.000000  0.000000      2.000000
  0.032481  0.056259  0.000000      4.000000
 -0.048722  0.065635  0.000000      4.000000
 -0.032481  0.075012  0.000000      2.000000
 


--------------------------------------------------------------------------------------------------------




 Dimension of arrays:
   k-points           NKPTS =     21   k-points in BZ     NKDIM =     21   number of bands    NBANDS=    252
   number of dos      NEDOS =    301   number of ions     NIONS =     38
   non local maximal  LDIM  =      6   non local SUM 2l+1 LMDIM =     18
   total plane-waves  NPLWV = 211680
   max r-space proj   IRMAX =   3445   max aug-charges    IRDMAX=  13394
   dimension x,y,z NGX =    42 NGY =   42 NGZ =  120
   dimension x,y,z NGXF=    84 NGYF=   84 NGZF=  240
   support grid    NGXF=    84 NGYF=   84 NGZF=  240
   ions per type =              35   1   2
   NGX,Y,Z   is equivalent  to a cutoff of   9.07,  9.07,  9.37 a.u.
   NGXF,Y,Z  is equivalent  to a cutoff of  18.14, 18.14, 18.75 a.u.

 SYSTEM =  unknown system                          
 POSCAR =  Cu-Ta-H2                                

 Startparameter for this run:
   NWRITE =      2    write-flag & timer
   PREC   = normal    normal or accurate (medium, high low for compatibility)
   ISTART =      0    job   : 0-new  1-cont  2-samecut
   ICHARG =     11    charge: 1-file 2-atom 10-const
   ISPIN  =      1    spin polarized calculation?
   LNONCOLLINEAR =      F non collinear calculations
   LSORBIT =      F    spin-orbit coupling
   INIWAV =      1    electr: 0-lowe 1-rand  2-diag
   LASPH  =      F    aspherical Exc in radial PAW
   METAGGA=      F    non-selfconsistent MetaGGA calc.

 Electronic Relaxation 1
   ENCUT  =  500.0 eV  36.75 Ry    6.06 a.u.  14.03 14.03 38.81*2*pi/ulx,y,z
   ENINI  =  500.0     initial cutoff
   ENAUG  =  587.0 eV  augmentation charge cutoff
   NELM   =    150;   NELMIN=  2; NELMDL= -5     # of ELM steps 
   EDIFF  = 0.1E-04   stopping-criterion for ELM
   LREAL  =      T    real-space projection
   NLSPLINE    = F    spline interpolate recip. space projectors
   LCOMPAT=      F    compatible to vasp.4.4
   GGA_COMPAT  = T    GGA compatible to vasp.4.4-vasp.4.6
   LMAXPAW     = -100 max onsite density
   LMAXMIX     =    2 max onsite mixed and CHGCAR
   VOSKOWN=      0    Vosko Wilk Nusair interpolation
   ROPT   =   -0.00050  -0.00050  -0.00050
 Ionic relaxation
   EDIFFG = -.1E-01   stopping-criterion for IOM
   NSW    =      0    number of steps for IOM
   NBLOCK =      1;   KBLOCK =      1    inner block; outer block 
   IBRION =     -1    ionic relax: 0-MD 1-quasi-New 2-CG
   NFREE  =      1    steps in history (QN), initial steepest desc. (CG)
   ISIF   =      2    stress and relaxation
   IWAVPR =     10    prediction:  0-non 1-charg 2-wave 3-comb
   ISYM   =      2    0-nonsym 1-usesym 2-fastsym
   LCORR  =      T    Harris-Foulkes like correction to forces

   POTIM  = 0.5000    time-step for ionic-motion
   TEIN   =    0.0    initial temperature
   TEBEG  =    0.0;   TEEND  =   0.0 temperature during run
   SMASS  =  -3.00    Nose mass-parameter (am)
   estimated Nose-frequenzy (Omega)   =  0.10E-29 period in steps = 0.13E+47 mass=  -0.135E-26a.u.
   SCALEE = 1.0000    scale energy and forces
   NPACO  =    256;   APACO  = 16.0  distance and # of slots for P.C.
   PSTRESS=    0.0 pullay stress

  Mass of Ions in am
   POMASS =  63.55180.95  1.00
  Ionic Valenz
   ZVAL   =  11.00  5.00  1.00
  Atomic Wigner-Seitz radii
   RWIGS  =  -1.00 -1.00 -1.00
  virtual crystal weights 
   VCA    =   1.00  1.00  1.00
   NELECT =     392.0000    total number of electrons
   NUPDOWN=      -1.0000    fix difference up-down

 DOS related values:
   EMIN   =  10.00;   EMAX   =-10.00  energy-range for DOS
   EFERMI =   0.00
   ISMEAR =    -5;   SIGMA  =   0.10  broadening in eV -4-tet -1-fermi 0-gaus

 Electronic relaxation 2 (details)
   IALGO  =     68    algorithm
   LDIAG  =      T    sub-space diagonalisation (order eigenvalues)
   LSUBROT=      F    optimize rotation matrix (better conditioning)
   TURBO    =      0    0=normal 1=particle mesh
   IRESTART =      0    0=no restart 2=restart with 2 vectors
   NREBOOT  =      0    no. of reboots
   NMIN     =      0    reboot dimension
   EREF     =   0.00    reference energy to select bands
   IMIX   =      4    mixing-type and parameters
     AMIX     =   0.40;   BMIX     =  1.00
     AMIX_MAG =   1.60;   BMIX_MAG =  1.00
     AMIN     =   0.10
     WC   =   100.;   INIMIX=   1;  MIXPRE=   1;  MAXMIX= -45

 Intra band minimization:
   WEIMIN = 0.0000     energy-eigenvalue tresh-hold
   EBREAK =  0.99E-08  absolut break condition
   DEPER  =   0.30     relativ break condition  

   TIME   =   0.40     timestep for ELM

  volume/ion in A,a.u.               =      28.74       193.92
  Fermi-wavevector in a.u.,A,eV,Ry     =   1.163500  2.198697 18.418659  1.353733
  Thomas-Fermi vector in A             =   2.300049
 
 Write flags
   LWAVE        =      F    write WAVECAR
   LDOWNSAMPLE  =      F    k-point downsampling of WAVECAR
   LCHARG       =      F    write CHGCAR
   LVTOT        =      F    write LOCPOT, total local potential
   LVHAR        =      F    write LOCPOT, Hartree potential only
   LELF         =      F    write electronic localiz. function (ELF)
   LORBIT       =     10    0 simple, 1 ext, 2 COOP (PROOUT), +10 PAW based schemes


 Dipole corrections
   LMONO  =      F    monopole corrections only (constant potential shift)
   LDIPOL =      F    correct potential (dipole corrections)
   IDIPOL =      0    1-x, 2-y, 3-z, 4-all directions 
   EPSILON=  1.0000000 bulk dielectric constant

 Exchange correlation treatment:
   GGA     =    --    GGA type
   LEXCH   =     8    internal setting for exchange type
   VOSKOWN=      0    Vosko Wilk Nusair interpolation
   LHFCALC =     F    Hartree Fock is set to
   LHFONE  =     F    Hartree Fock one center treatment
   AEXX    =    0.0000 exact exchange contribution

 Linear response parameters
   LEPSILON=     F    determine dielectric tensor
   LRPA    =     F    only Hartree local field effects (RPA)
   LNABLA  =     F    use nabla operator in PAW spheres
   LVEL    =     F    velocity operator in full k-point grid
   LINTERFAST=   F  fast interpolation
   KINTER  =     0    interpolate to denser k-point grid
   CSHIFT  =0.1000    complex shift for real part using Kramers Kronig
   OMEGAMAX=  -1.0    maximum frequency
   DEG_THRESHOLD= 0.2000000E-02 threshold for treating states as degnerate
   RTIME   =   -0.100 relaxation time in fs
  (WPLASMAI=    0.000 imaginary part of plasma frequency in eV, 0.658/RTIME)
   DFIELD  = 0.0000000 0.0000000 0.0000000 field for delta impulse in time
 
 Orbital magnetization related:
   ORBITALMAG=     F  switch on orbital magnetization
   LCHIMAG   =     F  perturbation theory with respect to B field
   DQ        =  0.001000  dq finite difference perturbation B field
   LLRAUG    =     F  two centre corrections for induced B field



--------------------------------------------------------------------------------------------------------


 Static calculation
 charge density and potential remain constant during run
 non-spin polarized calculation
 RMM-DIIS sequential band-by-band and
  variant of blocked Davidson during initial phase
 perform sub-space diagonalisation
    before iterative eigenvector-optimisation
 no mixing
 using additional bands           56
 real space projection scheme for non local part
 use partial core corrections
 calculate Harris-corrections to forces 
   (improved forces if not selfconsistent)
 use gradient corrections 
 WARNING: stress and forces are not correct
  (second derivative of E(xc) not defined)
 use of overlap-Matrix (Vanderbilt PP)
 Fermi weights with tetrahedron method with Bloechl corrections


--------------------------------------------------------------------------------------------------------


  energy-cutoff  :      500.00
  volume of cell :     1091.97
      direct lattice vectors                 reciprocal lattice vectors
     7.696786404  0.000000000  0.000000000     0.129924354 -0.075011849  0.000000000
     3.848392758  6.665612809  0.000000000     0.000000000  0.150023716  0.000000000
     0.000000000  0.000000000 21.284399033     0.000000000  0.000000000  0.046982769

  length of vectors
     7.696786404  7.696786404 21.284399033     0.150023716  0.150023716  0.046982769


 
 k-points in units of 2pi/SCALE and weight: Automatic mesh                          
   0.00000000  0.00000000  0.00000000       0.016
   0.01624054 -0.00937648  0.00000000       0.062
   0.00000000  0.01875296  0.00000000       0.031
   0.03248109 -0.01875296  0.00000000       0.062
   0.00000000  0.03750593  0.00000000       0.031
   0.04872163 -0.02812944  0.00000000       0.062
   0.00000000  0.05625889  0.00000000       0.031
   0.06496218 -0.03750592  0.00000000       0.031
   0.00000000  0.07501186  0.00000000       0.016
   0.03248109  0.00000000  0.00000000       0.031
   0.01624054  0.02812945  0.00000000       0.062
   0.04872163 -0.00937648  0.00000000       0.062
   0.03248109  0.03750593  0.00000000       0.062
  -0.01624054  0.04688241  0.00000000       0.062
   0.06496218 -0.01875296  0.00000000       0.062
   0.04872163  0.04688241  0.00000000       0.062
  -0.01624054  0.06563537  0.00000000       0.062
   0.06496218  0.00000000  0.00000000       0.031
   0.03248109  0.05625890  0.00000000       0.062
  -0.04872163  0.06563537  0.00000000       0.062
  -0.03248109  0.07501186  0.00000000       0.031
 
 k-points in reciprocal lattice and weights: Automatic mesh                          
   0.00000000  0.00000000  0.00000000       0.016
   0.12500000 -0.00000000  0.00000000       0.062
   0.00000000  0.12500000  0.00000000       0.031
   0.25000000 -0.00000000  0.00000000       0.062
   0.00000000  0.25000000  0.00000000       0.031
   0.37500000 -0.00000000  0.00000000       0.062
   0.00000000  0.37500000  0.00000000       0.031
   0.50000000 -0.00000000  0.00000000       0.031
   0.00000000  0.50000000  0.00000000       0.016
   0.25000000  0.12500000  0.00000000       0.031
   0.12500000  0.25000000  0.00000000       0.062
   0.37500000  0.12500000  0.00000000       0.062
   0.25000000  0.37500000  0.00000000       0.062
  -0.12500000  0.25000000  0.00000000       0.062
   0.50000000  0.12500000  0.00000000       0.062
   0.37500000  0.50000000  0.00000000       0.062
  -0.12500000  0.37500000  0.00000000       0.062
   0.50000000  0.25000000  0.00000000       0.031
   0.25000000  0.50000000  0.00000000       0.062
  -0.37500000  0.25000000  0.00000000       0.062
  -0.25000000  0.37500000  0.00000000       0.031
 
 position of ions in fractional coordinates (direct lattice) 
   0.00000000  0.00000000  0.25237075
   0.33333334  0.00000000  0.25237075
   0.66666669  0.00000000  0.25237075
   0.00000000  0.33333334  0.25237075
   0.33333331  0.33333334  0.25237075
   0.66666669  0.33333334  0.25237075
   0.00000000  0.66666669  0.25237075
   0.33333337  0.66666669  0.25237075
   0.66666663  0.66666669  0.25237075
   0.11111112  0.11111111  0.35079026
   0.44444442  0.11111111  0.35079026
   0.77777779  0.11111111  0.35079026
   0.11111112  0.44444445  0.35079026
   0.44444448  0.44444445  0.35079026
   0.77777773  0.44444445  0.35079026
   0.11111111  0.77777773  0.35079026
   0.44444448  0.77777773  0.35079026
   0.77777785  0.77777773  0.35079026
   0.88892076  0.22215850  0.44877323
   0.22170259  0.22170257  0.44870768
   0.55659488  0.22170257  0.44870768
   0.88835918  0.55582038  0.44959056
   0.22170256  0.55659482  0.44870768
   0.55582044  0.55582038  0.44959056
   0.88892076  0.88892076  0.44877323
   0.22215851  0.88892076  0.44877323
   0.55582038  0.88835918  0.44959056
   0.00000000  0.00000000  0.54766028
   0.33332243  0.99701819  0.54926175
   0.66965941  0.99701819  0.54926175
   0.99701819  0.33332243  0.54926175
   0.66965941  0.33332243  0.54926175
   0.99701819  0.66965941  0.54926175
   0.33332246  0.66965941  0.54926175
   0.66666663  0.66666669  0.54859693
   0.33333331  0.33333334  0.54939533
   0.27867865  0.33412249  0.64126123
   0.38719883  0.33412249  0.64126123
 
 position of ions in cartesian coordinates  (Angst):
   0.00000000  0.00000000  5.37155964
   2.56559554  0.00000000  5.37155964
   5.13119109  0.00000000  5.37155964
   1.28279762  2.22187100  5.37155964
   3.84839293  2.22187100  5.37155964
   6.41398872  2.22187100  5.37155964
   2.56559525  4.44374201  5.37155964
   5.13119102  4.44374201  5.37155964
   7.69678588  4.44374201  5.37155964
   1.28279775  0.74062365  7.46635991
   3.84839295  0.74062365  7.46635991
   6.41398873  0.74062365  7.46635991
   2.56559535  2.96249461  7.46635991
   5.13119101  2.96249461  7.46635991
   7.69678586  2.96249461  7.46635991
   3.84839268  5.18436521  7.46635991
   6.41398840  5.18436521  7.46635991
   8.97958418  5.18436521  7.46635991
   7.69678637  1.48082252  9.55186849
   2.55959606  1.47778352  9.55047329
   5.13719050  1.47778352  9.55047329
   8.97652599  3.70488344  9.56926494
   3.84839272  3.71004557  9.55047329
   6.41704633  3.70488344  9.56926494
  10.26274943  5.92520160  9.55186849
   5.13082282  5.92520160  9.55186849
   7.69678578  5.92145833  9.56926494
   0.00000000  0.00000000 11.65661987
   6.40242910  6.64573723 11.69070636
   8.99114305  6.64573723 11.69070636
   8.95659167  2.22179823 11.69070636
   6.43698107  2.22179823 11.69070636
  10.25094849  4.46369036 11.69070636
   5.14262418  4.46369036 11.69070636
   7.69678588  4.44374201 11.67655602
   3.84839293  2.22187100 11.69354943
   3.43076462  2.22713118 13.64885987
   4.26602125  2.22713118 13.64885987
 


--------------------------------------------------------------------------------------------------------


 k-point   1 :   0.0000 0.0000 0.0000  plane waves:   27671
 k-point   2 :   0.1250-0.0000 0.0000  plane waves:   27649
 k-point   3 :   0.0000 0.1250 0.0000  plane waves:   27649
 k-point   4 :   0.2500-0.0000 0.0000  plane waves:   27714
 k-point   5 :   0.0000 0.2500 0.0000  plane waves:   27714
 k-point   6 :   0.3750-0.0000 0.0000  plane waves:   27740
 k-point   7 :   0.0000 0.3750 0.0000  plane waves:   27740
 k-point   8 :   0.5000-0.0000 0.0000  plane waves:   27782
 k-point   9 :   0.0000 0.5000 0.0000  plane waves:   27782
 k-point  10 :   0.2500 0.1250 0.0000  plane waves:   27698
 k-point  11 :   0.1250 0.2500 0.0000  plane waves:   27698
 k-point  12 :   0.3750 0.1250 0.0000  plane waves:   27702
 k-point  13 :   0.2500 0.3750 0.0000  plane waves:   27702
 k-point  14 :  -0.1250 0.2500 0.0000  plane waves:   27702
 k-point  15 :   0.5000 0.1250 0.0000  plane waves:   27747
 k-point  16 :   0.3750 0.5000 0.0000  plane waves:   27747
 k-point  17 :  -0.1250 0.3750 0.0000  plane waves:   27747
 k-point  18 :   0.5000 0.2500 0.0000  plane waves:   27734
 k-point  19 :   0.2500 0.5000 0.0000  plane waves:   27734
 k-point  20 :  -0.3750 0.2500 0.0000  plane waves:   27782
 k-point  21 :  -0.2500 0.3750 0.0000  plane waves:   27782

 maximum and minimum number of plane-waves per node :     27782    27649

 maximum number of plane-waves:     27782
 maximum index in each direction: 
   IXMAX=   14   IYMAX=   14   IZMAX=   38
   IXMIN=  -14   IYMIN=  -14   IZMIN=  -38


 serial   3D FFT for wavefunctions
 parallel 3D FFT for charge:
    minimum data exchange during FFTs selected (reduces bandwidth)


 total amount of memory used by VASP MPI-rank0   150178. kBytes
=======================================================================

   base      :      30000. kBytes
   nonlr-proj:      18171. kBytes
   fftplans  :       2916. kBytes
   grid      :      12390. kBytes
   one-center:        590. kBytes
   wavefun   :      86111. kBytes
 
     INWAV:  cpu time    0.0000: real time    0.0000
 initial charge density was supplied:
 number of electron     391.9999929 magnetization 
 keeping initial charge density in first step


--------------------------------------------------------------------------------------------------------


 Maximum index for non-local projection operator         3264
 Maximum index for augmentation-charges          606 (set IRDMAX)


--------------------------------------------------------------------------------------------------------


 First call to EWALD:  gamma=   0.172
 Maximum number of real-space cells 4x 4x 2
 Maximum number of reciprocal cells 2x 2x 5

    FEWALD:  cpu time    0.0014: real time    0.0014


--------------------------------------- Iteration      1(   1)  ---------------------------------------


    POTLOK:  cpu time    0.0263: real time    0.0267
    SETDIJ:  cpu time    0.0044: real time    0.0045
     EDDAV:  cpu time   12.0126: real time   12.0141
 BZINTS: Fermi energy:   13.520866;  392.000000 electrons
         Band energy: 0.255533E+04;  BLOECHL correction:   -0.037927
       DOS:  cpu time    0.0303: real time    0.0303
    --------------------------------------------
      LOOP:  cpu time   12.0736: real time   12.0756

 eigenvalue-minimisations  : 10584
 total energy-change (2. order) : 0.3475098E+04  (-0.1674861E+05)
 number of electron     391.9999929 magnetization 
 augmentation part      391.9999929 magnetization 

 Free energy of the ion-electron system (eV)
  ---------------------------------------------------
  alpha Z        PSCENC =       876.90371654
  Ewald energy   TEWEN  =    143916.21145443
  -Hartree energ DENC   =   -190514.23770352
  -exchange      EXHF   =         0.00000000
  -V(xc)+E(xc)   XCENC  =      1496.79049813
  PAW double counting   =     46170.86514119   -49866.57110707
  entropy T*S    EENTRO =         0.00000000
  eigenvalues    EBANDS =      2555.33425920
  atomic energy  EATOM  =     48839.80130720
  Solvation  Ediel_sol  =         0.00000000
  ---------------------------------------------------
  free energy    TOTEN  =      3475.09756611 eV

  energy without entropy =     3475.09756611  energy(sigma->0) =     3475.09756611


--------------------------------------------------------------------------------------------------------




--------------------------------------- Iteration      1(   2)  ---------------------------------------


     EDDAV:  cpu time   11.9841: real time   11.9843
 BZINTS: Fermi energy:    3.084655;  392.000000 electrons
         Band energy:-0.602053E+03;  BLOECHL correction:   -0.009802
       DOS:  cpu time    0.0320: real time    0.0320
    --------------------------------------------
      LOOP:  cpu time   12.0161: real time   12.0163

 eigenvalue-minimisations  : 10584
 total energy-change (2. order) :-0.3157387E+04  (-0.3022031E+04)
 number of electron     391.9999929 magnetization 
 augmentation part      391.9999929 magnetization 

 Free energy of the ion-electron system (eV)
  ---------------------------------------------------
  alpha Z        PSCENC =       876.90371654
  Ewald energy   TEWEN  =    143916.21145443
  -Hartree energ DENC   =   -190514.23770352
  -exchange      EXHF   =         0.00000000
  -V(xc)+E(xc)   XCENC  =      1496.79049813
  PAW double counting   =     46170.86514119   -49866.57110707
  entropy T*S    EENTRO =         0.00000000
  eigenvalues    EBANDS =      -602.05319492
  atomic energy  EATOM  =     48839.80130720
  Solvation  Ediel_sol  =         0.00000000
  ---------------------------------------------------
  free energy    TOTEN  =       317.71011200 eV

  energy without entropy =      317.71011200  energy(sigma->0) =      317.71011200


--------------------------------------------------------------------------------------------------------




--------------------------------------- Iteration      1(   3)  ---------------------------------------


     EDDAV:  cpu time   12.7439: real time   12.7443
 BZINTS: Fermi energy:    0.445077;  392.000000 electrons
         Band energy:-0.103609E+04;  BLOECHL correction:   -0.034650
       DOS:  cpu time    0.0295: real time    0.0295
    --------------------------------------------
      LOOP:  cpu time   12.7734: real time   12.7738

 eigenvalue-minimisations  : 11424
 total energy-change (2. order) :-0.4340347E+03  (-0.4039567E+03)
 number of electron     391.9999929 magnetization 
 augmentation part      391.9999929 magnetization 

 Free energy of the ion-electron system (eV)
  ---------------------------------------------------
  alpha Z        PSCENC =       876.90371654
  Ewald energy   TEWEN  =    143916.21145443
  -Hartree energ DENC   =   -190514.23770352
  -exchange      EXHF   =         0.00000000
  -V(xc)+E(xc)   XCENC  =      1496.79049813
  PAW double counting   =     46170.86514119   -49866.57110707
  entropy T*S    EENTRO =         0.00000000
  eigenvalues    EBANDS =     -1036.08786580
  atomic energy  EATOM  =     48839.80130720
  Solvation  Ediel_sol  =         0.00000000
  ---------------------------------------------------
  free energy    TOTEN  =      -116.32455888 eV

  energy without entropy =     -116.32455888  energy(sigma->0) =     -116.32455888


--------------------------------------------------------------------------------------------------------




--------------------------------------- Iteration      1(   4)  ---------------------------------------


     EDDAV:  cpu time   14.0836: real time   14.0840
 BZINTS: Fermi energy:    0.212699;  392.000000 electrons
         Band energy:-0.105882E+04;  BLOECHL correction:   -0.026458
       DOS:  cpu time    0.0302: real time    0.0302
    --------------------------------------------
      LOOP:  cpu time   14.1139: real time   14.1142

 eigenvalue-minimisations  : 12852
 total energy-change (2. order) :-0.2273228E+02  (-0.2187846E+02)
 number of electron     391.9999929 magnetization 
 augmentation part      391.9999929 magnetization 

 Free energy of the ion-electron system (eV)
  ---------------------------------------------------
  alpha Z        PSCENC =       876.90371654
  Ewald energy   TEWEN  =    143916.21145443
  -Hartree energ DENC   =   -190514.23770352
  -exchange      EXHF   =         0.00000000
  -V(xc)+E(xc)   XCENC  =      1496.79049813
  PAW double counting   =     46170.86514119   -49866.57110707
  entropy T*S    EENTRO =         0.00000000
  eigenvalues    EBANDS =     -1058.82014306
  atomic energy  EATOM  =     48839.80130720
  Solvation  Ediel_sol  =         0.00000000
  ---------------------------------------------------
  free energy    TOTEN  =      -139.05683614 eV

  energy without entropy =     -139.05683614  energy(sigma->0) =     -139.05683614


--------------------------------------------------------------------------------------------------------




--------------------------------------- Iteration      1(   5)  ---------------------------------------


     EDDAV:  cpu time   13.7478: real time   13.7481
 BZINTS: Fermi energy:    0.203383;  392.000000 electrons
         Band energy:-0.105942E+04;  BLOECHL correction:   -0.026201
       DOS:  cpu time    0.0303: real time    0.0303
    --------------------------------------------
      LOOP:  cpu time   13.7781: real time   13.7784

 eigenvalue-minimisations  : 12516
 total energy-change (2. order) :-0.6039456E+00  (-0.6026720E+00)
 number of electron     391.9999929 magnetization 
 augmentation part      391.9999929 magnetization 

 Free energy of the ion-electron system (eV)
  ---------------------------------------------------
  alpha Z        PSCENC =       876.90371654
  Ewald energy   TEWEN  =    143916.21145443
  -Hartree energ DENC   =   -190514.23770352
  -exchange      EXHF   =         0.00000000
  -V(xc)+E(xc)   XCENC  =      1496.79049813
  PAW double counting   =     46170.86514119   -49866.57110707
  entropy T*S    EENTRO =         0.00000000
  eigenvalues    EBANDS =     -1059.42408864
  atomic energy  EATOM  =     48839.80130720
  Solvation  Ediel_sol  =         0.00000000
  ---------------------------------------------------
  free energy    TOTEN  =      -139.66078172 eV

  energy without entropy =     -139.66078172  energy(sigma->0) =     -139.66078172


--------------------------------------------------------------------------------------------------------




--------------------------------------- Iteration      1(   6)  ---------------------------------------


    EDDIAG:  cpu time    2.2025: real time    2.2028
  RMM-DIIS:  cpu time    6.4831: real time    6.4832
    ORTHCH:  cpu time    0.4317: real time    0.4317
 BZINTS: Fermi energy:    0.203329;  392.000000 electrons
         Band energy:-0.105944E+04;  BLOECHL correction:   -0.026200
       DOS:  cpu time    0.0302: real time    0.0302
    --------------------------------------------
      LOOP:  cpu time    9.1475: real time    9.1479

 eigenvalue-minimisations  : 11427
 total energy-change (2. order) :-0.1810577E-01  (-0.1810613E-01)
 number of electron     391.9999929 magnetization 
 augmentation part      391.9999929 magnetization 

 Free energy of the ion-electron system (eV)
  ---------------------------------------------------
  alpha Z        PSCENC =       876.90371654
  Ewald energy   TEWEN  =    143916.21145443
  -Hartree energ DENC   =   -190514.23770352
  -exchange      EXHF   =         0.00000000
  -V(xc)+E(xc)   XCENC  =      1496.79049813
  PAW double counting   =     46170.86514119   -49866.57110707
  entropy T*S    EENTRO =         0.00000000
  eigenvalues    EBANDS =     -1059.44219441
  atomic energy  EATOM  =     48839.80130720
  Solvation  Ediel_sol  =         0.00000000
  ---------------------------------------------------
  free energy    TOTEN  =      -139.67888749 eV

  energy without entropy =     -139.67888749  energy(sigma->0) =     -139.67888749


--------------------------------------------------------------------------------------------------------




--------------------------------------- Iteration      1(   7)  ---------------------------------------


    EDDIAG:  cpu time    2.2040: real time    2.2043
  RMM-DIIS:  cpu time    9.2733: real time    9.2733
    ORTHCH:  cpu time    0.4312: real time    0.4312
 BZINTS: Fermi energy:    0.203313;  392.000000 electrons
         Band energy:-0.105945E+04;  BLOECHL correction:   -0.026200
       DOS:  cpu time    0.0302: real time    0.0302
    --------------------------------------------
      LOOP:  cpu time   11.9386: real time   11.9390

 eigenvalue-minimisations  : 16428
 total energy-change (2. order) :-0.8247173E-02  (-0.8162790E-02)
 number of electron     391.9999929 magnetization 
 augmentation part      391.9999929 magnetization 

 Free energy of the ion-electron system (eV)
  ---------------------------------------------------
  alpha Z        PSCENC =       876.90371654
  Ewald energy   TEWEN  =    143916.21145443
  -Hartree energ DENC   =   -190514.23770352
  -exchange      EXHF   =         0.00000000
  -V(xc)+E(xc)   XCENC  =      1496.79049813
  PAW double counting   =     46170.86514119   -49866.57110707
  entropy T*S    EENTRO =         0.00000000
  eigenvalues    EBANDS =     -1059.45044158
  atomic energy  EATOM  =     48839.80130720
  Solvation  Ediel_sol  =         0.00000000
  ---------------------------------------------------
  free energy    TOTEN  =      -139.68713466 eV

  energy without entropy =     -139.68713466  energy(sigma->0) =     -139.68713466


--------------------------------------------------------------------------------------------------------




--------------------------------------- Iteration      1(   8)  ---------------------------------------


    EDDIAG:  cpu time    2.2057: real time    2.2058
  RMM-DIIS:  cpu time    8.5054: real time    8.5055
    ORTHCH:  cpu time    0.4310: real time    0.4310
 BZINTS: Fermi energy:    0.203310;  392.000000 electrons
         Band energy:-0.105945E+04;  BLOECHL correction:   -0.026200
       DOS:  cpu time    0.0302: real time    0.0302
    --------------------------------------------
      LOOP:  cpu time   11.1723: real time   11.1725

 eigenvalue-minimisations  : 15040
 total energy-change (2. order) :-0.6385593E-03  (-0.5801953E-03)
 number of electron     391.9999929 magnetization 
 augmentation part      391.9999929 magnetization 

 Free energy of the ion-electron system (eV)
  ---------------------------------------------------
  alpha Z        PSCENC =       876.90371654
  Ewald energy   TEWEN  =    143916.21145443
  -Hartree energ DENC   =   -190514.23770352
  -exchange      EXHF   =         0.00000000
  -V(xc)+E(xc)   XCENC  =      1496.79049813
  PAW double counting   =     46170.86514119   -49866.57110707
  entropy T*S    EENTRO =         0.00000000
  eigenvalues    EBANDS =     -1059.45108014
  atomic energy  EATOM  =     48839.80130720
  Solvation  Ediel_sol  =         0.00000000
  ---------------------------------------------------
  free energy    TOTEN  =      -139.68777322 eV

  energy without entropy =     -139.68777322  energy(sigma->0) =     -139.68777322


--------------------------------------------------------------------------------------------------------




--------------------------------------- Iteration      1(   9)  ---------------------------------------


    EDDIAG:  cpu time    2.2046: real time    2.2047
  RMM-DIIS:  cpu time    9.2658: real time    9.2659
    ORTHCH:  cpu time    0.4313: real time    0.4313
 BZINTS: Fermi energy:    0.203309;  392.000000 electrons
         Band energy:-0.105945E+04;  BLOECHL correction:   -0.026200
       DOS:  cpu time    0.0302: real time    0.0302
    --------------------------------------------
      LOOP:  cpu time   11.9320: real time   11.9322

 eigenvalue-minimisations  : 16258
 total energy-change (2. order) :-0.1409648E-03  (-0.1395388E-03)
 number of electron     391.9999929 magnetization 
 augmentation part      391.9999929 magnetization 

 Free energy of the ion-electron system (eV)
  ---------------------------------------------------
  alpha Z        PSCENC =       876.90371654
  Ewald energy   TEWEN  =    143916.21145443
  -Hartree energ DENC   =   -190514.23770352
  -exchange      EXHF   =         0.00000000
  -V(xc)+E(xc)   XCENC  =      1496.79049813
  PAW double counting   =     46170.86514119   -49866.57110707
  entropy T*S    EENTRO =         0.00000000
  eigenvalues    EBANDS =     -1059.45122110
  atomic energy  EATOM  =     48839.80130720
  Solvation  Ediel_sol  =         0.00000000
  ---------------------------------------------------
  free energy    TOTEN  =      -139.68791418 eV

  energy without entropy =     -139.68791418  energy(sigma->0) =     -139.68791418


--------------------------------------------------------------------------------------------------------




--------------------------------------- Iteration      1(  10)  ---------------------------------------


    EDDIAG:  cpu time    2.2053: real time    2.2054
  RMM-DIIS:  cpu time    7.8034: real time    7.8034
    ORTHCH:  cpu time    0.4315: real time    0.4315
 BZINTS: Fermi energy:    0.203309;  392.000000 electrons
         Band energy:-0.105945E+04;  BLOECHL correction:   -0.026200
       DOS:  cpu time    0.0296: real time    0.0296
    --------------------------------------------
      LOOP:  cpu time   10.4698: real time   10.4700

 eigenvalue-minimisations  : 13256
 total energy-change (2. order) :-0.1962087E-04  (-0.1928693E-04)
 number of electron     391.9999929 magnetization 
 augmentation part      391.9999929 magnetization 

 Free energy of the ion-electron system (eV)
  ---------------------------------------------------
  alpha Z        PSCENC =       876.90371654
  Ewald energy   TEWEN  =    143916.21145443
  -Hartree energ DENC   =   -190514.23770352
  -exchange      EXHF   =         0.00000000
  -V(xc)+E(xc)   XCENC  =      1496.79049813
  PAW double counting   =     46170.86514119   -49866.57110707
  entropy T*S    EENTRO =         0.00000000
  eigenvalues    EBANDS =     -1059.45124072
  atomic energy  EATOM  =     48839.80130720
  Solvation  Ediel_sol  =         0.00000000
  ---------------------------------------------------
  free energy    TOTEN  =      -139.68793381 eV

  energy without entropy =     -139.68793381  energy(sigma->0) =     -139.68793381


--------------------------------------------------------------------------------------------------------




--------------------------------------- Iteration      1(  11)  ---------------------------------------


    EDDIAG:  cpu time    2.2031: real time    2.2064
  RMM-DIIS:  cpu time    5.6909: real time    5.6910
    ORTHCH:  cpu time    0.4310: real time    0.4310
 BZINTS: Fermi energy:    0.203309;  392.000000 electrons
         Band energy:-0.105945E+04;  BLOECHL correction:   -0.026200
       DOS:  cpu time    0.0302: real time    0.0302
    --------------------------------------------
      LOOP:  cpu time    8.3552: real time    8.3586

 eigenvalue-minimisations  :  8669
 total energy-change (2. order) :-0.3608991E-05  (-0.3569277E-05)
 number of electron     391.9999929 magnetization 
 augmentation part      391.9999929 magnetization 

 Free energy of the ion-electron system (eV)
  ---------------------------------------------------
  alpha Z        PSCENC =       876.90371654
  Ewald energy   TEWEN  =    143916.21145443
  -Hartree energ DENC   =   -190514.23770352
  -exchange      EXHF   =         0.00000000
  -V(xc)+E(xc)   XCENC  =      1496.79049813
  PAW double counting   =     46170.86514119   -49866.57110707
  entropy T*S    EENTRO =         0.00000000
  eigenvalues    EBANDS =     -1059.45124433
  atomic energy  EATOM  =     48839.80130720
  Solvation  Ediel_sol  =         0.00000000
  ---------------------------------------------------
  free energy    TOTEN  =      -139.68793741 eV

  energy without entropy =     -139.68793741  energy(sigma->0) =     -139.68793741


--------------------------------------------------------------------------------------------------------




 average (electrostatic) potential at core
  the test charge radii are     0.9430  1.2538  0.5201
  (the norm of the test charge is              1.0000)
       1 -70.7808       2 -70.7812       3 -70.7811       4 -70.7792       5 -70.7842
       6 -70.7789       7 -70.7816       8 -70.7814       9 -70.7696      10 -71.0747
      11 -71.0312      12 -71.0744      13 -71.0306      14 -71.0305      15 -71.0439
      16 -71.0777      17 -71.0409      18 -71.0408      19 -71.0652      20 -71.2962
      21 -71.2962      22 -71.0118      23 -71.2955      24 -71.0121      25 -71.0627
      26 -71.0631      27 -70.9989      28 -70.8691      29 -71.0502      30 -71.0501
      31 -71.0264      32 -71.0264      33 -71.0552      34 -71.0552      35 -70.8429
      36 -41.7703      37 -38.4168      38 -38.4168
 
 
 
 E-fermi :   0.2033     XC(G=0):  -5.9696     alpha+bet : -5.3565

 Fermi energy:         0.2033094685

 k-point     1 :       0.0000    0.0000    0.0000
  band No.  band energies     occupation 
      1      -8.6914      2.00000
      2      -8.0302      2.00000
      3      -7.2565      2.00000
      4      -5.7846      2.00000
      5      -5.6685      2.00000
      6      -5.6665      2.00000
      7      -5.6198      2.00000
      8      -5.6191      2.00000
      9      -5.6146      2.00000
     10      -5.5649      2.00000
     11      -4.9384      2.00000
     12      -4.9374      2.00000
     13      -4.9230      2.00000
     14      -4.8761      2.00000
     15      -4.8719      2.00000
     16      -4.8660      2.00000
     17      -4.7833      2.00000
     18      -4.3049      2.00000
     19      -4.3039      2.00000
     20      -4.1984      2.00000
     21      -4.1819      2.00000
     22      -4.1810      2.00000
     23      -4.1768      2.00000
     24      -3.9401      2.00000
     25      -3.9132      2.00000
     26      -3.9123      2.00000
     27      -3.8768      2.00000
     28      -3.8767      2.00000
     29      -3.8620      2.00000
     30      -3.7687      2.00000
     31      -3.7682      2.00000
     32      -3.7402      2.00000
     33      -3.7266      2.00000
     34      -3.7239      2.00000
     35      -3.7092      2.00000
     36      -3.7069      2.00000
     37      -3.7027      2.00000
     38      -3.7014      2.00000
     39      -3.6856      2.00000
     40      -3.6846      2.00000
     41      -3.6756      2.00000
     42      -3.6219      2.00000
     43      -3.6218      2.00000
     44      -3.5364      2.00000
     45      -3.5359      2.00000
     46      -3.4637      2.00000
     47      -3.4394      2.00000
     48      -3.4189      2.00000
     49      -3.4162      2.00000
     50      -3.4146      2.00000
     51      -3.3922      2.00000
     52      -3.3915      2.00000
     53      -3.3874      2.00000
     54      -3.3077      2.00000
     55      -3.3073      2.00000
     56      -3.0563      2.00000
     57      -3.0459      2.00000
     58      -3.0438      2.00000
     59      -3.0413      2.00000
     60      -3.0374      2.00000
     61      -3.0347      2.00000
     62      -3.0052      2.00000
     63      -2.9847      2.00000
     64      -2.9841      2.00000
     65      -2.9721      2.00000
     66      -2.9690      2.00000
     67      -2.9146      2.00000
     68      -2.9144      2.00000
     69      -2.8779      2.00000
     70      -2.8772      2.00000
     71      -2.8718      2.00000
     72      -2.8551      2.00000
     73      -2.8182      2.00000
     74      -2.8062      2.00000
     75      -2.8051      2.00000
     76      -2.7642      2.00000
     77      -2.7638      2.00000
     78      -2.7139      2.00000
     79      -2.7134      2.00000
     80      -2.7102      2.00000
     81      -2.7090      2.00000
     82      -2.7059      2.00000
     83      -2.6913      2.00000
     84      -2.6911      2.00000
     85      -2.6751      2.00000
     86      -2.6670      2.00000
     87      -2.6634      2.00000
     88      -2.6362      2.00000
     89      -2.6095      2.00000
     90      -2.6086      2.00000
     91      -2.5569      2.00000
     92      -2.5550      2.00000
     93      -2.5488      2.00000
     94      -2.5212      2.00000
     95      -2.5083      2.00000
     96      -2.5081      2.00000
     97      -2.4973      2.00000
     98      -2.4966      2.00000
     99      -2.4675      2.00000
    100      -2.4668      2.00000
    101      -2.4630      2.00000
    102      -2.4614      2.00000
    103      -2.4565      2.00000
    104      -2.4467      2.00000
    105      -2.4450      2.00000
    106      -2.4306      2.00000
    107      -2.4285      2.00000
    108      -2.4209      2.00000
    109      -2.2324      2.00000
    110      -2.2228      2.00000
    111      -2.2221      2.00000
    112      -2.2193      2.00000
    113      -2.2024      2.00000
    114      -2.1999      2.00000
    115      -2.1821      2.00000
    116      -2.1773      2.00000
    117      -2.1752      2.00000
    118      -2.1543      2.00000
    119      -2.1520      2.00000
    120      -2.1505      2.00000
    121      -2.1499      2.00000
    122      -2.1130      2.00000
    123      -2.0379      2.00000
    124      -2.0334      2.00000
    125      -2.0291      2.00000
    126      -2.0236      2.00000
    127      -2.0125      2.00000
    128      -2.0091      2.00000
    129      -1.9943      2.00000
    130      -1.9926      2.00000
    131      -1.9870      2.00000
    132      -1.9490      2.00000
    133      -1.9189      2.00000
    134      -1.9187      2.00000
    135      -1.9174      2.00000
    136      -1.8803      2.00000
    137      -1.8699      2.00000
    138      -1.8695      2.00000
    139      -1.8546      2.00000
    140      -1.8530      2.00000
    141      -1.8454      2.00000
    142      -1.8155      2.00000
    143      -1.8135      2.00000
    144      -1.7970      2.00000
    145      -1.7943      2.00000
    146      -1.7793      2.00000
    147      -1.7530      2.00000
    148      -1.7507      2.00000
    149      -1.7455      2.00000
    150      -1.7417      2.00000
    151      -1.7058      2.00000
    152      -1.7056      2.00000
    153      -1.6820      2.00000
    154      -1.6782      2.00000
    155      -1.6769      2.00000
    156      -1.6651      2.00000
    157      -1.6564      2.00000
    158      -1.6495      2.00000
    159      -1.6338      2.00000
    160      -1.6327      2.00000
    161      -1.6105      2.00000
    162      -1.6081      2.00000
    163      -1.6077      2.00000
    164      -1.6065      2.00000
    165      -1.6001      2.00000
    166      -1.5760      2.00000
    167      -1.5713      2.00000
    168      -1.5705      2.00000
    169      -1.5506      2.00000
    170      -1.5486      2.00000
    171      -1.5397      2.00000
    172      -1.5354      2.00000
    173      -1.5264      2.00000
    174      -1.4972      2.00000
    175      -1.4964      2.00000
    176      -1.4931      2.00000
    177      -1.4868      2.00000
    178      -1.4864      2.00000
    179      -1.4862      2.00000
    180      -1.4860      2.00000
    181      -1.4818      2.00000
    182      -1.4771      2.00000
    183      -1.4770      2.00000
    184      -1.4268      2.00000
    185      -1.4264      2.00000
    186      -1.3922      2.00000
    187      -1.3843      2.00000
    188      -1.3841      2.00000
    189      -1.3761      2.00000
    190      -1.3723      2.00000
    191      -1.3719      2.00000
    192      -0.9731      2.00000
    193      -0.4544      2.00000
    194      -0.4327      2.00000
    195      -0.3077      2.00000
    196      -0.2673      2.00000
    197      -0.2648      2.00000
    198      -0.1875      2.00000
    199       0.0376      2.56878
    200       0.3728      0.00000
    201       0.5517      0.00000
    202       0.8654      0.00000
    203       0.8757      0.00000
    204       1.4082      0.00000
    205       2.1097      0.00000
    206       2.1114      0.00000
    207       2.1341      0.00000
    208       2.7481      0.00000
    209       2.7633      0.00000
    210       3.4560      0.00000
    211       3.5389      0.00000
    212       3.7935      0.00000
    213       3.8505      0.00000
    214       3.9288      0.00000
    215       4.0114      0.00000
    216       4.0266      0.00000
    217       4.3387      0.00000
    218       4.5485      0.00000
    219       4.5517      0.00000
    220       4.5735      0.00000
    221       4.5993      0.00000
    222       4.6516      0.00000
    223       4.6645      0.00000
    224       5.0339      0.00000
    225       5.0955      0.00000
    226       5.2530      0.00000
    227       5.3243      0.00000
    228       5.3817      0.00000
    229       5.4283      0.00000
    230       5.8495      0.00000
    231       6.0780      0.00000
    232       6.0985      0.00000
    233       6.2655      0.00000
    234       6.4815      0.00000
    235       6.5548      0.00000
    236       6.7834      0.00000
    237       6.7885      0.00000
    238       6.8495      0.00000
    239       6.9718      0.00000
    240       6.9789      0.00000
    241       7.0038      0.00000
    242       7.2096      0.00000
    243       7.4459      0.00000
    244       7.4965      0.00000
    245       7.5177      0.00000
    246       7.5786      0.00000
    247       7.6404      0.00000
    248       7.6487      0.00000
    249       7.6650      0.00000
    250       7.9272      0.00000
    251       8.0074      0.00000
    252       8.0176      0.00000

 k-point     2 :       0.1250   -0.0000    0.0000
  band No.  band energies     occupation 
      1      -8.6400      2.00000
      2      -8.0196      2.00000
      3      -7.2123      2.00000
      4      -6.1898      2.00000
      5      -5.8841      2.00000
      6      -5.8615      2.00000
      7      -5.7136      2.00000
      8      -5.3579      2.00000
      9      -5.3305      2.00000
     10      -5.2219      2.00000
     11      -5.1506      2.00000
     12      -5.0290      2.00000
     13      -4.9740      2.00000
     14      -4.8816      2.00000
     15      -4.7566      2.00000
[...]
  0.000   0.000   0.000   0.000   0.000   0.000   0.000   0.000   0.000   0.000   0.000   0.000   0.000   0.000   0.000   0.000
  0.000   0.000   0.000   0.000   0.000   0.000   0.000   0.000   0.000   0.000   0.000   0.000   0.000   0.000   0.000   0.000
  0.000   0.000   0.000   0.000   0.000   0.000   0.000   0.000   0.000   0.000   1.000   0.000   0.000   0.000   0.000   0.000
  0.000   0.000   0.000   0.000   0.000   0.000   0.000   0.000   0.000   0.000   0.000   0.000   0.000   0.000   0.000   0.000
  0.000   0.000   0.000   0.000   0.000   0.000   0.000   0.000   0.000   0.000   0.000   0.000   0.000   0.000   0.000   0.000
  0.000   0.000   0.000   0.000   0.000   0.000   0.000   0.000   0.000   0.000   0.000   0.000   0.000   0.000   0.000   0.000
  0.000   0.000   0.000   0.000   0.000   0.000   0.000   0.000   0.000   0.000   0.000   0.000   0.000   0.000   0.000   0.000
  0.000   0.000   0.000   0.000   0.000   0.000   0.000   0.000   0.000   0.000   0.000   0.000   0.000   0.000   0.000   0.000
  0.000   0.000   0.000   0.000   0.000   0.000   0.000   0.000   0.000   0.000   0.000   0.000   0.000   0.000   0.000   0.000
  0.000   0.000   0.000   0.000   0.000   0.000   0.000   0.000   0.000   0.000   0.000   0.000   0.000   0.000   0.000   0.000


------------------------ aborting loop because EDIFF is reached ----------------------------------------





 total charge

# of ion       s       p       d       tot
------------------------------------------
    1        0.450   0.281   9.189   9.920
    2        0.446   0.286   9.185   9.918
    3        0.446   0.286   9.185   9.918
    4        0.445   0.285   9.187   9.918
    5        0.451   0.286   9.180   9.917
    6        0.445   0.285   9.187   9.918
    7        0.446   0.286   9.185   9.917
    8        0.446   0.286   9.185   9.917
    9        0.448   0.282   9.189   9.919
   10        0.444   0.371   9.174   9.989
   11        0.443   0.364   9.182   9.989
   12        0.444   0.371   9.174   9.989
   13        0.443   0.364   9.183   9.989
   14        0.443   0.364   9.183   9.989
   15        0.439   0.370   9.174   9.983
   16        0.443   0.371   9.174   9.988
   17        0.438   0.369   9.175   9.983
   18        0.438   0.369   9.175   9.983
   19        0.441   0.370   9.177   9.988
   20        0.469   0.400   9.154  10.023
   21        0.469   0.400   9.154  10.023
   22        0.429   0.371   9.179   9.979
   23        0.470   0.397   9.157  10.024
   24        0.429   0.371   9.179   9.979
   25        0.442   0.368   9.177   9.987
   26        0.442   0.368   9.177   9.987
   27        0.430   0.369   9.182   9.981
   28        0.443   0.294   9.181   9.918
   29        0.483   0.319   9.157   9.959
   30        0.483   0.319   9.157   9.959
   31        0.479   0.320   9.159   9.958
   32        0.479   0.320   9.159   9.958
   33        0.482   0.319   9.158   9.959
   34        0.482   0.319   9.158   9.959
   35        0.439   0.296   9.181   9.917
   36        0.703   0.678   3.244   4.625
   37        0.559   0.029   0.000   0.588
   38        0.559   0.029   0.000   0.588
--------------------------------------------------
tot         17.612  12.529 324.359 354.500
 
    CHARGE:  cpu time    0.4074: real time    0.4075
    FORLOC:  cpu time    0.0075: real time    0.0075
    FORNL :  cpu time    2.4260: real time    2.4261
    STRESS:  cpu time    7.2336: real time    7.2339
    FORCOR:  cpu time    0.0263: real time    0.0264
    FORHAR:  cpu time    0.0116: real time    0.0117
    OFIELD:  cpu time    0.0001: real time    0.0001

  FORCE on cell =-STRESS in cart. coord.  units (eV):
  Direction    XX          YY          ZZ          XY          YZ          ZX
  --------------------------------------------------------------------------------------
  Alpha Z   876.90372   876.90372   876.90372
  Ewald  169470.57661169453.84793************     0.00035    -0.10363     0.00014
  Hartree182267.24872182266.05482************     0.00002    -0.04050     0.00005
  E(xc)   -2274.40960 -2274.28797 -2278.82001    -0.00032     0.00213    -0.00003
  Local  ************************364654.22730     0.01957     0.13633    -0.00065
  n-local  -762.65236  -760.73441  -775.46011     1.66177    -0.07574     0.04049
  augment  3309.93170  3309.63742  3335.38230    -0.01828     0.01841     0.00027
  Kinetic  3197.09535  3199.68768  3233.09737     0.57330    -0.05396    -0.20929
  Fock        0.00000     0.00000     0.00000     0.00000     0.00000     0.00000
  -------------------------------------------------------------------------------------
  Total      -8.11470    -8.06098    -2.46342     0.00000    -0.11697     0.00000
  in kB     -11.90617   -11.82735    -3.61441     0.00000    -0.17162     0.00000
  external pressure =       -9.12 kB  Pullay stress =        0.00 kB


 VOLUME and BASIS-vectors are now :
 -----------------------------------------------------------------------------
  energy-cutoff  :      500.00
  volume of cell :     1091.97
      direct lattice vectors                 reciprocal lattice vectors
     7.696786404  0.000000000  0.000000000     0.129924354 -0.075011849  0.000000000
     3.848392758  6.665612809  0.000000000     0.000000000  0.150023716  0.000000000
     0.000000000  0.000000000 21.284399033     0.000000000  0.000000000  0.046982769

  length of vectors
     7.696786404  7.696786404 21.284399033     0.150023716  0.150023716  0.046982769


 FORCES acting on ions
    electron-ion (+dipol)            ewald-force                    non-local-force                 convergence-correction
 -----------------------------------------------------------------------------------------------
   -.407E-04 0.772E-01 0.344E+04   0.581E-04 -.148E-02 -.344E+04   0.239E-08 -.359E-01 -.242E+01   -.363E-03 -.449E-01 0.140E+00
   -.989E+00 -.714E+00 0.344E+04   0.863E+00 0.711E+00 -.343E+04   0.133E+00 0.194E+00 -.181E+01   0.443E-02 -.177E+00 0.229E+00
   0.989E+00 -.714E+00 0.344E+04   -.863E+00 0.711E+00 -.343E+04   -.133E+00 0.194E+00 -.181E+01   -.357E-02 -.175E+00 0.230E+00
   -.108E+01 -.448E+00 0.344E+04   0.105E+01 0.391E+00 -.343E+04   0.226E+00 -.308E-01 -.192E+01   -.160E+00 0.886E-01 0.212E+00
   -.612E-04 -.799E-01 0.343E+04   0.116E-03 -.246E-03 -.343E+04   0.175E-09 -.263E-02 -.103E+01   0.121E-01 0.774E-01 0.432E+00
   0.108E+01 -.448E+00 0.344E+04   -.105E+01 0.391E+00 -.343E+04   -.226E+00 -.308E-01 -.192E+01   0.158E+00 0.897E-01 0.213E+00
   -.329E+00 0.118E+01 0.344E+04   0.185E+00 -.110E+01 -.343E+04   0.182E+00 -.174E+00 -.187E+01   -.371E-01 0.755E-01 0.207E+00
   0.330E+00 0.118E+01 0.344E+04   -.186E+00 -.110E+01 -.343E+04   -.182E+00 -.174E+00 -.187E+01   0.404E-01 0.741E-01 0.207E+00
   -.143E-03 -.343E-01 0.344E+04   0.263E-03 0.173E-02 -.344E+04   -.305E-08 0.458E-01 -.215E+01   -.131E-01 -.612E-02 0.131E+00
   -.589E+01 -.336E+01 0.111E+04   0.635E+01 0.365E+01 -.111E+04   -.441E+00 -.263E+00 -.104E+01   -.461E-01 -.448E-01 -.422E+00
   -.909E-04 -.708E+01 0.110E+04   0.190E-03 0.691E+01 -.110E+04   -.135E-07 0.202E+00 0.418E-01   0.120E-01 -.659E-01 -.405E+00
   0.589E+01 -.336E+01 0.111E+04   -.635E+01 0.365E+01 -.111E+04   0.441E+00 -.263E+00 -.104E+01   0.443E-01 -.444E-01 -.423E+00
   -.622E+01 0.344E+01 0.110E+04   0.599E+01 -.345E+01 -.110E+04   0.213E+00 -.903E-01 -.806E-02   -.103E-01 0.121E+00 -.427E+00
   0.622E+01 0.344E+01 0.110E+04   -.599E+01 -.345E+01 -.110E+04   -.213E+00 -.903E-01 -.806E-02   0.334E-01 0.119E+00 -.430E+00
   -.140E-03 -.209E+01 0.111E+04   0.296E-03 0.182E+01 -.111E+04   -.820E-08 0.123E+00 -.106E+01   -.291E-02 0.137E+00 -.444E+00
   -.927E-04 0.693E+01 0.111E+04   0.187E-03 -.733E+01 -.111E+04   -.323E-07 0.485E+00 -.884E+00   -.126E-02 -.511E-01 -.396E+00
   -.178E+01 0.103E+01 0.111E+04   0.157E+01 -.898E+00 -.111E+04   0.134E+00 -.548E-01 -.957E+00   0.747E-01 -.753E-01 -.411E+00
   0.178E+01 0.103E+01 0.111E+04   -.157E+01 -.899E+00 -.111E+04   -.134E+00 -.548E-01 -.957E+00   -.727E-01 -.727E-01 -.408E+00
   -.673E-04 -.887E+01 -.120E+04   0.733E-04 0.896E+01 0.120E+04   0.370E-08 -.556E-01 0.977E+00   0.924E-03 -.342E-01 -.730E+00
   -.649E+02 -.374E+02 -.129E+04   0.664E+02 0.383E+02 0.129E+04   -.129E+01 -.639E+00 -.953E+00   -.313E+00 -.199E+00 -.114E+01
   0.649E+02 -.374E+02 -.129E+04   -.664E+02 0.383E+02 0.129E+04   0.129E+01 -.639E+00 -.953E+00   0.293E+00 -.203E+00 -.114E+01
   -.349E+02 0.200E+02 -.123E+04   0.346E+02 -.199E+02 0.123E+04   0.485E+00 -.314E+00 0.655E+00   -.153E+00 0.149E+00 -.871E+00
   -.876E-04 0.748E+02 -.129E+04   0.153E-03 -.766E+02 0.129E+04   -.976E-07 0.147E+01 -.859E+00   -.144E-01 0.383E+00 -.115E+01
   0.349E+02 0.200E+02 -.123E+04   -.346E+02 -.199E+02 0.123E+04   -.485E+00 -.314E+00 0.655E+00   0.177E+00 0.148E+00 -.870E+00
   0.775E+01 0.451E+01 -.120E+04   -.781E+01 -.453E+01 0.120E+04   0.365E-01 0.537E-01 0.101E+01   0.142E-01 -.197E-01 -.704E+00
   -.775E+01 0.451E+01 -.120E+04   0.781E+01 -.453E+01 0.120E+04   -.365E-01 0.537E-01 0.101E+01   -.373E-01 -.178E-01 -.704E+00
   -.119E-03 -.402E+02 -.123E+04   0.238E-03 0.399E+02 0.123E+04   -.350E-07 0.526E+00 0.675E+00   0.127E-01 -.217E+00 -.860E+00
   -.461E-04 0.372E+00 -.343E+04   0.480E-04 -.367E+00 0.343E+04   -.393E-08 0.590E-01 0.192E+01   -.169E-02 -.737E-01 -.327E+00
   -.575E+02 -.104E+03 -.344E+04   0.586E+02 0.105E+03 0.344E+04   -.822E+00 -.934E+00 0.174E+00   -.219E+00 -.399E+00 -.439E+00
   0.575E+02 -.104E+03 -.344E+04   -.586E+02 0.105E+03 0.344E+04   0.822E+00 -.934E+00 0.174E+00   0.242E+00 -.399E+00 -.441E+00
   -.118E+03 0.266E+01 -.344E+04   0.120E+03 -.247E+01 0.344E+04   -.127E+01 -.180E+00 0.290E+00   -.384E+00 -.154E-02 -.416E+00
   0.118E+03 0.266E+01 -.344E+04   -.120E+03 -.247E+01 0.344E+04   0.127E+01 -.180E+00 0.290E+00   0.406E+00 -.980E-03 -.415E+00
   -.620E+02 0.101E+03 -.344E+04   0.627E+02 -.103E+03 0.344E+04   -.495E+00 0.110E+01 0.264E+00   -.193E+00 0.425E+00 -.443E+00
   0.620E+02 0.101E+03 -.344E+04   -.627E+02 -.103E+03 0.344E+04   0.495E+00 0.110E+01 0.264E+00   0.217E+00 0.425E+00 -.441E+00
   -.140E-03 -.408E+00 -.344E+04   0.246E-03 0.418E+00 0.344E+04   0.291E-08 -.437E-01 0.249E+01   -.136E-01 0.505E-01 -.339E+00
   -.398E-04 0.586E-01 -.154E+04   0.604E-04 -.870E-01 0.153E+04   0.364E-08 -.546E-01 0.152E+01   -.461E-03 0.186E-02 -.202E+00
   0.146E+02 0.375E-01 -.340E+03   -.184E+02 -.287E-01 0.341E+03   0.379E+01 -.227E-02 -.997E+00   -.194E-01 0.582E-04 0.612E-01
   -.146E+02 0.375E-01 -.340E+03   0.184E+02 -.287E-01 0.341E+03   -.379E+01 -.227E-02 -.997E+00   0.194E-01 0.606E-04 0.612E-01
 -----------------------------------------------------------------------------------------------
   -.244E-03 -.839E-01 0.283E+02   0.391E-13 0.346E-12 0.267E-11   -.284E-08 0.427E-01 -.151E+02   0.654E-01 0.444E-01 -.133E+02
 
 
 POSITION                                       TOTAL-FORCE (eV/Angst)
 -----------------------------------------------------------------------------------
      0.00000      0.00000      5.37156         0.000000     -0.005251     -0.037369
      2.56560      0.00000      5.37156         0.010313      0.014480      0.050943
      5.13119      0.00000      5.37156        -0.010313      0.014480      0.050943
      1.28280      2.22187      5.37156         0.031449      0.001392      0.043475
      3.84839      2.22187      5.37156         0.000000     -0.005486      0.043145
      6.41399      2.22187      5.37156        -0.031449      0.001392      0.043475
      2.56560      4.44374      5.37156        -0.000250     -0.017075      0.049450
      5.13119      4.44374      5.37156         0.000250     -0.017075      0.049450
      7.69679      4.44374      5.37156        -0.000000      0.007045      0.017984
      1.28280      0.74062      7.46636        -0.025762     -0.014382     -0.090809
      3.84839      0.74062      7.46636         0.000000     -0.034384     -0.046418
      6.41399      0.74062      7.46636         0.025762     -0.014382     -0.090809
      2.56560      2.96249      7.46636        -0.033654      0.021396     -0.056024
      5.13119      2.96249      7.46636         0.033654      0.021396     -0.056024
      7.69679      2.96249      7.46636         0.000000     -0.012339     -0.015578
      3.84839      5.18437      7.46636        -0.000000      0.036325     -0.082955
      6.41399      5.18437      7.46636        -0.007266      0.000620     -0.002743
      8.97958      5.18437      7.46636         0.007266      0.000620     -0.002743
      7.69679      1.48082      9.55187        -0.000000      0.002148      0.069634
      2.55960      1.47778      9.55047        -0.067235     -0.022012     -0.120817
      5.13719      1.47778      9.55047         0.067235     -0.022012     -0.120817
      8.97653      3.70488      9.56926         0.009958     -0.014130      0.024869
      3.84839      3.71005      9.55047        -0.000000      0.099767     -0.116700
      6.41705      3.70488      9.56926        -0.009958     -0.014130      0.024869
     10.26275      5.92520      9.55187         0.002560      0.006864      0.029213
      5.13082      5.92520      9.55187        -0.002560      0.006864      0.029213
      7.69679      5.92146      9.56926        -0.000000      0.027294      0.021231
      0.00000      0.00000     11.65662         0.000000     -0.009050     -0.013691
      6.40243      6.64574     11.69071        -0.017393     -0.032721     -0.022595
      8.99114      6.64574     11.69071         0.017393     -0.032721     -0.022595
      8.95659      2.22180     11.69071         0.029108      0.011004      0.070394
      6.43698      2.22180     11.69071        -0.029108      0.011004      0.070394
     10.25095      4.46369     11.69071        -0.036051      0.017152     -0.039573
      5.14262      4.46369     11.69071         0.036051      0.017152     -0.039573
      7.69679      4.44374     11.67656        -0.000000      0.017023     -0.006575
      3.84839      2.22187     11.69355         0.000000     -0.081282      0.376889
      3.43076      2.22713     13.64886        -0.029349      0.006506     -0.040582
      4.26602      2.22713     13.64886         0.029349      0.006506     -0.040582
 -----------------------------------------------------------------------------------
    total drift:                                0.065170      0.003141     -0.031949


--------------------------------------------------------------------------------------------------------



  FREE ENERGIE OF THE ION-ELECTRON SYSTEM (eV)
  ---------------------------------------------------
  free  energy   TOTEN  =      -139.68793741 eV

  energy  without entropy=     -139.68793741  energy(sigma->0) =     -139.68793741
 


--------------------------------------------------------------------------------------------------------


    POTLOK:  cpu time    0.0292: real time    0.0292


--------------------------------------------------------------------------------------------------------


 stress matrix after NEB project (eV)
     -8.11470      0.00000      0.00000
      0.00000     -8.06098     -0.11697
      0.00000     -0.11697     -2.46342
  FORCES: max atom, RMS     0.050503    0.011586
  FORCE total and by dimension    0.071423    0.040582
  Stress total and by dimension   11.701428    8.114697
     LOOP+:  cpu time  137.9968: real time  138.0095
 -----------------------------------------------------------------------------
|                                                                             |
|           W    W    AA    RRRRR   N    N  II  N    N   GGGG   !!!           |
|           W    W   A  A   R    R  NN   N  II  NN   N  G    G  !!!           |
|           W    W  A    A  R    R  N N  N  II  N N  N  G       !!!           |
|           W WW W  AAAAAA  RRRRR   N  N N  II  N  N N  G  GGG   !            |
|           WW  WW  A    A  R   R   N   NN  II  N   NN  G    G                |
|           W    W  A    A  R    R  N    N  II  N    N   GGGG   !!!           |
|                                                                             |
|     Tetrahedron method does not include variations of the Fermi             |
|     occupations, so forces and stress will be inaccurate. We suggest        |
|     using a different smearing scheme ISMEAR = 1 or 2 for metals in         |
|     relaxations.                                                            |
|                                                                             |
 -----------------------------------------------------------------------------

    4ORBIT:  cpu time    0.0000: real time    0.0000



 total charge

# of ion       s       p       d       tot
------------------------------------------
    1        0.450   0.281   9.189   9.920
    2        0.446   0.286   9.185   9.918
    3        0.446   0.286   9.185   9.918
    4        0.445   0.285   9.187   9.918
    5        0.451   0.286   9.180   9.917
    6        0.445   0.285   9.187   9.918
    7        0.446   0.286   9.185   9.917
    8        0.446   0.286   9.185   9.917
    9        0.448   0.282   9.189   9.919
   10        0.444   0.371   9.174   9.989
   11        0.443   0.364   9.182   9.989
   12        0.444   0.371   9.174   9.989
   13        0.443   0.364   9.183   9.989
   14        0.443   0.364   9.183   9.989
   15        0.439   0.370   9.174   9.983
   16        0.443   0.371   9.174   9.988
   17        0.438   0.369   9.175   9.983
   18        0.438   0.369   9.175   9.983
   19        0.441   0.370   9.177   9.988
   20        0.469   0.400   9.154  10.023
   21        0.469   0.400   9.154  10.023
   22        0.429   0.371   9.179   9.979
   23        0.470   0.397   9.157  10.024
   24        0.429   0.371   9.179   9.979
   25        0.442   0.368   9.177   9.987
   26        0.442   0.368   9.177   9.987
   27        0.430   0.369   9.182   9.981
   28        0.443   0.294   9.181   9.918
   29        0.483   0.319   9.157   9.959
   30        0.483   0.319   9.157   9.959
   31        0.479   0.320   9.159   9.958
   32        0.479   0.320   9.159   9.958
   33        0.482   0.319   9.158   9.959
   34        0.482   0.319   9.158   9.959
   35        0.439   0.296   9.181   9.917
   36        0.703   0.678   3.244   4.625
   37        0.559   0.029   0.000   0.588
   38        0.559   0.029   0.000   0.588
--------------------------------------------------
tot         17.612  12.529 324.359 354.500
 
 BZINTS: Fermi energy:    0.203309;  392.000000 electrons
         Band energy:-0.105945E+04;  BLOECHL correction:   -0.026200

 total amount of memory used by VASP MPI-rank0   150178. kBytes
=======================================================================

   base      :      30000. kBytes
   nonlr-proj:      18171. kBytes
   fftplans  :       2916. kBytes
   grid      :      12390. kBytes
   one-center:        590. kBytes
   wavefun   :      86111. kBytes
 
  
  
 General timing and accounting informations for this job:
 ========================================================
  
                  Total CPU time used (sec):      149.115
                            User time (sec):      143.719
                          System time (sec):        5.396
                         Elapsed time (sec):      149.430
  
                   Maximum memory used (kb):      398356.
                   Average memory used (kb):          N/A
  
                          Minor page faults:       107992
                          Major page faults:            0
                 Voluntary context switches:         5295
