 vasp.6.2.0 18Jan21 (build Jun 12 2021 23:27:24) complex                        
  
 executed on             LinuxIFC date 2022.05.26  19:34:22
 running on   28 total cores
 distrk:  each k-point on   28 cores,    1 groups
 distr:  one band on NCORE=   1 cores,   28 groups


--------------------------------------------------------------------------------------------------------


 INCAR:
   ISMEAR = -5
   SIGMA = 0.1
   ISPIN = 1
   EDIFF = 1.d-5
   EDIFFG = -0.01
   NSW = 0
   NELM = 150
   ENCUT = 500
   ISIF = 2
   IBRION = 2
   LREAL = Auto
   ALGO = Fast
   ICHARG = 11
   LORBIT = 10
   LCHARG = .F.
   LWAVE = .F.

 POTCAR:    PAW_PBE Au 04Oct2007                  
 POTCAR:    PAW_PBE Os 17Jan2003                  
 POTCAR:    PAW_PBE N 08Apr2002                   
 -----------------------------------------------------------------------------
|                                                                             |
|           W    W    AA    RRRRR   N    N  II  N    N   GGGG   !!!           |
|           W    W   A  A   R    R  NN   N  II  NN   N  G    G  !!!           |
|           W    W  A    A  R    R  N N  N  II  N N  N  G       !!!           |
|           W WW W  AAAAAA  RRRRR   N  N N  II  N  N N  G  GGG   !            |
|           WW  WW  A    A  R   R   N   NN  II  N   NN  G    G                |
|           W    W  A    A  R    R  N    N  II  N    N   GGGG   !!!           |
|                                                                             |
|     For optimal performance we recommend to set                             |
|       NCORE = 2 up to number-of-cores-per-socket                            |
|     NCORE specifies how many cores store one orbital (NPAR=cpu/NCORE).      |
|     This setting can greatly improve the performance of VASP for DFT.       |
|     The default, NCORE=1 might be grossly inefficient on modern             |
|     multi-core architectures or massively parallel machines. Do your        |
|     own testing! More info at https://www.vasp.at/wiki/index.php/NCORE      |
|     Unfortunately you need to use the default for GW and RPA                |
|     calculations (for HF NCORE is supported but not extensively tested      |
|     yet).                                                                   |
|                                                                             |
 -----------------------------------------------------------------------------

 POTCAR:    PAW_PBE Au 04Oct2007                  
   VRHFIN =Au: s1d10                                                                                
   LEXCH  = PE                                                                                      
   EATOM  =   926.0867 eV,   68.0654 Ry                                                             
                                                                                                    
   TITEL  = PAW_PBE Au 04Oct2007                                                                    
   LULTRA =        F    use ultrasoft PP ?                                                          
   IUNSCR =        1    unscreen: 0-lin 1-nonlin 2-no                                               
   RPACOR =    2.330    partial core radius                                                         
   POMASS =  196.966; ZVAL   =   11.000    mass and valenz                                          
   RCORE  =    2.500    outmost cutoff radius                                                       
   RWIGS  =    2.840; RWIGS  =    1.503    wigner-seitz radius (au A)                               
   ENMAX  =  229.943; ENMIN  =  172.457 eV                                                          
   ICORE  =        3    local potential                                                             
   LCOR   =        T    correct aug charges                                                         
   LPAW   =        T    paw PP                                                                      
   EAUG   =  356.670                                                                                
   DEXC   =    0.000                                                                                
   RMAX   =    2.562    core radius for proj-oper                                                   
   RAUG   =    1.300    factor for augmentation sphere                                              
   RDEP   =    2.598    radius for radial grids                                                     
   RDEPT  =    2.193    core radius for aug-charge                                                  
                                                                                                    
   Atomic configuration                                                                             
   16 entries                                                                                       
     n  l   j            E        occ.                                                              
     1  0  0.50    -80748.5001   2.0000                                                             
     2  0  0.50    -14244.7466   2.0000                                                             
     2  1  1.50    -12310.9591   6.0000                                                             
     3  0  0.50     -3362.1768   2.0000                                                             
     3  1  1.50     -2801.5463   6.0000                                                             
     3  2  2.50     -2203.8206  10.0000                                                             
     4  0  0.50      -729.8168   2.0000                                                             
     4  1  1.50      -546.0527   6.0000                                                             
     4  2  2.50      -325.7302  10.0000                                                             
     4  3  3.50       -81.1472  14.0000                                                             
     5  0  0.50      -108.3201   2.0000                                                             
     5  1  1.50       -59.7479   6.0000                                                             
     5  2  2.50        -6.8783  10.0000                                                             
     6  0  0.50        -5.7602   1.0000                                                             
     6  1  1.50        -6.8029   0.0000                                                             
     5  3  2.50        -1.3606   0.0000                                                             
   Description                                                                                      
     l       E           TYP  RCUT    TYP  RCUT                                                     
     2     -6.8782861     23  2.500                                                                 
     2     -8.2388687     23  2.500                                                                 
     0     -5.7601759     23  2.500                                                                 
     0     -0.8493231     23  2.500                                                                 
     1     -2.7211652     23  2.500                                                                 
     1     27.2116520     23  2.500                                                                 
     3     -1.3605826     23  2.500                                                                 
  local pseudopotential read in
  partial core-charges read in
  partial kinetic energy density read in
  atomic valenz-charges read in
  non local Contribution for L=           2  read in
    real space projection operators read in
  non local Contribution for L=           2  read in
    real space projection operators read in
  non local Contribution for L=           0  read in
    real space projection operators read in
  non local Contribution for L=           0  read in
    real space projection operators read in
  non local Contribution for L=           1  read in
    real space projection operators read in
  non local Contribution for L=           1  read in
    real space projection operators read in
    PAW grid and wavefunctions read in
 
   number of l-projection  operators is LMAX  =           6
   number of lm-projection operators is LMMAX =          18
 
 POTCAR:    PAW_PBE Os 17Jan2003                  
   VRHFIN =Os: 6s5d                                                                                 
   LEXCH  = PE                                                                                      
   EATOM  =   417.5999 eV,   30.6927 Ry                                                             
                                                                                                    
   TITEL  = PAW_PBE Os 17Jan2003                                                                    
   LULTRA =        F    use ultrasoft PP ?                                                          
   IUNSCR =        1    unscreen: 0-lin 1-nonlin 2-no                                               
   RPACOR =    2.250    partial core radius                                                         
   POMASS =  190.200; ZVAL   =    8.000    mass and valenz                                          
   RCORE  =    2.700    outmost cutoff radius                                                       
   RWIGS  =    2.670; RWIGS  =    1.413    wigner-seitz radius (au A)                               
   ENMAX  =  228.022; ENMIN  =  171.017 eV                                                          
   RCLOC  =    2.004    cutoff for local pot                                                        
   LCOR   =        T    correct aug charges                                                         
   LPAW   =        T    paw PP                                                                      
   EAUG   =  365.080                                                                                
   DEXC   =    0.000                                                                                
   RMAX   =    2.766    core radius for proj-oper                                                   
   RAUG   =    1.300    factor for augmentation sphere                                              
   RDEP   =    2.738    radius for radial grids                                                     
   RDEPT  =    2.220    core radius for aug-charge                                                  
                                                                                                    
   Atomic configuration                                                                             
   16 entries                                                                                       
     n  l   j            E        occ.                                                              
     1  0  0.50    -73844.2437   2.0000                                                             
     2  0  0.50    -12856.6893   2.0000                                                             
     2  1  1.50    -11191.7995   6.0000                                                             
     3  0  0.50     -2990.1422   2.0000                                                             
     3  1  1.50     -2501.5221   6.0000                                                             
     3  2  2.50     -1956.5818  10.0000                                                             
     4  0  0.50      -629.1606   2.0000                                                             
     4  1  1.50      -468.9548   6.0000                                                             
     4  2  2.50      -270.2868  10.0000                                                             
     4  3  3.50       -49.5699  14.0000                                                             
     5  0  0.50       -89.1521   2.0000                                                             
     5  1  1.50       -48.6063   6.0000                                                             
     5  2  2.50        -4.7055   7.0000                                                             
     6  0  0.50        -5.4288   1.0000                                                             
     6  1  1.50        -2.7212   0.0000                                                             
     5  3  2.50        -6.8029   0.0000                                                             
   Description                                                                                      
     l       E           TYP  RCUT    TYP  RCUT                                                     
     2     -4.7055230     23  2.500                                                                 
     2     -6.0661056     23  2.500                                                                 
     0     -5.4288441     23  2.500                                                                 
     0      3.7338294     23  2.500                                                                 
     1     -2.7211652     23  2.700                                                                 
     1     27.2116520     23  2.700                                                                 
  local pseudopotential read in
  partial core-charges read in
  partial kinetic energy density read in
  atomic valenz-charges read in
  non local Contribution for L=           2  read in
    real space projection operators read in
  non local Contribution for L=           2  read in
    real space projection operators read in
  non local Contribution for L=           0  read in
    real space projection operators read in
  non local Contribution for L=           0  read in
    real space projection operators read in
  non local Contribution for L=           1  read in
    real space projection operators read in
  non local Contribution for L=           1  read in
    real space projection operators read in
    PAW grid and wavefunctions read in
 
   number of l-projection  operators is LMAX  =           6
   number of lm-projection operators is LMMAX =          18
 
 POTCAR:    PAW_PBE N 08Apr2002                   
   VRHFIN =N: s2p3                                                                                  
   LEXCH  = PE                                                                                      
   EATOM  =   264.5486 eV,   19.4438 Ry                                                             
                                                                                                    
   TITEL  = PAW_PBE N 08Apr2002                                                                     
   LULTRA =        F    use ultrasoft PP ?                                                          
   IUNSCR =        1    unscreen: 0-lin 1-nonlin 2-no                                               
   RPACOR =    1.200    partial core radius                                                         
   POMASS =   14.001; ZVAL   =    5.000    mass and valenz                                          
   RCORE  =    1.500    outmost cutoff radius                                                       
   RWIGS  =    1.400; RWIGS  =    0.741    wigner-seitz radius (au A)                               
   ENMAX  =  400.000; ENMIN  =  300.000 eV                                                          
   ICORE  =        2    local potential                                                             
   LCOR   =        T    correct aug charges                                                         
   LPAW   =        T    paw PP                                                                      
   EAUG   =  627.112                                                                                
   DEXC   =    0.000                                                                                
   RMAX   =    1.529    core radius for proj-oper                                                   
   RAUG   =    1.300    factor for augmentation sphere                                              
   RDEP   =    1.514    radius for radial grids                                                     
   RDEPT  =    1.338    core radius for aug-charge                                                  
                                                                                                    
   Atomic configuration                                                                             
    4 entries                                                                                       
     n  l   j            E        occ.                                                              
     1  0  0.50      -384.7179   2.0000                                                             
     2  0  0.50       -18.5828   2.0000                                                             
     2  1  0.50        -7.0898   3.0000                                                             
     3  2  1.50        -6.8029   0.0000                                                             
   Description                                                                                      
     l       E           TYP  RCUT    TYP  RCUT                                                     
     0    -18.5828119     23  1.200                                                                 
     0    -13.5018863     23  1.200                                                                 
     1     -7.0897853     23  1.500                                                                 
     1      9.5240782     23  1.500                                                                 
     2     -6.8029130      7  1.500                                                                 
  local pseudopotential read in
  partial core-charges read in
  partial kinetic energy density read in
  atomic valenz-charges read in
  non local Contribution for L=           0  read in
    real space projection operators read in
  non local Contribution for L=           0  read in
    real space projection operators read in
  non local Contribution for L=           1  read in
    real space projection operators read in
  non local Contribution for L=           1  read in
    real space projection operators read in
    PAW grid and wavefunctions read in
 
   number of l-projection  operators is LMAX  =           4
   number of lm-projection operators is LMMAX =           8
 
 Optimization of the real space projectors (new method)

 maximal supplied QI-value         = 15.12
 optimisation between [QCUT,QGAM] = [ 11.34, 22.83] = [ 36.00,145.93] Ry 
 Optimized for a Real-space Cutoff    1.39 Angstroem

   l    n(q)    QCUT    max X(q) W(low)/X(q) W(high)/X(q)  e(spline) 
   2      9    11.338    60.898    0.39E-03    0.42E-03    0.21E-06
   2      9    11.338    58.894    0.40E-03    0.42E-03    0.22E-06
   0      9    11.338   109.617    0.13E-03    0.20E-04    0.13E-06
   0      9    11.338    75.026    0.13E-03    0.20E-04    0.13E-06
   1      9    11.338    16.344    0.33E-04    0.24E-03    0.18E-06
   1      9    11.338    10.160    0.26E-04    0.19E-03    0.15E-06
 Optimization of the real space projectors (new method)

 maximal supplied QI-value         = 13.98
 optimisation between [QCUT,QGAM] = [ 11.33, 22.79] = [ 35.93,145.49] Ry 
 Optimized for a Real-space Cutoff    1.56 Angstroem

   l    n(q)    QCUT    max X(q) W(low)/X(q) W(high)/X(q)  e(spline) 
   2     10    11.327   152.873    0.32E-03    0.72E-03    0.11E-05
   2     10    11.327   151.010    0.32E-03    0.72E-03    0.11E-05
   0     11    11.327    72.114    0.43E-04    0.61E-04    0.13E-06
   0     11    11.327    44.596    0.40E-04    0.57E-04    0.12E-06
   1     10    11.327    13.742    0.16E-03    0.10E-03    0.19E-06
   1     10    11.327     8.461    0.12E-03    0.78E-04    0.15E-06
 Optimization of the real space projectors (new method)

 maximal supplied QI-value         = 25.13
 optimisation between [QCUT,QGAM] = [ 11.31, 22.87] = [ 35.82,146.48] Ry 
 Optimized for a Real-space Cutoff    1.27 Angstroem

   l    n(q)    QCUT    max X(q) W(low)/X(q) W(high)/X(q)  e(spline) 
   0      9    11.310    79.467    0.75E-04    0.16E-03    0.36E-06
   0      9    11.310    66.151    0.74E-04    0.16E-03    0.36E-06
   1      8    11.310    17.416    0.35E-03    0.12E-03    0.95E-06
   1      8    11.310    12.382    0.37E-03    0.13E-03    0.98E-06
  PAW_PBE Au 04Oct2007                  :
 energy of atom  1       EATOM= -926.0867
 kinetic energy error for atom=    0.0042 (will be added to EATOM!!)
  PAW_PBE Os 17Jan2003                  :
 energy of atom  2       EATOM= -417.5999
 kinetic energy error for atom=    0.0029 (will be added to EATOM!!)
  PAW_PBE N 08Apr2002                   :
 energy of atom  3       EATOM= -264.5486
 kinetic energy error for atom=    0.0138 (will be added to EATOM!!)
 
 
 POSCAR: Au-Os-N
  positions in direct lattice
  velocities in cartesian coordinates
 exchange correlation table for  LEXCH =        8
   RHO(1)=    0.500       N(1)  =     2000
   RHO(2)=  100.500       N(2)  =     4000

 VTST: version 3.2, (02/03/18)

 CHAIN: initializing optimizer
 
 OPT: Using VASP Conjugate-Gradient optimizer
 CHAIN: Read ICHAIN            0
 
 POSCAR: Au-Os-N
  positions in direct lattice
  velocities in cartesian coordinates
 


--------------------------------------------------------------------------------------------------------


 ion  position               nearest neighbor table
   1  0.000  0.000  0.238-  16 2.94  12 2.94   6 2.94   8 2.94   7 2.94   3 2.94  10 2.94   4 2.94
                             2 2.94
   2  0.333  0.000  0.238-   9 2.94  11 2.94  17 2.94  10 2.94   8 2.94   4 2.94   5 2.94   1 2.94
                             3 2.94
   3  0.667  0.000  0.238-   7 2.94  18 2.94  12 2.94   1 2.94  11 2.94   5 2.94   6 2.94   9 2.94
                             2 2.94
   4  0.000  0.333  0.238-  10 2.94   6 2.94   5 2.94  13 2.94   2 2.94  15 2.94   9 2.94   1 2.94
                             7 2.94
   5  0.333  0.333  0.238-  13 2.94   7 2.94  11 2.94   4 2.94   2 2.94  14 2.94   3 2.94   8 2.94
                             6 2.94
   6  0.667  0.333  0.238-  15 2.94  14 2.94   1 2.94  12 2.94   4 2.94   9 2.94   8 2.94   3 2.94
                             5 2.94
   7  0.000  0.667  0.238-  18 2.94   3 2.94  16 2.94   5 2.94   1 2.94  13 2.94   8 2.94   4 2.94
                             9 2.94
   8  0.333  0.667  0.238-   9 2.94  17 2.94   1 2.94   2 2.94  14 2.94  16 2.94   6 2.94   7 2.94
                             5 2.94
   9  0.667  0.667  0.238-   2 2.94   8 2.94  17 2.94   6 2.94  15 2.94   4 2.94   3 2.94  18 2.94
                             7 2.94
  10  0.111  0.111  0.346-  20 2.90  11 2.94  17 2.94   2 2.94   4 2.94   1 2.94  12 2.94  16 2.94
                            13 2.94  15 2.94  26 2.95  19 2.95
  11  0.444  0.111  0.346-  20 2.91  21 2.91  27 2.94  13 2.94   2 2.94  10 2.94  17 2.94   5 2.94
                             3 2.94  18 2.94  14 2.94  12 2.94
  12  0.778  0.111  0.346-  21 2.90  16 2.94  18 2.94   1 2.94  14 2.94  15 2.94   3 2.94   6 2.94
                            10 2.94  11 2.94  25 2.95  19 2.95
  13  0.111  0.444  0.346-  23 2.91  20 2.91  22 2.94   5 2.94  18 2.94  11 2.94   7 2.94   4 2.94
                            16 2.94  10 2.94  14 2.94  15 2.94
  14  0.444  0.444  0.346-  21 2.91  23 2.91  24 2.94  15 2.94   6 2.94  12 2.94   8 2.94  17 2.94
                             5 2.94  16 2.94  13 2.94  11 2.94
  15  0.778  0.444  0.346-  24 2.92  22 2.92  14 2.94   6 2.94  17 2.94  12 2.94   9 2.94   4 2.94
                            10 2.94  13 2.94  18 2.94  19 2.95
  16  0.111  0.778  0.346-  23 2.90  18 2.94  12 2.94   7 2.94   1 2.94   8 2.94  13 2.94  10 2.94
                            14 2.94  17 2.94  25 2.95  26 2.95
  17  0.444  0.778  0.346-  27 2.92  24 2.92   9 2.94  15 2.94   2 2.94  10 2.94  11 2.94   8 2.94
                            14 2.94  16 2.94  18 2.94  26 2.95
  18  0.778  0.778  0.346-  22 2.92  27 2.92  16 2.94   7 2.94  13 2.94  12 2.94   3 2.94  11 2.94
                             9 2.94  15 2.94  17 2.94  25 2.95
  19  0.888  0.223  0.455-  24 2.93  22 2.93  21 2.93  20 2.93  28 2.95  15 2.95  26 2.95  25 2.95
                            10 2.95  12 2.95  32 2.98  31 2.98
  20  0.222  0.222  0.452-  36 2.77  10 2.90  11 2.91  13 2.91  26 2.93  19 2.93  23 2.95  21 2.95
                            27 2.96  22 2.96  29 2.96  31 2.96
  21  0.556  0.222  0.452-  36 2.77  12 2.90  14 2.91  11 2.91  25 2.93  19 2.93  20 2.95  23 2.95
                            27 2.96  24 2.96  30 2.96  32 2.96
  22  0.886  0.557  0.453-  24 2.90  27 2.90  18 2.92  15 2.92  25 2.93  19 2.93  13 2.94  35 2.95
                            23 2.96  20 2.96  33 2.98  31 2.98
  23  0.222  0.556  0.452-  36 2.77  16 2.90  13 2.91  14 2.91  25 2.93  26 2.93  20 2.95  21 2.95
                            22 2.96  24 2.96  33 2.96  34 2.96
  24  0.557  0.557  0.453-  27 2.90  22 2.90  15 2.92  17 2.92  26 2.93  19 2.93  14 2.94  35 2.95
                            21 2.96  23 2.96  32 2.98  34 2.98
  25  0.888  0.888  0.455-  22 2.93  27 2.93  23 2.93  21 2.93  28 2.95  18 2.95  19 2.95  26 2.95
                            16 2.95  12 2.95  33 2.98  30 2.98
  26  0.223  0.888  0.455-  27 2.93  24 2.93  20 2.93  23 2.93  28 2.95  17 2.95  19 2.95  25 2.95
                            10 2.95  16 2.95  29 2.98  34 2.98
  27  0.557  0.886  0.453-  24 2.90  22 2.90  17 2.92  18 2.92  26 2.93  25 2.93  11 2.94  35 2.95
                            20 2.96  21 2.96  29 2.98  30 2.98
  28  0.000  0.000  0.563-  25 2.95  19 2.95  26 2.95  34 2.98  32 2.98  33 2.98  30 2.98  31 2.98
                            29 2.98
  29  0.333  0.009  0.563-  31 2.86  30 2.86  36 2.88  20 2.96  28 2.98  35 2.98  27 2.98  26 2.98
                            34 3.09
  30  0.658  0.009  0.563-  32 2.86  29 2.86  36 2.88  21 2.96  28 2.98  35 2.98  27 2.98  25 2.98
                            33 3.09
  31  0.009  0.333  0.563-  29 2.86  33 2.86  36 2.88  20 2.96  28 2.98  35 2.98  22 2.98  19 2.98
                            32 3.09
  32  0.658  0.333  0.563-  30 2.86  34 2.86  36 2.88  21 2.96  28 2.98  35 2.98  24 2.98  19 2.98
                            31 3.09
  33  0.009  0.658  0.563-  34 2.86  31 2.86  36 2.88  23 2.96  28 2.98  35 2.98  22 2.98  25 2.98
                            30 3.09
  34  0.333  0.658  0.563-  33 2.86  32 2.86  36 2.88  23 2.96  28 2.98  35 2.98  24 2.98  26 2.98
                            29 3.09
  35  0.667  0.667  0.563-  24 2.95  27 2.95  22 2.95  29 2.98  34 2.98  32 2.98  31 2.98  30 2.98
                            33 2.98
  36  0.333  0.333  0.550-  37 1.69  20 2.77  23 2.77  21 2.77  33 2.88  31 2.88  29 2.88  30 2.88
                            34 2.88  32 2.88
  37  0.333  0.333  0.626-  36 1.69
 
  LATTYP: Found a hexagonal cell.
 ALAT       =     8.8135128021
 C/A-ratio  =     2.5184286595
  
  Lattice vectors:
  
 A1 = (  -4.4067569092,  -7.6327256898,   0.0000000000)
 A2 = (   8.8135128021,   0.0000000000,   0.0000000000)
 A3 = (   0.0000000000,   0.0000000000,  22.1962032318)


Analysis of symmetry for initial positions (statically):
=====================================================================
 Subroutine PRICEL returns:
 Original cell was already a primitive cell.
 

 Routine SETGRP: Setting up the symmetry group for a 
 hexagonal supercell.


 Subroutine GETGRP returns: Found  6 space group operations
 (whereof  6 operations were pure point group operations)
 out of a pool of 24 trial point group operations.


The static configuration has the point symmetry C_3v.


Analysis of symmetry for dynamics (positions and initial velocities):
=====================================================================
 Subroutine PRICEL returns:
 Original cell was already a primitive cell.
 

 Routine SETGRP: Setting up the symmetry group for a 
 hexagonal supercell.


 Subroutine GETGRP returns: Found  6 space group operations
 (whereof  6 operations were pure point group operations)
 out of a pool of 24 trial point group operations.


The dynamic configuration has the point symmetry C_3v.


Analysis of constrained symmetry for selective dynamics:
=====================================================================
 Subroutine PRICEL returns:
 Original cell was already a primitive cell.
 

 Routine SETGRP: Setting up the symmetry group for a 
 hexagonal supercell.


 Subroutine GETGRP returns: Found  6 space group operations
 (whereof  6 operations were pure point group operations)
 out of a pool of 24 trial point group operations.


The constrained configuration has the point symmetry C_3v.


 Subroutine INISYM returns: Found  6 space group operations
 (whereof  6 operations are pure point group operations),
 and found     1 'primitive' translations


----------------------------------------------------------------------------------------

                                     Primitive cell                                     

  volume of cell :    1493.1636

  direct lattice vectors                    reciprocal lattice vectors
     8.813512802  0.000000000  0.000000000     0.113462137 -0.065507406  0.000000000
     4.406756909  7.632725690  0.000000000     0.000000000  0.131014796  0.000000000
     0.000000000  0.000000000 22.196203232     0.000000000  0.000000000  0.045052750

  length of vectors
     8.813512802  8.813512802 22.196203232     0.131014796  0.131014796  0.045052750

  position of ions in fractional coordinates (direct lattice)
     0.000000000  0.000000000  0.237895638
     0.333333343  0.000000000  0.237895638
     0.666666687  0.000000000  0.237895638
     1.000000000  0.333333343  0.237895638
     0.333333313  0.333333343  0.237895638
     0.666666687  0.333333343  0.237895638
     1.000000000  0.666666687  0.237895638
     0.333333343  0.666666687  0.237895638
     0.666666627  0.666666687  0.237895638
     0.111111119  0.111111112  0.345965207
     0.444444418  0.111111112  0.345965207
     0.777777791  0.111111112  0.345965207
     0.111111127  0.444444448  0.345965207
     0.444444478  0.444444448  0.345965207
     0.777777731  0.444444448  0.345965207
     0.111111090  0.777777791  0.345965207
     0.444444448  0.777777791  0.345965207
     0.777777851  0.777777791  0.345965207
     0.888433906  0.223132205  0.454805226
     0.221845884  0.221845869  0.452135904
     0.556308293  0.221845869  0.452135904
     0.886246892  0.556876584  0.453359655
     0.221845839  0.556308293  0.452135904
     0.556876584  0.556876584  0.453359655
     0.888433906  0.888433906  0.454805226
     0.223132235  0.888433906  0.454805226
     0.556876524  0.886246892  0.453359655
     0.000000000  0.000000000  0.563113138
     0.333311485  0.008509540  0.563281954
     0.658179005  0.008509540  0.563281954
     0.008509540  0.333311485  0.563281954
     0.658179005  0.333311485  0.563281954
     0.008509540  0.658179005  0.563281954
     0.333311485  0.658179005  0.563281954
     0.666666627  0.666666687  0.562979701
     0.333333313  0.333333343  0.550313345
     0.333333313  0.333333343  0.626261255

  ion indices of the primitive-cell ions
   primitive index   ion index
                 1           1
                 2           2
                 3           3
                 4           4
                 5           5
                 6           6
                 7           7
                 8           8
                 9           9
                10          10
                11          11
                12          12
                13          13
                14          14
                15          15
                16          16
                17          17
                18          18
                19          19
                20          20
                21          21
                22          22
                23          23
                24          24
                25          25
                26          26
                27          27
                28          28
                29          29
                30          30
                31          31
                32          32
                33          33
                34          34
                35          35
                36          36
                37          37

----------------------------------------------------------------------------------------

 
 
 KPOINTS: Automatic mesh                          

Automatic generation of k-mesh.
 Grid dimensions read from file:
 generate k-points for:    8    8    1

 Generating k-lattice:

  Cartesian coordinates                     Fractional coordinates (reciprocal lattice)
     0.014182767 -0.008188426  0.000000000     0.125000000 -0.000000000  0.000000000
     0.000000000  0.016376850  0.000000000     0.000000000  0.125000000  0.000000000
     0.000000000  0.000000000  0.045052750     0.000000000  0.000000000  1.000000000

  Length of vectors
     0.016376850  0.016376850  0.045052750

  Shift w.r.t. Gamma in fractional coordinates (k-lattice)
     0.000000000  0.000000000  0.000000000

 TETIRR: Found     36 inequivalent tetrahedra from      384
 
 Subroutine IBZKPT returns following result:
 ===========================================
 
 Found     10 irreducible k-points:
 
 Following reciprocal coordinates:
            Coordinates               Weight
  0.000000  0.000000  0.000000      1.000000
  0.125000 -0.000000  0.000000      6.000000
  0.250000 -0.000000  0.000000      6.000000
  0.375000  0.000000  0.000000      6.000000
  0.500000 -0.000000  0.000000      3.000000
  0.250000  0.125000  0.000000      6.000000
  0.375000  0.125000  0.000000     12.000000
  0.500000  0.125000  0.000000     12.000000
  0.500000  0.250000  0.000000      6.000000
 -0.375000  0.250000  0.000000      6.000000
 
 Following cartesian coordinates:
            Coordinates               Weight
  0.000000  0.000000  0.000000      1.000000
  0.014183 -0.008188  0.000000      6.000000
  0.028366 -0.016377  0.000000      6.000000
  0.042548 -0.024565  0.000000      6.000000
  0.056731 -0.032754  0.000000      3.000000
  0.028366 -0.000000  0.000000      6.000000
  0.042548 -0.008188  0.000000     12.000000
  0.056731 -0.016377  0.000000     12.000000
  0.056731 -0.000000  0.000000      6.000000
 -0.042548  0.057319  0.000000      6.000000
 


--------------------------------------------------------------------------------------------------------




 Dimension of arrays:
   k-points           NKPTS =     10   k-points in BZ     NKDIM =     10   number of bands    NBANDS=    252
   number of dos      NEDOS =    301   number of ions     NIONS =     37
   non local maximal  LDIM  =      6   non local SUM 2l+1 LMDIM =     18
   total plane-waves  NPLWV = 290304
   max r-space proj   IRMAX =   3166   max aug-charges    IRDMAX=  12088
   dimension x,y,z NGX =    48 NGY =   48 NGZ =  126
   dimension x,y,z NGXF=    96 NGYF=   96 NGZF=  252
   support grid    NGXF=    96 NGYF=   96 NGZF=  252
   ions per type =              35   1   1
   NGX,Y,Z   is equivalent  to a cutoff of   9.05,  9.05,  9.44 a.u.
   NGXF,Y,Z  is equivalent  to a cutoff of  18.11, 18.11, 18.87 a.u.

 SYSTEM =  unknown system                          
 POSCAR =  Au-Os-N                                 

 Startparameter for this run:
   NWRITE =      2    write-flag & timer
   PREC   = normal    normal or accurate (medium, high low for compatibility)
   ISTART =      0    job   : 0-new  1-cont  2-samecut
   ICHARG =     11    charge: 1-file 2-atom 10-const
   ISPIN  =      1    spin polarized calculation?
   LNONCOLLINEAR =      F non collinear calculations
   LSORBIT =      F    spin-orbit coupling
   INIWAV =      1    electr: 0-lowe 1-rand  2-diag
   LASPH  =      F    aspherical Exc in radial PAW
   METAGGA=      F    non-selfconsistent MetaGGA calc.

 Electronic Relaxation 1
   ENCUT  =  500.0 eV  36.75 Ry    6.06 a.u.  16.07 16.07 40.47*2*pi/ulx,y,z
   ENINI  =  500.0     initial cutoff
   ENAUG  =  627.1 eV  augmentation charge cutoff
   NELM   =    150;   NELMIN=  2; NELMDL= -5     # of ELM steps 
   EDIFF  = 0.1E-04   stopping-criterion for ELM
   LREAL  =      T    real-space projection
   NLSPLINE    = F    spline interpolate recip. space projectors
   LCOMPAT=      F    compatible to vasp.4.4
   GGA_COMPAT  = T    GGA compatible to vasp.4.4-vasp.4.6
   LMAXPAW     = -100 max onsite density
   LMAXMIX     =    2 max onsite mixed and CHGCAR
   VOSKOWN=      0    Vosko Wilk Nusair interpolation
   ROPT   =   -0.00050  -0.00050  -0.00050
 Ionic relaxation
   EDIFFG = -.1E-01   stopping-criterion for IOM
   NSW    =      0    number of steps for IOM
   NBLOCK =      1;   KBLOCK =      1    inner block; outer block 
   IBRION =     -1    ionic relax: 0-MD 1-quasi-New 2-CG
   NFREE  =      1    steps in history (QN), initial steepest desc. (CG)
   ISIF   =      2    stress and relaxation
   IWAVPR =     10    prediction:  0-non 1-charg 2-wave 3-comb
   ISYM   =      2    0-nonsym 1-usesym 2-fastsym
   LCORR  =      T    Harris-Foulkes like correction to forces

   POTIM  = 0.5000    time-step for ionic-motion
   TEIN   =    0.0    initial temperature
   TEBEG  =    0.0;   TEEND  =   0.0 temperature during run
   SMASS  =  -3.00    Nose mass-parameter (am)
   estimated Nose-frequenzy (Omega)   =  0.10E-29 period in steps = 0.13E+47 mass=  -0.178E-26a.u.
   SCALEE = 1.0000    scale energy and forces
   NPACO  =    256;   APACO  = 16.0  distance and # of slots for P.C.
   PSTRESS=    0.0 pullay stress

  Mass of Ions in am
   POMASS = 196.97190.20 14.00
  Ionic Valenz
   ZVAL   =  11.00  8.00  5.00
  Atomic Wigner-Seitz radii
   RWIGS  =  -1.00 -1.00 -1.00
  virtual crystal weights 
   VCA    =   1.00  1.00  1.00
   NELECT =     398.0000    total number of electrons
   NUPDOWN=      -1.0000    fix difference up-down

 DOS related values:
   EMIN   =  10.00;   EMAX   =-10.00  energy-range for DOS
   EFERMI =   0.00
   ISMEAR =    -5;   SIGMA  =   0.10  broadening in eV -4-tet -1-fermi 0-gaus

 Electronic relaxation 2 (details)
   IALGO  =     68    algorithm
   LDIAG  =      T    sub-space diagonalisation (order eigenvalues)
   LSUBROT=      F    optimize rotation matrix (better conditioning)
   TURBO    =      0    0=normal 1=particle mesh
   IRESTART =      0    0=no restart 2=restart with 2 vectors
   NREBOOT  =      0    no. of reboots
   NMIN     =      0    reboot dimension
   EREF     =   0.00    reference energy to select bands
   IMIX   =      4    mixing-type and parameters
     AMIX     =   0.40;   BMIX     =  1.00
     AMIX_MAG =   1.60;   BMIX_MAG =  1.00
     AMIN     =   0.10
     WC   =   100.;   INIMIX=   1;  MIXPRE=   1;  MAXMIX= -45

 Intra band minimization:
   WEIMIN = 0.0000     energy-eigenvalue tresh-hold
   EBREAK =  0.99E-08  absolut break condition
   DEPER  =   0.30     relativ break condition  

   TIME   =   0.40     timestep for ELM

  volume/ion in A,a.u.               =      40.36       272.33
  Fermi-wavevector in a.u.,A,eV,Ry     =   1.053578  1.990974 15.102831  1.110027
  Thomas-Fermi vector in A             =   2.188705
 
 Write flags
   LWAVE        =      F    write WAVECAR
   LDOWNSAMPLE  =      F    k-point downsampling of WAVECAR
   LCHARG       =      F    write CHGCAR
   LVTOT        =      F    write LOCPOT, total local potential
   LVHAR        =      F    write LOCPOT, Hartree potential only
   LELF         =      F    write electronic localiz. function (ELF)
   LORBIT       =     10    0 simple, 1 ext, 2 COOP (PROOUT), +10 PAW based schemes


 Dipole corrections
   LMONO  =      F    monopole corrections only (constant potential shift)
   LDIPOL =      F    correct potential (dipole corrections)
   IDIPOL =      0    1-x, 2-y, 3-z, 4-all directions 
   EPSILON=  1.0000000 bulk dielectric constant

 Exchange correlation treatment:
   GGA     =    --    GGA type
   LEXCH   =     8    internal setting for exchange type
   VOSKOWN=      0    Vosko Wilk Nusair interpolation
   LHFCALC =     F    Hartree Fock is set to
   LHFONE  =     F    Hartree Fock one center treatment
   AEXX    =    0.0000 exact exchange contribution

 Linear response parameters
   LEPSILON=     F    determine dielectric tensor
   LRPA    =     F    only Hartree local field effects (RPA)
   LNABLA  =     F    use nabla operator in PAW spheres
   LVEL    =     F    velocity operator in full k-point grid
   LINTERFAST=   F  fast interpolation
   KINTER  =     0    interpolate to denser k-point grid
   CSHIFT  =0.1000    complex shift for real part using Kramers Kronig
   OMEGAMAX=  -1.0    maximum frequency
   DEG_THRESHOLD= 0.2000000E-02 threshold for treating states as degnerate
   RTIME   =   -0.100 relaxation time in fs
  (WPLASMAI=    0.000 imaginary part of plasma frequency in eV, 0.658/RTIME)
   DFIELD  = 0.0000000 0.0000000 0.0000000 field for delta impulse in time
 
 Orbital magnetization related:
   ORBITALMAG=     F  switch on orbital magnetization
   LCHIMAG   =     F  perturbation theory with respect to B field
   DQ        =  0.001000  dq finite difference perturbation B field
   LLRAUG    =     F  two centre corrections for induced B field



--------------------------------------------------------------------------------------------------------


 Static calculation
 charge density and potential remain constant during run
 non-spin polarized calculation
 RMM-DIIS sequential band-by-band and
  variant of blocked Davidson during initial phase
 perform sub-space diagonalisation
    before iterative eigenvector-optimisation
 no mixing
 using additional bands           53
 real space projection scheme for non local part
 use partial core corrections
 calculate Harris-corrections to forces 
   (improved forces if not selfconsistent)
 use gradient corrections 
 WARNING: stress and forces are not correct
  (second derivative of E(xc) not defined)
 use of overlap-Matrix (Vanderbilt PP)
 Fermi weights with tetrahedron method with Bloechl corrections


--------------------------------------------------------------------------------------------------------


  energy-cutoff  :      500.00
  volume of cell :     1493.16
      direct lattice vectors                 reciprocal lattice vectors
     8.813512802  0.000000000  0.000000000     0.113462137 -0.065507406  0.000000000
     4.406756909  7.632725690  0.000000000     0.000000000  0.131014796  0.000000000
     0.000000000  0.000000000 22.196203232     0.000000000  0.000000000  0.045052750

  length of vectors
     8.813512802  8.813512802 22.196203232     0.131014796  0.131014796  0.045052750


 
 k-points in units of 2pi/SCALE and weight: Automatic mesh                          
   0.00000000  0.00000000  0.00000000       0.016
   0.01418277 -0.00818843  0.00000000       0.094
   0.02836553 -0.01637685  0.00000000       0.094
   0.04254830 -0.02456528  0.00000000       0.094
   0.05673107 -0.03275370  0.00000000       0.047
   0.02836553 -0.00000000  0.00000000       0.094
   0.04254830 -0.00818843  0.00000000       0.188
   0.05673107 -0.01637685  0.00000000       0.188
   0.05673107 -0.00000000  0.00000000       0.094
  -0.04254830  0.05731898  0.00000000       0.094
 
 k-points in reciprocal lattice and weights: Automatic mesh                          
   0.00000000  0.00000000  0.00000000       0.016
   0.12500000 -0.00000000  0.00000000       0.094
   0.25000000 -0.00000000  0.00000000       0.094
   0.37500000  0.00000000  0.00000000       0.094
   0.50000000 -0.00000000  0.00000000       0.047
   0.25000000  0.12500000  0.00000000       0.094
   0.37500000  0.12500000  0.00000000       0.188
   0.50000000  0.12500000  0.00000000       0.188
   0.50000000  0.25000000  0.00000000       0.094
  -0.37500000  0.25000000  0.00000000       0.094
 
 position of ions in fractional coordinates (direct lattice) 
   0.00000000  0.00000000  0.23789564
   0.33333334  0.00000000  0.23789564
   0.66666669  0.00000000  0.23789564
   0.00000000  0.33333334  0.23789564
   0.33333331  0.33333334  0.23789564
   0.66666669  0.33333334  0.23789564
   0.00000000  0.66666669  0.23789564
   0.33333334  0.66666669  0.23789564
   0.66666663  0.66666669  0.23789564
   0.11111112  0.11111111  0.34596521
   0.44444442  0.11111111  0.34596521
   0.77777779  0.11111111  0.34596521
   0.11111113  0.44444445  0.34596521
   0.44444448  0.44444445  0.34596521
   0.77777773  0.44444445  0.34596521
   0.11111109  0.77777779  0.34596521
   0.44444445  0.77777779  0.34596521
   0.77777785  0.77777779  0.34596521
   0.88843391  0.22313220  0.45480523
   0.22184588  0.22184587  0.45213590
   0.55630829  0.22184587  0.45213590
   0.88624689  0.55687658  0.45335966
   0.22184584  0.55630829  0.45213590
   0.55687658  0.55687658  0.45335966
   0.88843391  0.88843391  0.45480523
   0.22313223  0.88843391  0.45480523
   0.55687652  0.88624689  0.45335966
   0.00000000  0.00000000  0.56311314
   0.33331149  0.00850954  0.56328195
   0.65817900  0.00850954  0.56328195
   0.00850954  0.33331149  0.56328195
   0.65817900  0.33331149  0.56328195
   0.00850954  0.65817900  0.56328195
   0.33331149  0.65817900  0.56328195
   0.66666663  0.66666669  0.56297970
   0.33333331  0.33333334  0.55031334
   0.33333331  0.33333334  0.62626125
 
 position of ions in cartesian coordinates  (Angst):
   0.00000000  0.00000000  5.28037993
   2.93783769  0.00000000  5.28037993
   5.87567538  0.00000000  5.28037993
   1.46891901  2.54424197  5.28037993
   4.40675643  2.54424197  5.28037993
   7.34459439  2.54424197  5.28037993
   2.93783803  5.08848395  5.28037993
   5.87567571  5.08848395  5.28037993
   8.81351288  5.08848395  5.28037993
   1.46891893  0.84808064  7.67911405
   4.40675623  0.84808064  7.67911405
   7.34459418  0.84808064  7.67911405
   2.93783798  3.39232256  7.67911405
   5.87567574  3.39232256  7.67911405
   8.81351263  3.39232256  7.67911405
   4.40675667  5.93656453  7.67911405
   7.34459449  5.93656453  7.67911405
  10.28243270  5.93656453  7.67911405
   8.81351299  1.70310691 10.09494923
   2.93286235  1.69328866 10.03570041
   5.88065107  1.69328866 10.03570041
  10.26496806  4.25048621 10.06286304
   4.40675655  4.24614860 10.03570041
   7.36205863  4.25048621 10.06286304
  11.74533585  6.78117230 10.09494923
   5.88169106  6.78117230 10.09494923
   8.81351299  6.76447942 10.06286304
   0.00000000  0.00000000 12.49897366
   2.97514452  0.06495099 12.50272073
   5.83836856  0.06495099 12.50272073
   1.54382163  2.54407513 12.50272073
   7.26969177  2.54407513 12.50272073
   2.97543382  5.02369980 12.50272073
   5.83807992  5.02369980 12.50272073
   8.81351288  5.08848395 12.49601187
   4.40675643  2.54424197 12.21486684
   4.40675643  2.54424197 13.90062209
 


--------------------------------------------------------------------------------------------------------


 k-point   1 :   0.0000 0.0000 0.0000  plane waves:   37827
 k-point   2 :   0.1250-0.0000 0.0000  plane waves:   37876
 k-point   3 :   0.2500-0.0000 0.0000  plane waves:   37924
 k-point   4 :   0.3750 0.0000 0.0000  plane waves:   37904
 k-point   5 :   0.5000-0.0000 0.0000  plane waves:   37912
 k-point   6 :   0.2500 0.1250 0.0000  plane waves:   37858
 k-point   7 :   0.3750 0.1250 0.0000  plane waves:   37928
 k-point   8 :   0.5000 0.1250 0.0000  plane waves:   37924
 k-point   9 :   0.5000 0.2500 0.0000  plane waves:   37926
 k-point  10 :  -0.3750 0.2500 0.0000  plane waves:   37916

 maximum and minimum number of plane-waves per node :     37928    37827

 maximum number of plane-waves:     37928
 maximum index in each direction: 
   IXMAX=   16   IYMAX=   16   IZMAX=   40
   IXMIN=  -16   IYMIN=  -16   IZMIN=  -40


 serial   3D FFT for wavefunctions
 parallel 3D FFT for charge:
    minimum data exchange during FFTs selected (reduces bandwidth)


 total amount of memory used by VASP MPI-rank0   122660. kBytes
=======================================================================

   base      :      30000. kBytes
   nonlr-proj:      14275. kBytes
   fftplans  :       4330. kBytes
   grid      :      17879. kBytes
   one-center:        575. kBytes
   wavefun   :      55601. kBytes
 
     INWAV:  cpu time    0.0000: real time    0.0001
 initial charge density was supplied:
 number of electron     397.9999956 magnetization 
 keeping initial charge density in first step


--------------------------------------------------------------------------------------------------------


 Maximum index for non-local projection operator         3030
 Maximum index for augmentation-charges          856 (set IRDMAX)


--------------------------------------------------------------------------------------------------------


 First call to EWALD:  gamma=   0.155
 Maximum number of real-space cells 4x 4x 2
 Maximum number of reciprocal cells 2x 2x 5

    FEWALD:  cpu time    0.0013: real time    0.0013


--------------------------------------- Iteration      1(   1)  ---------------------------------------


    POTLOK:  cpu time    0.0429: real time    0.0434
    SETDIJ:  cpu time    0.0048: real time    0.0048
     EDDAV:  cpu time    7.0934: real time    7.0968
 BZINTS: Fermi energy:   11.445833;  398.000000 electrons
         Band energy: 0.154003E+04;  BLOECHL correction:   -0.004567
       DOS:  cpu time    0.0097: real time    0.0097
    --------------------------------------------
      LOOP:  cpu time    7.1508: real time    7.1548

 eigenvalue-minimisations  :  5040
 total energy-change (2. order) : 0.2638315E+04  (-0.1808919E+05)
 number of electron     397.9999956 magnetization 
 augmentation part      397.9999956 magnetization 

 Free energy of the ion-electron system (eV)
  ---------------------------------------------------
  alpha Z        PSCENC =      1029.68148396
  Ewald energy   TEWEN  =     96511.89989896
  -Hartree energ DENC   =   -130820.08475718
  -exchange      EXHF   =         0.00000000
  -V(xc)+E(xc)   XCENC  =       505.20345240
  PAW double counting   =     36305.36757404   -35528.79566284
  entropy T*S    EENTRO =         0.00000000
  eigenvalues    EBANDS =      1540.02514640
  atomic energy  EATOM  =     33095.01807724
  Solvation  Ediel_sol  =         0.00000000
  ---------------------------------------------------
  free energy    TOTEN  =      2638.31521297 eV

  energy without entropy =     2638.31521297  energy(sigma->0) =     2638.31521297


--------------------------------------------------------------------------------------------------------




--------------------------------------- Iteration      1(   2)  ---------------------------------------


     EDDAV:  cpu time    7.7142: real time    7.7167
 BZINTS: Fermi energy:    1.437967;  398.000000 electrons
         Band energy:-0.108822E+04;  BLOECHL correction:   -0.070049
       DOS:  cpu time    0.0099: real time    0.0099
    --------------------------------------------
      LOOP:  cpu time    7.7241: real time    7.7266

 eigenvalue-minimisations  :  5628
 total energy-change (2. order) :-0.2628246E+04  (-0.2430095E+04)
 number of electron     397.9999956 magnetization 
 augmentation part      397.9999956 magnetization 

 Free energy of the ion-electron system (eV)
  ---------------------------------------------------
  alpha Z        PSCENC =      1029.68148396
  Ewald energy   TEWEN  =     96511.89989896
  -Hartree energ DENC   =   -130820.08475718
  -exchange      EXHF   =         0.00000000
  -V(xc)+E(xc)   XCENC  =       505.20345240
  PAW double counting   =     36305.36757404   -35528.79566284
  entropy T*S    EENTRO =         0.00000000
  eigenvalues    EBANDS =     -1088.22119212
  atomic energy  EATOM  =     33095.01807724
  Solvation  Ediel_sol  =         0.00000000
  ---------------------------------------------------
  free energy    TOTEN  =        10.06887445 eV

  energy without entropy =       10.06887445  energy(sigma->0) =       10.06887445


--------------------------------------------------------------------------------------------------------




--------------------------------------- Iteration      1(   3)  ---------------------------------------


     EDDAV:  cpu time    8.0464: real time    8.0488
 BZINTS: Fermi energy:    0.720150;  398.000000 electrons
         Band energy:-0.121892E+04;  BLOECHL correction:   -0.091267
       DOS:  cpu time    0.0099: real time    0.0099
    --------------------------------------------
      LOOP:  cpu time    8.0563: real time    8.0587

 eigenvalue-minimisations  :  5908
 total energy-change (2. order) :-0.1306982E+03  (-0.1262910E+03)
 number of electron     397.9999956 magnetization 
 augmentation part      397.9999956 magnetization 

 Free energy of the ion-electron system (eV)
  ---------------------------------------------------
  alpha Z        PSCENC =      1029.68148396
  Ewald energy   TEWEN  =     96511.89989896
  -Hartree energ DENC   =   -130820.08475718
  -exchange      EXHF   =         0.00000000
  -V(xc)+E(xc)   XCENC  =       505.20345240
  PAW double counting   =     36305.36757404   -35528.79566284
  entropy T*S    EENTRO =         0.00000000
  eigenvalues    EBANDS =     -1218.91939444
  atomic energy  EATOM  =     33095.01807724
  Solvation  Ediel_sol  =         0.00000000
  ---------------------------------------------------
  free energy    TOTEN  =      -120.62932787 eV

  energy without entropy =     -120.62932787  energy(sigma->0) =     -120.62932787


--------------------------------------------------------------------------------------------------------




--------------------------------------- Iteration      1(   4)  ---------------------------------------


     EDDAV:  cpu time    7.6352: real time    7.6373
 BZINTS: Fermi energy:    0.705179;  398.000000 electrons
         Band energy:-0.122161E+04;  BLOECHL correction:   -0.089933
       DOS:  cpu time    0.0101: real time    0.0101
    --------------------------------------------
      LOOP:  cpu time    7.6453: real time    7.6474

 eigenvalue-minimisations  :  5544
 total energy-change (2. order) :-0.2687138E+01  (-0.2680523E+01)
 number of electron     397.9999956 magnetization 
 augmentation part      397.9999956 magnetization 

 Free energy of the ion-electron system (eV)
  ---------------------------------------------------
  alpha Z        PSCENC =      1029.68148396
  Ewald energy   TEWEN  =     96511.89989896
  -Hartree energ DENC   =   -130820.08475718
  -exchange      EXHF   =         0.00000000
  -V(xc)+E(xc)   XCENC  =       505.20345240
  PAW double counting   =     36305.36757404   -35528.79566284
  entropy T*S    EENTRO =         0.00000000
  eigenvalues    EBANDS =     -1221.60653281
  atomic energy  EATOM  =     33095.01807724
  Solvation  Ediel_sol  =         0.00000000
  ---------------------------------------------------
  free energy    TOTEN  =      -123.31646623 eV

  energy without entropy =     -123.31646623  energy(sigma->0) =     -123.31646623


--------------------------------------------------------------------------------------------------------




--------------------------------------- Iteration      1(   5)  ---------------------------------------


     EDDAV:  cpu time    8.5235: real time    8.5264
 BZINTS: Fermi energy:    0.704861;  398.000000 electrons
         Band energy:-0.122170E+04;  BLOECHL correction:   -0.089900
       DOS:  cpu time    0.0099: real time    0.0099
    --------------------------------------------
      LOOP:  cpu time    8.5333: real time    8.5363

 eigenvalue-minimisations  :  6328
 total energy-change (2. order) :-0.8903918E-01  (-0.8904410E-01)
 number of electron     397.9999956 magnetization 
 augmentation part      397.9999956 magnetization 

 Free energy of the ion-electron system (eV)
  ---------------------------------------------------
  alpha Z        PSCENC =      1029.68148396
  Ewald energy   TEWEN  =     96511.89989896
  -Hartree energ DENC   =   -130820.08475718
  -exchange      EXHF   =         0.00000000
  -V(xc)+E(xc)   XCENC  =       505.20345240
  PAW double counting   =     36305.36757404   -35528.79566284
  entropy T*S    EENTRO =         0.00000000
  eigenvalues    EBANDS =     -1221.69557198
  atomic energy  EATOM  =     33095.01807724
  Solvation  Ediel_sol  =         0.00000000
  ---------------------------------------------------
  free energy    TOTEN  =      -123.40550541 eV

  energy without entropy =     -123.40550541  energy(sigma->0) =     -123.40550541


--------------------------------------------------------------------------------------------------------




--------------------------------------- Iteration      1(   6)  ---------------------------------------


    EDDIAG:  cpu time    1.3979: real time    1.3983
  RMM-DIIS:  cpu time    4.0254: real time    4.0267
    ORTHCH:  cpu time    0.2605: real time    0.2608
 BZINTS: Fermi energy:    0.704860;  398.000000 electrons
         Band energy:-0.122170E+04;  BLOECHL correction:   -0.089900
       DOS:  cpu time    0.0096: real time    0.0096
    --------------------------------------------
      LOOP:  cpu time    5.6935: real time    5.6954

 eigenvalue-minimisations  :  5139
 total energy-change (2. order) :-0.1792123E-02  (-0.1791810E-02)
 number of electron     397.9999956 magnetization 
 augmentation part      397.9999956 magnetization 

 Free energy of the ion-electron system (eV)
  ---------------------------------------------------
  alpha Z        PSCENC =      1029.68148396
  Ewald energy   TEWEN  =     96511.89989896
  -Hartree energ DENC   =   -130820.08475718
  -exchange      EXHF   =         0.00000000
  -V(xc)+E(xc)   XCENC  =       505.20345240
  PAW double counting   =     36305.36757404   -35528.79566284
  entropy T*S    EENTRO =         0.00000000
  eigenvalues    EBANDS =     -1221.69736411
  atomic energy  EATOM  =     33095.01807724
  Solvation  Ediel_sol  =         0.00000000
  ---------------------------------------------------
  free energy    TOTEN  =      -123.40729753 eV

  energy without entropy =     -123.40729753  energy(sigma->0) =     -123.40729753


--------------------------------------------------------------------------------------------------------




--------------------------------------- Iteration      1(   7)  ---------------------------------------


    EDDIAG:  cpu time    1.3978: real time    1.3982
  RMM-DIIS:  cpu time    5.2017: real time    5.2032
    ORTHCH:  cpu time    0.2610: real time    0.2612
 BZINTS: Fermi energy:    0.704860;  398.000000 electrons
         Band energy:-0.122170E+04;  BLOECHL correction:   -0.089901
       DOS:  cpu time    0.0098: real time    0.0098
    --------------------------------------------
      LOOP:  cpu time    6.8703: real time    6.8725

 eigenvalue-minimisations  :  6712
 total energy-change (2. order) :-0.5562521E-03  (-0.5529646E-03)
 number of electron     397.9999956 magnetization 
 augmentation part      397.9999956 magnetization 

 Free energy of the ion-electron system (eV)
  ---------------------------------------------------
  alpha Z        PSCENC =      1029.68148396
  Ewald energy   TEWEN  =     96511.89989896
  -Hartree energ DENC   =   -130820.08475718
  -exchange      EXHF   =         0.00000000
  -V(xc)+E(xc)   XCENC  =       505.20345240
  PAW double counting   =     36305.36757404   -35528.79566284
  entropy T*S    EENTRO =         0.00000000
  eigenvalues    EBANDS =     -1221.69792036
  atomic energy  EATOM  =     33095.01807724
  Solvation  Ediel_sol  =         0.00000000
  ---------------------------------------------------
  free energy    TOTEN  =      -123.40785379 eV

  energy without entropy =     -123.40785379  energy(sigma->0) =     -123.40785379


--------------------------------------------------------------------------------------------------------




--------------------------------------- Iteration      1(   8)  ---------------------------------------


    EDDIAG:  cpu time    1.4007: real time    1.4011
  RMM-DIIS:  cpu time    4.6314: real time    4.6329
    ORTHCH:  cpu time    0.2607: real time    0.2607
 BZINTS: Fermi energy:    0.704860;  398.000000 electrons
         Band energy:-0.122170E+04;  BLOECHL correction:   -0.089901
       DOS:  cpu time    0.0099: real time    0.0099
    --------------------------------------------
      LOOP:  cpu time    6.3027: real time    6.3045

 eigenvalue-minimisations  :  5920
 total energy-change (2. order) :-0.5579670E-04  (-0.5512557E-04)
 number of electron     397.9999956 magnetization 
 augmentation part      397.9999956 magnetization 

 Free energy of the ion-electron system (eV)
  ---------------------------------------------------
  alpha Z        PSCENC =      1029.68148396
  Ewald energy   TEWEN  =     96511.89989896
  -Hartree energ DENC   =   -130820.08475718
  -exchange      EXHF   =         0.00000000
  -V(xc)+E(xc)   XCENC  =       505.20345240
  PAW double counting   =     36305.36757404   -35528.79566284
  entropy T*S    EENTRO =         0.00000000
  eigenvalues    EBANDS =     -1221.69797616
  atomic energy  EATOM  =     33095.01807724
  Solvation  Ediel_sol  =         0.00000000
  ---------------------------------------------------
  free energy    TOTEN  =      -123.40790958 eV

  energy without entropy =     -123.40790958  energy(sigma->0) =     -123.40790958


--------------------------------------------------------------------------------------------------------




--------------------------------------- Iteration      1(   9)  ---------------------------------------


    EDDIAG:  cpu time    1.3990: real time    1.3994
  RMM-DIIS:  cpu time    3.1169: real time    3.1179
    ORTHCH:  cpu time    0.2608: real time    0.2611
 BZINTS: Fermi energy:    0.704860;  398.000000 electrons
         Band energy:-0.122170E+04;  BLOECHL correction:   -0.089901
       DOS:  cpu time    0.0097: real time    0.0097
    --------------------------------------------
      LOOP:  cpu time    4.7864: real time    4.7881

 eigenvalue-minimisations  :  3473
 total energy-change (2. order) :-0.4633301E-05  (-0.4484464E-05)
 number of electron     397.9999956 magnetization 
 augmentation part      397.9999956 magnetization 

 Free energy of the ion-electron system (eV)
  ---------------------------------------------------
  alpha Z        PSCENC =      1029.68148396
  Ewald energy   TEWEN  =     96511.89989896
  -Hartree energ DENC   =   -130820.08475718
  -exchange      EXHF   =         0.00000000
  -V(xc)+E(xc)   XCENC  =       505.20345240
  PAW double counting   =     36305.36757404   -35528.79566284
  entropy T*S    EENTRO =         0.00000000
  eigenvalues    EBANDS =     -1221.69798079
  atomic energy  EATOM  =     33095.01807724
  Solvation  Ediel_sol  =         0.00000000
  ---------------------------------------------------
  free energy    TOTEN  =      -123.40791422 eV

  energy without entropy =     -123.40791422  energy(sigma->0) =     -123.40791422


--------------------------------------------------------------------------------------------------------




 average (electrostatic) potential at core
  the test charge radii are     1.2098  1.1957  0.7089
  (the norm of the test charge is              1.0000)
       1 -72.3260       2 -72.3090       3 -72.3089       4 -72.3090       5 -72.3044
       6 -72.3087       7 -72.3089       8 -72.3087       9 -72.3129      10 -72.6672
      11 -72.6480      12 -72.6670      13 -72.6480      14 -72.6477      15 -72.6552
      16 -72.6670      17 -72.6552      18 -72.6554      19 -72.5786      20 -72.8715
      21 -72.8713      22 -72.6361      23 -72.8713      24 -72.6357      25 -72.5788
      26 -72.5786      27 -72.6361      28 -72.2011      29 -72.2848      30 -72.2848
      31 -72.2848      32 -72.2846      33 -72.2848      34 -72.2846      35 -72.1572
      36 -52.0683      37 -69.3169
 
 
 
 E-fermi :   0.7049     XC(G=0):  -6.1308     alpha+bet : -5.7677

 Fermi energy:         0.7048602119

 k-point     1 :       0.0000    0.0000    0.0000
  band No.  band energies     occupation 
      1     -13.8827      2.00000
      2      -8.1298      2.00000
      3      -6.9612      2.00000
      4      -6.0636      2.00000
      5      -6.0188      2.00000
      6      -6.0188      2.00000
      7      -5.9851      2.00000
      8      -5.9667      2.00000
      9      -5.9244      2.00000
     10      -5.9173      2.00000
     11      -5.9172      2.00000
     12      -5.5267      2.00000
     13      -5.5204      2.00000
     14      -5.5204      2.00000
     15      -5.4948      2.00000
     16      -5.4351      2.00000
     17      -5.4351      2.00000
     18      -5.1368      2.00000
     19      -5.1306      2.00000
     20      -5.1305      2.00000
     21      -5.1064      2.00000
     22      -5.0650      2.00000
     23      -5.0650      2.00000
     24      -4.9982      2.00000
     25      -4.9739      2.00000
     26      -4.9739      2.00000
     27      -4.9195      2.00000
     28      -4.9194      2.00000
     29      -4.8893      2.00000
     30      -4.7951      2.00000
     31      -4.7951      2.00000
     32      -4.7591      2.00000
     33      -4.7591      2.00000
     34      -4.7563      2.00000
     35      -4.7290      2.00000
     36      -4.7276      2.00000
     37      -4.7276      2.00000
     38      -4.7167      2.00000
     39      -4.7118      2.00000
     40      -4.6735      2.00000
     41      -4.6735      2.00000
     42      -4.4964      2.00000
     43      -4.4964      2.00000
     44      -4.3241      2.00000
     45      -4.2305      2.00000
     46      -4.2305      2.00000
     47      -4.1722      2.00000
     48      -4.1674      2.00000
     49      -4.1673      2.00000
     50      -4.1609      2.00000
     51      -4.1609      2.00000
     52      -4.1069      2.00000
     53      -4.0717      2.00000
     54      -4.0696      2.00000
     55      -4.0088      2.00000
     56      -3.9922      2.00000
     57      -3.9922      2.00000
     58      -3.7083      2.00000
     59      -3.6607      2.00000
     60      -3.6430      2.00000
     61      -3.6430      2.00000
     62      -3.6422      2.00000
     63      -3.6029      2.00000
     64      -3.6028      2.00000
     65      -3.5869      2.00000
     66      -3.5869      2.00000
     67      -3.5444      2.00000
     68      -3.5299      2.00000
     69      -3.5299      2.00000
     70      -3.4805      2.00000
     71      -3.4733      2.00000
     72      -3.4732      2.00000
     73      -3.4211      2.00000
     74      -3.4211      2.00000
     75      -3.4151      2.00000
     76      -3.3828      2.00000
     77      -3.3766      2.00000
     78      -3.3766      2.00000
     79      -3.3731      2.00000
     80      -3.3731      2.00000
     81      -3.3719      2.00000
     82      -3.3683      2.00000
     83      -3.3683      2.00000
     84      -3.3168      2.00000
     85      -3.3096      2.00000
     86      -3.3096      2.00000
     87      -3.2800      2.00000
     88      -3.2800      2.00000
     89      -3.2301      2.00000
     90      -3.2301      2.00000
     91      -3.2058      2.00000
     92      -3.1448      2.00000
     93      -3.1448      2.00000
     94      -3.0351      2.00000
     95      -3.0350      2.00000
     96      -2.9870      2.00000
     97      -2.9516      2.00000
     98      -2.9516      2.00000
     99      -2.9451      2.00000
    100      -2.9451      2.00000
    101      -2.7930      2.00000
    102      -2.7929      2.00000
    103      -2.7795      2.00000
    104      -2.7757      2.00000
    105      -2.7757      2.00000
    106      -2.6823      2.00000
    107      -2.6666      2.00000
    108      -2.6666      2.00000
    109      -2.6228      2.00000
    110      -2.6228      2.00000
    111      -2.5962      2.00000
    112      -2.5470      2.00000
    113      -2.5470      2.00000
    114      -2.5134      2.00000
    115      -2.4817      2.00000
    116      -2.4767      2.00000
    117      -2.4398      2.00000
    118      -2.4397      2.00000
    119      -2.4096      2.00000
    120      -2.3071      2.00000
    121      -2.2724      2.00000
    122      -2.2724      2.00000
    123      -2.2190      2.00000
    124      -2.2190      2.00000
    125      -2.2150      2.00000
    126      -2.1900      2.00000
    127      -2.1900      2.00000
    128      -2.1852      2.00000
    129      -2.1852      2.00000
    130      -2.1348      2.00000
    131      -2.1348      2.00000
    132      -2.0485      2.00000
    133      -2.0266      2.00000
    134      -2.0266      2.00000
    135      -2.0007      2.00000
    136      -2.0007      2.00000
    137      -1.9932      2.00000
    138      -1.9813      2.00000
    139      -1.9813      2.00000
    140      -1.9770      2.00000
    141      -1.9096      2.00000
    142      -1.9096      2.00000
    143      -1.8839      2.00000
    144      -1.7965      2.00000
    145      -1.7965      2.00000
    146      -1.7739      2.00000
    147      -1.7739      2.00000
    148      -1.7675      2.00000
    149      -1.7485      2.00000
    150      -1.7298      2.00000
    151      -1.7297      2.00000
    152      -1.6948      2.00000
    153      -1.6947      2.00000
    154      -1.6815      2.00000
    155      -1.6751      2.00000
    156      -1.6474      2.00000
    157      -1.6473      2.00000
    158      -1.6002      2.00000
    159      -1.5632      2.00000
    160      -1.5536      2.00000
    161      -1.5494      2.00000
    162      -1.5494      2.00000
    163      -1.5247      2.00000
    164      -1.5247      2.00000
    165      -1.5144      2.00000
    166      -1.4985      2.00000
    167      -1.4984      2.00000
    168      -1.4748      2.00000
    169      -1.4748      2.00000
    170      -1.4548      2.00000
    171      -1.4547      2.00000
    172      -1.4497      2.00000
    173      -1.4386      2.00000
    174      -1.4283      2.00000
    175      -1.4164      2.00000
    176      -1.4133      2.00000
    177      -1.4133      2.00000
    178      -1.3882      2.00000
    179      -1.3848      2.00000
    180      -1.3848      2.00000
    181      -1.3636      2.00000
    182      -1.3481      2.00000
    183      -1.3481      2.00000
    184      -1.3337      2.00000
    185      -1.3337      2.00000
    186      -1.3115      2.00000
    187      -1.2034      2.00000
    188      -1.2034      2.00000
    189      -1.1544      2.00000
    190      -1.1543      2.00000
    191      -1.1461      2.00000
    192      -1.1170      2.00000
    193      -1.1169      2.00000
    194      -1.0973      2.00000
    195      -0.2762      2.00000
    196      -0.0456      2.00000
    197      -0.0029      2.00000
    198      -0.0029      2.00000
    199       0.1552      2.00000
    200       0.2124      2.00000
    201       0.2125      2.00000
    202       0.2237      2.00000
    203       0.2237      2.00000
    204       1.1498      0.00000
    205       1.8948      0.00000
    206       1.8948      0.00000
    207       1.9467      0.00000
    208       2.2652      0.00000
    209       2.3155      0.00000
    210       2.3155      0.00000
    211       2.4550      0.00000
    212       2.4550      0.00000
    213       3.5095      0.00000
    214       3.5095      0.00000
    215       3.5384      0.00000
    216       3.6150      0.00000
    217       3.6844      0.00000
    218       3.6844      0.00000
    219       4.0706      0.00000
    220       4.1167      0.00000
    221       4.8689      0.00000
    222       5.3513      0.00000
    223       5.3513      0.00000
    224       5.3560      0.00000
    225       5.3997      0.00000
    226       5.3998      0.00000
    227       5.4795      0.00000
    228       5.5909      0.00000
    229       5.5909      0.00000
    230       5.6633      0.00000
    231       5.6633      0.00000
    232       5.7958      0.00000
    233       5.8418      0.00000
    234       6.1489      0.00000
    235       6.9622      0.00000
    236       6.9792      0.00000
    237       7.0360      0.00000
    238       7.0365      0.00000
    239       7.0803      0.00000
    240       7.1110      0.00000
    241       7.1119      0.00000
    242       7.1866      0.00000
    243       7.2100      0.00000
    244       7.2146      0.00000
    245       7.2761      0.00000
    246       7.2834      0.00000
    247       7.3060      0.00000
    248       7.4646      0.00000
    249       7.4696      0.00000
    250       7.4944      0.00000
    251       7.6119      0.00000
    252       7.6835      0.00000

 k-point     2 :       0.1250   -0.0000    0.0000
  band No.  band energies     occupation 
      1     -13.8826      2.00000
      2      -8.0791      2.00000
      3      -6.9120      2.00000
      4      -6.2391      2.00000
      5      -6.0639      2.00000
      6      -6.0556      2.00000
      7      -5.9482      2.00000
      8      -5.9225      2.00000
      9      -5.8725      2.00000
     10      -5.8426      2.00000
     11      -5.8281      2.00000
     12      -5.5473      2.00000
     13      -5.5313      2.00000
     14      -5.4985      2.00000
     15      -5.4747      2.00000
     16      -5.4417      2.00000
     17      -5.4114      2.00000
     18      -5.1872      2.00000
     19      -5.1355      2.00000
     20      -5.1287      2.00000
     21      -5.0844      2.00000
     22      -5.0466      2.00000
     23      -5.0437      2.00000
     24      -5.0146      2.00000
     25      -4.9717      2.00000
     26      -4.9652      2.00000
     27      -4.9150      2.00000
     28      -4.9119      2.00000
     29      -4.8686      2.00000
     30      -4.8283      2.00000
     31      -4.8245      2.00000
     32      -4.7923      2.00000
     33      -4.7918      2.00000
     34      -4.7720      2.00000
     35      -4.7421      2.00000
     36      -4.7173      2.00000
     37      -4.6728      2.00000
     38      -4.6703      2.00000
     39      -4.6344      2.00000
     40      -4.6185      2.00000
     41      -4.6127      2.00000
     42      -4.5169      2.00000
     43      -4.4875      2.00000
     44      -4.3420      2.00000
     45      -4.2935      2.00000
     46      -4.2770      2.00000
     47      -4.2410      2.00000
     48      -4.2024      2.00000
     49      -4.1633      2.00000
     50      -4.1527      2.00000
     51      -4.1310      2.00000
     52      -4.0835      2.00000
     53      -4.0501      2.00000
     54      -4.0264      2.00000
     55      -4.0038      2.00000
     56      -3.9800      2.00000
     57      -3.9772      2.00000
     58      -3.7332      2.00000
     59      -3.7110      2.00000
     60      -3.6855      2.00000
     61      -3.6626      2.00000
     62      -3.6567      2.00000
     63      -3.6456      2.00000
     64      -3.6299      2.00000
     65      -3.6297      2.00000
     66      -3.6182      2.00000
     67      -3.5854      2.00000
     68      -3.5740      2.00000
     69      -3.5467      2.00000
     70      -3.5298      2.00000
     71      -3.5076      2.00000
     72      -3.5064      2.00000
     73      -3.4866      2.00000
     74      -3.4834      2.00000
     75      -3.4407      2.00000
     76      -3.4319      2.00000
     77      -3.4242      2.00000
     78      -3.4083      2.00000
     79      -3.4051      2.00000
     80      -3.3609      2.00000
     81      -3.3576      2.00000
     82      -3.3348      2.00000
     83      -3.3176      2.00000
     84      -3.3080      2.00000
     85      -3.2751      2.00000
     86      -3.2721      2.00000
     87      -3.2371      2.00000
     88      -3.2153      2.00000
     89      -3.2151      2.00000
     90      -3.1698      2.00000
     91      -3.1658      2.00000
     92      -3.1251      2.00000
     93      -3.1169      2.00000
     94      -3.0577      2.00000
     95      -3.0563      2.00000
     96      -3.0325      2.00000
     97      -3.0079      2.00000
     98      -3.0003      2.00000
     99      -2.9081      2.00000
    100      -2.8910      2.00000
    101      -2.8326      2.00000
    102      -2.8204      2.00000
    103      -2.8123      2.00000
    104      -2.7947      2.00000
    105      -2.7785      2.00000
    106      -2.7471      2.00000
    107      -2.7198      2.00000
    108      -2.6553      2.00000
    109      -2.6187      2.00000
    110      -2.6153      2.00000
    111      -2.6015      2.00000
    112      -2.5862      2.00000
    113      -2.5691      2.00000
    114      -2.5592      2.00000
    115      -2.5449      2.00000
    116      -2.5345      2.00000
    117      -2.5017      2.00000
    118      -2.4944      2.00000
    119      -2.4826      2.00000
    120      -2.4504      2.00000
    121      -2.4217      2.00000
    122      -2.3789      2.00000
    123      -2.3588      2.00000
    124      -2.2711      2.00000
    125      -2.2522      2.00000
    126      -2.2444      2.00000
    127      -2.1981      2.00000
    128      -2.1877      2.00000
    129      -2.1657      2.00000
    130      -2.1573      2.00000
    131      -2.1491      2.00000
    132      -2.1481      2.00000
    133      -2.1423      2.00000
    134      -2.1157      2.00000
    135      -2.0906      2.00000
    136      -2.0220      2.00000
    137      -2.0150      2.00000
    138      -1.9982      2.00000
    139      -1.9699      2.00000
    140      -1.9554      2.00000
    141      -1.9413      2.00000
    142      -1.9228      2.00000
    143      -1.9227      2.00000
    144      -1.9085      2.00000
    145      -1.8477      2.00000
    146      -1.8404      2.00000
    147      -1.7777      2.00000
    148      -1.7677      2.00000
    149      -1.7460      2.00000
    150      -1.7245      2.00000
    151      -1.7067      2.00000
    152      -1.6954      2.00000
    153      -1.6917      2.00000
    154      -1.6575      2.00000
[...]
  0.000   0.000   0.000   0.000   0.000   0.000   0.000   0.000   0.000   0.000   0.000   0.000   0.000   0.000   0.000   0.000
  0.000   0.000   0.000   0.000   0.000   0.000   0.000   0.000   0.000   0.000   0.000   0.000   0.000   0.000   0.000   0.000
  0.000   0.000   0.000   0.000   0.000   0.000   0.000   0.000   0.000   0.000   0.000   0.000   0.000   0.000   0.000   0.000
  0.000   0.000   0.000   0.000   0.000   0.000   0.000   0.000   0.000   0.000   0.000   0.000   0.000   0.000   0.000   0.000
  0.000   0.000   0.000   0.000   0.000   0.000   0.000   0.000   0.000   0.000   0.000   0.000   0.000   0.000   0.000   0.000
  0.000   0.000   0.000   0.000   0.000   0.000   0.000   0.000   0.000   0.000   1.000   0.000   0.000   0.000   0.000   0.000
  0.000   0.000   0.000   0.000   0.000   0.000   0.000   0.000   0.000   0.000   0.000   0.000   0.000   0.000   0.000   0.000
  0.000   0.000   0.000   0.000   0.000   0.000   0.000   0.000   0.000   0.000   0.000   0.000   0.000   0.000   0.000   0.000
  0.000   0.000   0.000   0.000   0.000   0.000   0.000   0.000   0.000   0.000   0.000   0.000   0.000   0.000   0.000   0.000
  0.000   0.000   0.000   0.000   0.000   0.000   0.000   0.000   0.000   0.000   0.000   0.000   0.000   0.000   0.000   0.000
  0.000   0.000   0.000   0.000   0.000   0.000   0.000   0.000   0.000   0.000   0.000   0.000   0.000   0.000   0.000   0.000
  0.000   0.000   0.000   0.000   0.000   0.000   0.000   0.000   0.000   0.000   0.000   0.000   0.000   0.000   0.000   0.000
  0.000   0.000   0.000   0.000   0.000   0.000   0.000   0.000   0.000   0.000   0.000   0.000   0.000   0.000   0.000   0.000


------------------------ aborting loop because EDIFF is reached ----------------------------------------





 total charge

# of ion       s       p       d       tot
------------------------------------------
    1        0.548   0.239   8.766   9.553
    2        0.543   0.241   8.765   9.548
    3        0.543   0.241   8.765   9.548
    4        0.543   0.241   8.765   9.548
    5        0.545   0.240   8.763   9.549
    6        0.543   0.241   8.765   9.548
    7        0.543   0.241   8.765   9.548
    8        0.543   0.241   8.765   9.548
    9        0.542   0.241   8.766   9.548
   10        0.521   0.307   8.771   9.600
   11        0.518   0.311   8.776   9.605
   12        0.521   0.307   8.771   9.600
   13        0.518   0.311   8.776   9.605
   14        0.518   0.311   8.776   9.605
   15        0.515   0.309   8.772   9.596
   16        0.521   0.307   8.771   9.600
   17        0.515   0.309   8.772   9.596
   18        0.515   0.309   8.772   9.596
   19        0.518   0.298   8.777   9.593
   20        0.553   0.338   8.746   9.637
   21        0.553   0.338   8.746   9.637
   22        0.509   0.310   8.774   9.593
   23        0.553   0.338   8.746   9.637
   24        0.509   0.310   8.774   9.593
   25        0.518   0.298   8.777   9.593
   26        0.518   0.298   8.777   9.593
   27        0.509   0.310   8.774   9.593
   28        0.542   0.225   8.769   9.536
   29        0.540   0.247   8.766   9.553
   30        0.540   0.247   8.766   9.553
   31        0.540   0.247   8.766   9.553
   32        0.540   0.247   8.766   9.553
   33        0.540   0.247   8.766   9.553
   34        0.540   0.247   8.766   9.553
   35        0.537   0.224   8.772   9.533
   36        0.653   0.658   6.128   7.438
   37        1.358   2.199   0.000   3.557
--------------------------------------------------
tot         20.620  12.578 312.997 346.195
 
    CHARGE:  cpu time    0.3372: real time    0.3373
    FORLOC:  cpu time    0.0101: real time    0.0101
    FORNL :  cpu time    1.4485: real time    1.4490
    STRESS:  cpu time    4.3417: real time    4.3435
    FORCOR:  cpu time    0.0436: real time    0.0437
    FORHAR:  cpu time    0.0165: real time    0.0166
    OFIELD:  cpu time    0.0002: real time    0.0002

  FORCE on cell =-STRESS in cart. coord.  units (eV):
  Direction    XX          YY          ZZ          XY          YZ          ZX
  --------------------------------------------------------------------------------------
  Alpha Z  1029.68148  1029.68148  1029.68148
  Ewald  119176.69522119176.69564************    -0.00032    -0.00009    -0.00013
  Hartree127858.28454127858.28455************     0.00001    -0.00002    -0.00004
  E(xc)   -1785.42984 -1785.42983 -1792.36377    -0.00001     0.00000     0.00000
  Local  ************************259567.09985     0.00192     0.00002     0.00002
  n-local  -111.57250   -62.81657   -58.11546    24.55040    -1.45523     1.53403
  augment  2385.61408  2385.61560  2395.13627    -0.00132    -0.00000     0.00005
  Kinetic  5561.47681  5571.19269  5584.72836     5.68088     0.19129     0.28683
  Fock        0.00000     0.00000     0.00000     0.00000     0.00000     0.00000
  -------------------------------------------------------------------------------------
  Total     -17.61382   -17.61382     1.84651    -0.00000     0.00000     0.00000
  in kB     -18.89978   -18.89978     1.98132    -0.00000     0.00000     0.00000
  external pressure =      -11.94 kB  Pullay stress =        0.00 kB


 VOLUME and BASIS-vectors are now :
 -----------------------------------------------------------------------------
  energy-cutoff  :      500.00
  volume of cell :     1493.16
      direct lattice vectors                 reciprocal lattice vectors
     8.813512802  0.000000000  0.000000000     0.113462137 -0.065507406  0.000000000
     4.406756909  7.632725690  0.000000000     0.000000000  0.131014796  0.000000000
     0.000000000  0.000000000 22.196203232     0.000000000  0.000000000  0.045052750

  length of vectors
     8.813512802  8.813512802 22.196203232     0.131014796  0.131014796  0.045052750


 FORCES acting on ions
    electron-ion (+dipol)            ewald-force                    non-local-force                 convergence-correction
 -----------------------------------------------------------------------------------------------
   -.196E-04 -.162E-04 0.248E+04   0.520E-04 0.434E-04 -.248E+04   -.366E-17 -.355E-18 -.654E+00   -.202E-03 -.131E-03 -.324E+00
   0.666E+00 0.305E+00 0.249E+04   -.771E+00 -.382E+00 -.249E+04   0.103E-01 0.630E-01 -.360E+00   0.957E-01 0.182E-01 -.340E+00
   -.666E+00 0.305E+00 0.249E+04   0.771E+00 -.382E+00 -.249E+04   -.103E-01 0.630E-01 -.360E+00   -.954E-01 0.202E-01 -.340E+00
   0.597E+00 0.424E+00 0.249E+04   -.716E+00 -.476E+00 -.249E+04   0.597E-01 -.226E-01 -.360E+00   0.637E-01 0.737E-01 -.340E+00
   0.868E-05 -.233E-04 0.249E+04   0.951E-04 0.175E-05 -.249E+04   -.622E-18 -.874E-18 -.284E+00   0.430E-02 0.262E-02 -.334E+00
   -.597E+00 0.424E+00 0.249E+04   0.716E+00 -.476E+00 -.249E+04   -.597E-01 -.226E-01 -.360E+00   -.653E-01 0.747E-01 -.339E+00
   -.691E-01 -.729E+00 0.249E+04   0.545E-01 0.858E+00 -.249E+04   0.495E-01 -.404E-01 -.360E+00   -.302E-01 -.928E-01 -.340E+00
   0.691E-01 -.729E+00 0.249E+04   -.546E-01 0.858E+00 -.249E+04   -.495E-01 -.404E-01 -.360E+00   0.321E-01 -.938E-01 -.339E+00
   0.195E-04 -.416E-04 0.249E+04   0.166E-03 -.201E-04 -.249E+04   0.176E-17 -.171E-17 -.457E+00   -.464E-02 -.240E-02 -.270E+00
   0.763E+01 0.441E+01 0.837E+03   -.747E+01 -.431E+01 -.836E+03   -.293E+00 -.169E+00 -.497E+00   0.886E-01 0.511E-01 -.113E+00
   0.142E-04 0.480E+01 0.845E+03   0.148E-03 -.485E+01 -.844E+03   0.384E-08 0.577E-01 -.331E+00   0.380E-02 -.658E-01 -.699E-01
   -.763E+01 0.441E+01 0.837E+03   0.747E+01 -.431E+01 -.836E+03   0.293E+00 -.169E+00 -.497E+00   -.899E-01 0.525E-01 -.113E+00
   0.416E+01 -.240E+01 0.845E+03   -.420E+01 0.243E+01 -.844E+03   0.500E-01 -.289E-01 -.331E+00   -.548E-01 0.365E-01 -.699E-01
   -.416E+01 -.240E+01 0.845E+03   0.420E+01 0.243E+01 -.844E+03   -.500E-01 -.289E-01 -.331E+00   0.627E-01 0.360E-01 -.700E-01
   0.309E-04 0.473E+01 0.840E+03   0.236E-03 -.489E+01 -.840E+03   -.880E-09 -.132E-01 -.416E+00   -.241E-02 0.119E+00 -.111E+00
   -.214E-04 -.881E+01 0.837E+03   0.163E-03 0.863E+01 -.836E+03   0.225E-07 0.338E+00 -.497E+00   0.297E-03 -.104E+00 -.113E+00
   0.409E+01 -.236E+01 0.840E+03   -.424E+01 0.245E+01 -.840E+03   -.114E-01 0.661E-02 -.416E+00   0.102E+00 -.610E-01 -.111E+00
   -.409E+01 -.236E+01 0.840E+03   0.424E+01 0.245E+01 -.840E+03   0.114E-01 0.661E-02 -.416E+00   -.102E+00 -.591E-01 -.111E+00
   -.423E-04 0.439E+01 -.847E+03   0.537E-04 -.457E+01 0.846E+03   -.356E-08 -.535E-01 0.571E+00   -.527E-03 0.174E+00 0.182E+00
   0.123E+02 0.708E+01 -.796E+03   -.116E+02 -.668E+01 0.796E+03   -.885E+00 -.511E+00 -.565E+00   0.106E+00 0.609E-01 0.251E+00
   -.123E+02 0.708E+01 -.796E+03   0.116E+02 -.668E+01 0.796E+03   0.885E+00 -.511E+00 -.565E+00   -.105E+00 0.628E-01 0.250E+00
   -.249E+01 0.144E+01 -.827E+03   0.211E+01 -.122E+01 0.826E+03   0.438E+00 -.253E+00 0.703E+00   0.119E-02 -.512E-02 0.119E+00
   -.116E-04 -.142E+02 -.796E+03   0.142E-03 0.134E+02 0.796E+03   0.680E-07 0.102E+01 -.565E+00   0.175E-02 -.122E+00 0.250E+00
   0.249E+01 0.144E+01 -.827E+03   -.211E+01 -.122E+01 0.826E+03   -.438E+00 -.253E+00 0.703E+00   -.813E-02 -.464E-02 0.119E+00
   -.380E+01 -.220E+01 -.847E+03   0.395E+01 0.228E+01 0.846E+03   0.463E-01 0.267E-01 0.571E+00   -.149E+00 -.860E-01 0.182E+00
   0.380E+01 -.220E+01 -.847E+03   -.395E+01 0.228E+01 0.846E+03   -.463E-01 0.267E-01 0.571E+00   0.151E+00 -.875E-01 0.182E+00
   0.104E-04 -.288E+01 -.827E+03   0.199E-03 0.243E+01 0.826E+03   0.337E-07 0.506E+00 0.703E+00   -.439E-02 0.355E-02 0.119E+00
   -.127E-04 -.124E-04 -.246E+04   0.291E-04 0.335E-04 0.246E+04   -.134E-17 0.868E-19 0.552E+00   0.124E-03 0.535E-04 0.347E+00
   0.251E+02 0.442E+02 -.245E+04   -.251E+02 -.443E+02 0.245E+04   -.424E+00 -.573E+00 0.510E+00   0.115E+00 0.668E-01 0.253E+00
   -.251E+02 0.442E+02 -.245E+04   0.251E+02 -.443E+02 0.245E+04   0.424E+00 -.573E+00 0.510E+00   -.115E+00 0.688E-01 0.254E+00
   0.509E+02 -.378E+00 -.245E+04   -.509E+02 0.430E+00 0.245E+04   -.708E+00 -.810E-01 0.510E+00   0.115E+00 0.662E-01 0.253E+00
   -.509E+02 -.378E+00 -.245E+04   0.509E+02 0.430E+00 0.245E+04   0.708E+00 -.810E-01 0.510E+00   -.117E+00 0.673E-01 0.253E+00
   0.258E+02 -.439E+02 -.245E+04   -.258E+02 0.438E+02 0.245E+04   -.284E+00 0.654E+00 0.510E+00   0.214E-02 -.134E+00 0.254E+00
   -.258E+02 -.439E+02 -.245E+04   0.258E+02 0.438E+02 0.245E+04   0.284E+00 0.654E+00 0.510E+00   -.549E-04 -.135E+00 0.253E+00
   0.320E-04 -.289E-04 -.246E+04   0.143E-03 -.491E-04 0.246E+04   0.133E-16 0.317E-17 0.666E+00   -.476E-02 -.245E-02 0.253E+00
   0.539E-06 -.122E-04 -.152E+04   0.835E-04 0.756E-05 0.152E+04   0.247E-17 -.256E-17 0.217E+01   0.183E-02 0.111E-02 0.123E+00
   0.108E-03 -.606E-04 -.138E+04   0.218E-04 0.136E-05 0.141E+04   -.617E-18 0.637E-18 -.252E+02   0.172E-02 0.105E-02 -.149E+00
 -----------------------------------------------------------------------------------------------
   -.641E-03 -.822E-03 0.245E+02   -.801E-14 0.178E-12 -.455E-12   0.126E-15 -.332E-15 -.239E+02   0.824E-03 0.110E-02 -.983E-01
 
 
 POSITION                                       TOTAL-FORCE (eV/Angst)
 -----------------------------------------------------------------------------------
      0.00000      0.00000      5.28038        -0.000000      0.000000     -0.118038
      2.93784      0.00000      5.28038         0.001675      0.004954     -0.042523
      5.87568      0.00000      5.28038        -0.001675      0.004954     -0.042523
      1.46892      2.54424      5.28038         0.005128     -0.001026     -0.042523
      4.40676      2.54424      5.28038        -0.000000      0.000000     -0.074266
      7.34459      2.54424      5.28038        -0.005128     -0.001026     -0.042523
      2.93784      5.08848      5.28038         0.003452     -0.003928     -0.042523
      5.87568      5.08848      5.28038        -0.003452     -0.003928     -0.042523
      8.81351      5.08848      5.28038        -0.000000      0.000000     -0.058583
      1.46892      0.84808      7.67911        -0.042956     -0.024800      0.124725
      4.40676      0.84808      7.67911        -0.000000     -0.059522      0.022543
      7.34459      0.84808      7.67911         0.042956     -0.024800      0.124725
      2.93784      3.39232      7.67911        -0.051547      0.029761      0.022543
      5.87568      3.39232      7.67911         0.051547      0.029761      0.022543
      8.81351      3.39232      7.67911        -0.000000     -0.061556      0.106043
      4.40676      5.93656      7.67911         0.000000      0.049601      0.124725
      7.34459      5.93656      7.67911        -0.053309      0.030778      0.106043
     10.28243      5.93656      7.67911         0.053309      0.030778      0.106043
      8.81351      1.70311     10.09495        -0.000000     -0.053668     -0.047679
      2.93286      1.69329     10.03570        -0.084938     -0.049039     -0.152690
      5.88065      1.69329     10.03570         0.084938     -0.049039     -0.152690
     10.26497      4.25049     10.06286         0.056766     -0.032774      0.006077
      4.40676      4.24615     10.03570         0.000000      0.098078     -0.152690
      7.36206      4.25049     10.06286        -0.056766     -0.032774      0.006077
     11.74534      6.78117     10.09495         0.046478      0.026834     -0.047679
      5.88169      6.78117     10.09495        -0.046478      0.026834     -0.047679
      8.81351      6.76448     10.06286         0.000000      0.065548      0.006077
      0.00000      0.00000     12.49897        -0.000000      0.000000     -0.040391
      2.97514      0.06495     12.50272        -0.259343     -0.523632     -0.246406
      5.83837      0.06495     12.50272         0.259343     -0.523632     -0.246406
      1.54382      2.54408     12.50272        -0.583150      0.037218     -0.246406
      7.26969      2.54408     12.50272         0.583150      0.037218     -0.246406
      2.97543      5.02370     12.50272        -0.323807      0.486413     -0.246406
      5.83808      5.02370     12.50272         0.323807      0.486413     -0.246406
      8.81351      5.08848     12.49601        -0.000000      0.000000      0.017839
      4.40676      2.54424     12.21487        -0.000000      0.000000      1.864782
      4.40676      2.54424     13.90062        -0.000000      0.000000     -0.034824
 -----------------------------------------------------------------------------------
    total drift:                                0.000183      0.000283      0.527199


--------------------------------------------------------------------------------------------------------



  FREE ENERGIE OF THE ION-ELECTRON SYSTEM (eV)
  ---------------------------------------------------
  free  energy   TOTEN  =      -123.40791422 eV

  energy  without entropy=     -123.40791422  energy(sigma->0) =     -123.40791422
 


--------------------------------------------------------------------------------------------------------


    POTLOK:  cpu time    0.0417: real time    0.0417


--------------------------------------------------------------------------------------------------------


 stress matrix after NEB project (eV)
    -17.61382     -0.00000      0.00000
     -0.00000    -17.61382      0.00000
      0.00000      0.00000      1.84651
  FORCES: max atom, RMS     0.034824    0.005725
  FORCE total and by dimension    0.034824    0.034824
  Stress total and by dimension   24.978049   17.613821
     LOOP+:  cpu time   69.0494: real time   69.0850
 -----------------------------------------------------------------------------
|                                                                             |
|           W    W    AA    RRRRR   N    N  II  N    N   GGGG   !!!           |
|           W    W   A  A   R    R  NN   N  II  NN   N  G    G  !!!           |
|           W    W  A    A  R    R  N N  N  II  N N  N  G       !!!           |
|           W WW W  AAAAAA  RRRRR   N  N N  II  N  N N  G  GGG   !            |
|           WW  WW  A    A  R   R   N   NN  II  N   NN  G    G                |
|           W    W  A    A  R    R  N    N  II  N    N   GGGG   !!!           |
|                                                                             |
|     Tetrahedron method does not include variations of the Fermi             |
|     occupations, so forces and stress will be inaccurate. We suggest        |
|     using a different smearing scheme ISMEAR = 1 or 2 for metals in         |
|     relaxations.                                                            |
|                                                                             |
 -----------------------------------------------------------------------------

    4ORBIT:  cpu time    0.0000: real time    0.0000



 total charge

# of ion       s       p       d       tot
------------------------------------------
    1        0.548   0.239   8.766   9.553
    2        0.543   0.241   8.765   9.548
    3        0.543   0.241   8.765   9.548
    4        0.543   0.241   8.765   9.548
    5        0.545   0.240   8.763   9.549
    6        0.543   0.241   8.765   9.548
    7        0.543   0.241   8.765   9.548
    8        0.543   0.241   8.765   9.548
    9        0.542   0.241   8.766   9.548
   10        0.521   0.307   8.771   9.600
   11        0.518   0.311   8.776   9.605
   12        0.521   0.307   8.771   9.600
   13        0.518   0.311   8.776   9.605
   14        0.518   0.311   8.776   9.605
   15        0.515   0.309   8.772   9.596
   16        0.521   0.307   8.771   9.600
   17        0.515   0.309   8.772   9.596
   18        0.515   0.309   8.772   9.596
   19        0.518   0.298   8.777   9.593
   20        0.553   0.338   8.746   9.637
   21        0.553   0.338   8.746   9.637
   22        0.509   0.310   8.774   9.593
   23        0.553   0.338   8.746   9.637
   24        0.509   0.310   8.774   9.593
   25        0.518   0.298   8.777   9.593
   26        0.518   0.298   8.777   9.593
   27        0.509   0.310   8.774   9.593
   28        0.542   0.225   8.769   9.536
   29        0.540   0.247   8.766   9.553
   30        0.540   0.247   8.766   9.553
   31        0.540   0.247   8.766   9.553
   32        0.540   0.247   8.766   9.553
   33        0.540   0.247   8.766   9.553
   34        0.540   0.247   8.766   9.553
   35        0.537   0.224   8.772   9.533
   36        0.653   0.658   6.128   7.438
   37        1.358   2.199   0.000   3.557
--------------------------------------------------
tot         20.620  12.578 312.997 346.195
 
 BZINTS: Fermi energy:    0.704860;  398.000000 electrons
         Band energy:-0.122170E+04;  BLOECHL correction:   -0.089901

 total amount of memory used by VASP MPI-rank0   122660. kBytes
=======================================================================

   base      :      30000. kBytes
   nonlr-proj:      14275. kBytes
   fftplans  :       4330. kBytes
   grid      :      17879. kBytes
   one-center:        575. kBytes
   wavefun   :      55601. kBytes
 
  
  
 General timing and accounting informations for this job:
 ========================================================
  
                  Total CPU time used (sec):       76.373
                            User time (sec):       73.396
                          System time (sec):        2.977
                         Elapsed time (sec):       76.795
  
                   Maximum memory used (kb):      382464.
                   Average memory used (kb):          N/A
  
                          Minor page faults:        68886
                          Major page faults:            0
                 Voluntary context switches:         4639
