PROCAR new format
# of k-points:   10         # of bands:  252         # of ions:   37

 k-point     1 :    0.00000000 0.00000000 0.00000000     weight = 0.01562500

band     1 # energy  -13.88266927 # occ.  2.00000000
 
ion      s      p      d    tot
    1  0.000  0.000  0.000  0.000
    2  0.000  0.000  0.000  0.000
    3  0.000  0.000  0.000  0.000
    4  0.000  0.000  0.000  0.000
    5  0.000  0.000  0.000  0.000
    6  0.000  0.000  0.000  0.000
    7  0.000  0.000  0.000  0.000
    8  0.000  0.000  0.000  0.000
    9  0.000  0.000  0.000  0.000
   10  0.000  0.000  0.000  0.000
   11  0.000  0.000  0.000  0.000
   12  0.000  0.000  0.000  0.000
   13  0.000  0.000  0.000  0.000
   14  0.000  0.000  0.000  0.000
   15  0.000  0.000  0.000  0.000
   16  0.000  0.000  0.000  0.000
   17  0.000  0.000  0.000  0.000
   18  0.000  0.000  0.000  0.000
   19  0.000  0.000  0.000  0.000
   20  0.000  0.000  0.000  0.001
   21  0.000  0.000  0.000  0.001
   22  0.000  0.000  0.000  0.000
   23  0.000  0.000  0.000  0.001
   24  0.000  0.000  0.000  0.000
   25  0.000  0.000  0.000  0.000
   26  0.000  0.000  0.000  0.000
   27  0.000  0.000  0.000  0.000
   28  0.000  0.000  0.000  0.000
   29  0.000  0.000  0.000  0.000
   30  0.000  0.000  0.000  0.000
   31  0.000  0.000  0.000  0.000
   32  0.000  0.000  0.000  0.000
   33  0.000  0.000  0.000  0.000
   34  0.000  0.000  0.000  0.000
   35  0.000  0.000  0.000  0.000
   36  0.088  0.072  0.183  0.343
   37  0.602  0.030  0.000  0.633
tot    0.693  0.103  0.185  0.981
 
band     2 # energy   -8.12980829 # occ.  2.00000000
 
ion      s      p      d    tot
    1  0.006  0.001  0.000  0.007
    2  0.006  0.001  0.000  0.007
    3  0.006  0.001  0.000  0.007
    4  0.006  0.001  0.000  0.007
    5  0.006  0.001  0.000  0.007
    6  0.006  0.001  0.000  0.007
    7  0.006  0.001  0.000  0.007
    8  0.006  0.001  0.000  0.007
    9  0.006  0.000  0.000  0.007
   10  0.026  0.000  0.000  0.026
   11  0.027  0.000  0.000  0.027
   12  0.026  0.000  0.000  0.026
   13  0.027  0.000  0.000  0.027
   14  0.027  0.000  0.000  0.027
   15  0.025  0.000  0.000  0.025
   16  0.026  0.000  0.000  0.026
   17  0.025  0.000  0.000  0.025
   18  0.025  0.000  0.000  0.025
   19  0.023  0.000  0.000  0.023
   20  0.029  0.000  0.000  0.029
   21  0.029  0.000  0.000  0.029
   22  0.024  0.000  0.000  0.025
   23  0.029  0.000  0.000  0.029
   24  0.024  0.000  0.000  0.025
   25  0.023  0.000  0.000  0.023
   26  0.023  0.000  0.000  0.023
   27  0.024  0.000  0.000  0.025
   28  0.005  0.000  0.000  0.005
   29  0.005  0.001  0.000  0.006
   30  0.005  0.001  0.000  0.006
   31  0.005  0.001  0.000  0.006
   32  0.005  0.001  0.000  0.006
   33  0.005  0.001  0.000  0.006
   34  0.005  0.001  0.000  0.006
   35  0.005  0.000  0.000  0.005
   36  0.007  0.003  0.000  0.010
   37  0.002  0.000  0.000  0.002
tot    0.566  0.014  0.004  0.583
 
band     3 # energy   -6.96121855 # occ.  2.00000000
 
ion      s      p      d    tot
    1  0.017  0.000  0.001  0.018
    2  0.016  0.000  0.001  0.018
    3  0.016  0.000  0.001  0.018
    4  0.016  0.000  0.001  0.018
    5  0.016  0.000  0.001  0.018
    6  0.016  0.000  0.001  0.018
    7  0.016  0.000  0.001  0.018
    8  0.016  0.000  0.001  0.018
    9  0.017  0.000  0.001  0.018
   10  0.011  0.001  0.003  0.015
   11  0.011  0.001  0.003  0.015
   12  0.011  0.001  0.003  0.015
   13  0.011  0.001  0.003  0.015
   14  0.011  0.001  0.003  0.015
   15  0.012  0.001  0.002  0.016
   16  0.011  0.001  0.003  0.015
   17  0.012  0.001  0.002  0.016
   18  0.012  0.001  0.002  0.016
   19  0.011  0.001  0.003  0.016
   20  0.016  0.002  0.003  0.020
   21  0.016  0.002  0.003  0.020
   22  0.012  0.001  0.003  0.016
   23  0.016  0.002  0.003  0.020
   24  0.012  0.001  0.003  0.016
   25  0.011  0.001  0.003  0.016
   26  0.011  0.001  0.003  0.016
   27  0.012  0.001  0.003  0.016
   28  0.012  0.000  0.001  0.013
   29  0.014  0.001  0.001  0.016
   30  0.014  0.001  0.001  0.016
   31  0.014  0.001  0.001  0.016
   32  0.014  0.001  0.001  0.016
   33  0.014  0.001  0.001  0.016
   34  0.014  0.001  0.001  0.016
   35  0.012  0.000  0.000  0.013
   36  0.018  0.003  0.003  0.024
   37  0.003  0.000  0.000  0.003
tot    0.497  0.035  0.069  0.602
 
band     4 # energy   -6.06364303 # occ.  2.00000000
 
ion      s      p      d    tot
    1  0.003  0.001  0.002  0.005
    2  0.000  0.000  0.003  0.004
    3  0.000  0.000  0.003  0.004
    4  0.000  0.000  0.003  0.004
    5  0.000  0.000  0.000  0.000
    6  0.000  0.000  0.003  0.004
    7  0.000  0.000  0.003  0.004
    8  0.000  0.000  0.003  0.004
    9  0.011  0.001  0.000  0.013
   10  0.006  0.000  0.020  0.026
   11  0.005  0.002  0.008  0.015
   12  0.006  0.000  0.020  0.026
   13  0.005  0.002  0.008  0.015
   14  0.005  0.002  0.008  0.015
   15  0.019  0.001  0.005  0.025
   16  0.006  0.000  0.020  0.026
   17  0.019  0.001  0.005  0.025
   18  0.019  0.001  0.005  0.025
   19  0.000  0.001  0.024  0.025
   20  0.032  0.002  0.031  0.064
   21  0.032  0.002  0.031  0.064
   22  0.015  0.002  0.004  0.022
   23  0.032  0.002  0.031  0.064
   24  0.015  0.002  0.004  0.022
   25  0.000  0.001  0.024  0.025
   26  0.000  0.001  0.024  0.025
   27  0.015  0.002  0.004  0.022
   28  0.007  0.000  0.000  0.008
   29  0.004  0.000  0.006  0.010
   30  0.004  0.000  0.006  0.010
   31  0.004  0.000  0.006  0.010
   32  0.004  0.000  0.006  0.010
   33  0.004  0.000  0.006  0.010
   34  0.004  0.000  0.006  0.010
   35  0.017  0.001  0.001  0.019
   36  0.008  0.008  0.020  0.036
   37  0.005  0.007  0.000  0.012
tot    0.304  0.049  0.353  0.706
 
band     5 # energy   -6.01880793 # occ.  2.00000000
 
ion      s      p      d    tot
    1  0.000  0.000  0.007  0.008
    2  0.003  0.001  0.002  0.005
    3  0.000  0.000  0.003  0.003
    4  0.003  0.001  0.002  0.006
    5  0.000  0.001  0.005  0.006
    6  0.005  0.001  0.003  0.009
    7  0.000  0.000  0.003  0.003
    8  0.005  0.001  0.003  0.009
    9  0.000  0.000  0.001  0.001
   10  0.037  0.002  0.006  0.045
   11  0.010  0.003  0.020  0.033
   12  0.010  0.001  0.024  0.035
   13  0.012  0.003  0.019  0.034
   14  0.044  0.001  0.011  0.055
   15  0.000  0.002  0.006  0.009
   16  0.008  0.001  0.025  0.034
   17  0.000  0.002  0.007  0.009
   18  0.000  0.000  0.010  0.011
   19  0.003  0.003  0.005  0.011
   20  0.071  0.001  0.013  0.084
   21  0.020  0.002  0.031  0.053
   22  0.004  0.001  0.020  0.024
   23  0.016  0.002  0.033  0.050
   24  0.014  0.002  0.005  0.020
   25  0.013  0.000  0.013  0.026
   26  0.003  0.003  0.006  0.012
   27  0.003  0.001  0.021  0.025
   28  0.000  0.000  0.001  0.002
   29  0.006  0.001  0.005  0.012
   30  0.002  0.001  0.003  0.006
   31  0.006  0.001  0.005  0.012
   32  0.001  0.000  0.003  0.005
   33  0.002  0.001  0.003  0.005
   34  0.001  0.000  0.003  0.005
   35  0.000  0.000  0.003  0.003
   36  0.000  0.003  0.022  0.025
   37  0.000  0.002  0.000  0.002
tot    0.302  0.044  0.352  0.698
 
band     6 # energy   -6.01880291 # occ.  2.00000000
 
ion      s      p      d    tot
    1  0.000  0.000  0.007  0.008
    2  0.003  0.001  0.003  0.007
    3  0.005  0.001  0.003  0.009
    4  0.003  0.001  0.003  0.006
    5  0.000  0.001  0.005  0.006
    6  0.000  0.000  0.002  0.003
    7  0.005  0.001  0.002  0.009
    8  0.000  0.000  0.002  0.003
    9  0.000  0.000  0.001  0.001
   10  0.000  0.000  0.031  0.031
   11  0.034  0.001  0.014  0.049
   12  0.027  0.002  0.013  0.041
   13  0.032  0.002  0.014  0.047
   14  0.000  0.004  0.022  0.026
   15  0.000  0.001  0.009  0.010
   16  0.029  0.002  0.011  0.042
   17  0.000  0.001  0.009  0.010
   18  0.000  0.003  0.005  0.008
   19  0.010  0.001  0.011  0.022
   20  0.000  0.002  0.039  0.041
   21  0.051  0.001  0.020  0.072
   22  0.010  0.001  0.011  0.022
   23  0.055  0.001  0.018  0.074
   24  0.000  0.001  0.025  0.026
   25  0.000  0.004  0.003  0.007
   26  0.009  0.001  0.010  0.021
   27  0.011  0.001  0.010  0.022
   28  0.000  0.000  0.001  0.002
   29  0.000  0.000  0.003  0.003
   30  0.004  0.001  0.004  0.009
   31  0.000  0.000  0.003  0.003
   32  0.005  0.001  0.004  0.010
   33  0.004  0.001  0.004  0.010
   34  0.005  0.001  0.004  0.010
   35  0.000  0.000  0.003  0.003
   36  0.000  0.003  0.022  0.024
   37  0.000  0.002  0.000  0.002
tot    0.302  0.044  0.352  0.698
 
band     7 # energy   -5.98513173 # occ.  2.00000000
 
ion      s      p      d    tot
    1  0.017  0.000  0.008  0.025
    2  0.013  0.000  0.011  0.024
    3  0.013  0.000  0.011  0.024
    4  0.013  0.000  0.011  0.024
    5  0.019  0.000  0.010  0.029
    6  0.013  0.000  0.011  0.024
    7  0.013  0.000  0.011  0.024
    8  0.013  0.000  0.011  0.024
    9  0.006  0.000  0.013  0.020
   10  0.002  0.001  0.008  0.011
   11  0.000  0.001  0.007  0.008
   12  0.002  0.001  0.008  0.011
   13  0.000  0.001  0.007  0.008
   14  0.000  0.001  0.007  0.008
   15  0.011  0.001  0.005  0.017
   16  0.002  0.001  0.008  0.011
   17  0.011  0.001  0.005  0.017
   18  0.011  0.001  0.005  0.017
   19  0.006  0.001  0.005  0.012
   20  0.000  0.001  0.012  0.013
   21  0.000  0.001  0.012  0.013
   22  0.006  0.002  0.004  0.012
   23  0.000  0.001  0.012  0.013
   24  0.006  0.002  0.004  0.012
   25  0.006  0.001  0.005  0.012
   26  0.006  0.001  0.005  0.012
   27  0.006  0.002  0.004  0.012
   28  0.008  0.000  0.011  0.019
   29  0.016  0.000  0.012  0.028
   30  0.016  0.000  0.012  0.028
   31  0.016  0.000  0.012  0.028
   32  0.016  0.000  0.012  0.028
   33  0.016  0.000  0.012  0.028
   34  0.016  0.000  0.012  0.028
   35  0.009  0.000  0.009  0.018
   36  0.025  0.000  0.026  0.052
   37  0.001  0.001  0.000  0.001
tot    0.336  0.024  0.336  0.696
 
band     8 # energy   -5.96666589 # occ.  2.00000000
 
ion      s      p      d    tot
    1  0.012  0.000  0.011  0.023
    2  0.008  0.000  0.010  0.019
    3  0.008  0.000  0.010  0.019
    4  0.008  0.000  0.010  0.019
    5  0.002  0.000  0.012  0.015
    6  0.008  0.000  0.010  0.019
    7  0.008  0.000  0.010  0.019
    8  0.008  0.000  0.010  0.019
    9  0.014  0.000  0.007  0.021
   10  0.001  0.000  0.026  0.027
   11  0.018  0.000  0.016  0.035
   12  0.001  0.000  0.026  0.027
   13  0.018  0.000  0.016  0.035
   14  0.018  0.000  0.016  0.035
   15  0.001  0.000  0.025  0.026
   16  0.001  0.000  0.026  0.027
   17  0.001  0.000  0.025  0.026
   18  0.001  0.000  0.025  0.026
   19  0.013  0.000  0.011  0.024
   20  0.000  0.000  0.030  0.030
   21  0.000  0.000  0.030  0.030
   22  0.002  0.000  0.017  0.020
   23  0.000  0.000  0.030  0.030
   24  0.002  0.000  0.017  0.020
   25  0.013  0.000  0.011  0.024
   26  0.013  0.000  0.011  0.024
   27  0.002  0.000  0.017  0.020
   28  0.000  0.000  0.006  0.006
   29  0.004  0.000  0.006  0.010
   30  0.004  0.000  0.006  0.010
   31  0.004  0.000  0.006  0.010
   32  0.004  0.000  0.006  0.010
   33  0.004  0.000  0.006  0.010
   34  0.004  0.000  0.006  0.010
   35  0.004  0.000  0.003  0.007
   36  0.007  0.000  0.016  0.023
   37  0.000  0.001  0.000  0.001
tot    0.222  0.008  0.528  0.759
 
band     9 # energy   -5.92444112 # occ.  2.00000000
 
ion      s      p      d    tot
    1  0.007  0.001  0.002  0.010
    2  0.000  0.001  0.006  0.007
    3  0.000  0.001  0.006  0.007
    4  0.000  0.001  0.006  0.007
    5  0.016  0.001  0.000  0.018
    6  0.000  0.001  0.006  0.007
    7  0.000  0.001  0.006  0.007
    8  0.000  0.001  0.006  0.007
    9  0.000  0.000  0.002  0.002
   10  0.028  0.003  0.001  0.031
   11  0.015  0.000  0.027  0.042
   12  0.028  0.003  0.001  0.031
   13  0.015  0.000  0.027  0.042
   14  0.015  0.000  0.026  0.042
   15  0.000  0.001  0.021  0.022
   16  0.028  0.003  0.001  0.031
   17  0.000  0.001  0.021  0.022
   18  0.000  0.001  0.021  0.022
   19  0.016  0.002  0.009  0.027
   20  0.006  0.002  0.019  0.027
   21  0.006  0.002  0.019  0.027
   22  0.014  0.000  0.024  0.037
   23  0.006  0.002  0.019  0.027
   24  0.013  0.000  0.024  0.037
   25  0.016  0.002  0.009  0.027
   26  0.016  0.002  0.009  0.027
   27  0.014  0.000  0.024  0.037
   28  0.017  0.001  0.000  0.018
   29  0.002  0.000  0.005  0.007
   30  0.002  0.000  0.005  0.007
   31  0.002  0.000  0.005  0.007
   32  0.002  0.000  0.005  0.007
   33  0.002  0.000  0.005  0.007
   34  0.002  0.000  0.005  0.007
   35  0.001  0.001  0.006  0.008
   36  0.000  0.000  0.001  0.002
   37  0.000  0.000  0.000  0.000
tot    0.290  0.036  0.373  0.700
 
band    10 # energy   -5.91725457 # occ.  2.00000000
 
ion      s      p      d    tot
    1  0.000  0.001  0.003  0.004
    2  0.003  0.001  0.004  0.008
    3  0.008  0.001  0.004  0.013
    4  0.004  0.001  0.004  0.009
    5  0.000  0.000  0.005  0.005
    6  0.001  0.000  0.003  0.004
    7  0.008  0.001  0.004  0.013
    8  0.001  0.000  0.003  0.004
    9  0.000  0.001  0.011  0.012
   10  0.020  0.000  0.016  0.037
   11  0.003  0.001  0.022  0.026
   12  0.005  0.004  0.006  0.014
   13  0.003  0.001  0.023  0.027
   14  0.012  0.001  0.007  0.020
   15  0.017  0.001  0.031  0.050
   16  0.006  0.003  0.006  0.016
   17  0.015  0.001  0.033  0.049
   18  0.063  0.002  0.006  0.071
   19  0.010  0.001  0.027  0.037
   20  0.000  0.001  0.015  0.015
   21  0.000  0.002  0.011  0.013
   22  0.009  0.003  0.017  0.029
   23  0.000  0.002  0.011  0.013
   24  0.039  0.001  0.011  0.051
   25  0.038  0.002  0.003  0.043
   26  0.009  0.001  0.028  0.037
   27  0.010  0.003  0.017  0.030
   28  0.000  0.000  0.006  0.006
   29  0.000  0.000  0.002  0.003
   30  0.003  0.001  0.002  0.005
   31  0.000  0.000  0.002  0.002
   32  0.005  0.001  0.003  0.008
   33  0.002  0.000  0.002  0.004
   34  0.005  0.001  0.003  0.008
   35  0.000  0.001  0.004  0.005
   36  0.000  0.000  0.001  0.002
   37  0.000  0.000  0.000  0.000
tot    0.298  0.041  0.355  0.694
 
band    11 # energy   -5.91724153 # occ.  2.00000000
 
ion      s      p      d    tot
    1  0.000  0.001  0.003  0.004
    2  0.005  0.001  0.003  0.009
    3  0.000  0.000  0.003  0.004
    4  0.004  0.001  0.003  0.008
    5  0.000  0.000  0.005  0.005
    6  0.007  0.001  0.004  0.013
    7  0.000  0.000  0.003  0.004
    8  0.008  0.001  0.004  0.013
    9  0.000  0.001  0.011  0.012
   10  0.000  0.005  0.003  0.007
   11  0.009  0.001  0.012  0.022
   12  0.016  0.001  0.013  0.030
   13  0.009  0.001  0.012  0.022
   14  0.000  0.001  0.028  0.029
   15  0.046  0.001  0.016  0.063
   16  0.015  0.001  0.013  0.029
   17  0.049  0.001  0.014  0.064
   18  0.000  0.001  0.040  0.042
   19  0.027  0.002  0.012  0.041
   20  0.000  0.002  0.010  0.012
   21  0.000  0.001  0.014  0.015
   22  0.030  0.001  0.013  0.045
   23  0.000  0.001  0.014  0.015
   24  0.000  0.004  0.018  0.022
   25  0.000  0.000  0.036  0.036
   26  0.029  0.002  0.010  0.041
   27  0.029  0.002  0.013  0.043
   28  0.000  0.000  0.006  0.006
   29  0.004  0.001  0.002  0.008
   30  0.002  0.000  0.002  0.005
   31  0.005  0.001  0.002  0.008
   32  0.000  0.000  0.002  0.002
   33  0.003  0.001  0.003  0.006
   34  0.000  0.000  0.001  0.002
   35  0.000  0.001  0.004  0.005
   36  0.000  0.000  0.001  0.002
   37  0.000  0.000  0.000  0.000
tot    0.298  0.041  0.355  0.694
 
band    12 # energy   -5.52667294 # occ.  2.00000000
 
ion      s      p      d    tot
    1  0.005  0.000  0.000  0.005
    2  0.000  0.001  0.007  0.007
    3  0.000  0.001  0.006  0.007
    4  0.000  0.001  0.007  0.007
    5  0.014  0.002  0.001  0.016
    6  0.000  0.001  0.006  0.007
    7  0.000  0.001  0.006  0.007
    8  0.000  0.001  0.006  0.007
    9  0.003  0.001  0.002  0.006
   10  0.000  0.000  0.033  0.033
   11  0.011  0.002  0.001  0.014
   12  0.000  0.000  0.033  0.033
   13  0.011  0.002  0.001  0.014
   14  0.010  0.002  0.001  0.013
   15  0.011  0.001  0.029  0.041
   16  0.000  0.000  0.033  0.033
   17  0.011  0.001  0.029  0.041
   18  0.011  0.001  0.030  0.042
   19  0.013  0.001  0.014  0.029
   20  0.004  0.003  0.027  0.033
   21  0.003  0.003  0.027  0.033
   22  0.001  0.000  0.039  0.040
   23  0.003  0.003  0.027  0.033
   24  0.001  0.000  0.039  0.040
   25  0.013  0.001  0.014  0.028
   26  0.013  0.001  0.014  0.029
   27  0.001  0.000  0.039  0.040
   28  0.008  0.001  0.002  0.011
   29  0.000  0.001  0.008  0.009
   30  0.000  0.001  0.008  0.009
   31  0.000  0.001  0.008  0.009
   32  0.000  0.001  0.008  0.009
   33  0.000  0.001  0.008  0.009
   34  0.000  0.001  0.008  0.009
   35  0.001  0.000  0.000  0.001
   36  0.026  0.006  0.001  0.033
   37  0.004  0.004  0.000  0.009
tot    0.178  0.046  0.521  0.745
 
band    13 # energy   -5.52044539 # occ.  2.00000000
 
ion      s      p      d    tot
    1  0.000  0.001  0.004  0.005
    2  0.001  0.001  0.005  0.007
    3  0.010  0.002  0.005  0.016
    4  0.001  0.001  0.005  0.007
    5  0.000  0.002  0.010  0.011
    6  0.004  0.001  0.004  0.009
    7  0.010  0.002  0.005  0.016
    8  0.004  0.001  0.004  0.009
    9  0.000  0.000  0.008  0.009
   10  0.000  0.001  0.051  0.051
   11  0.020  0.001  0.020  0.040
   12  0.008  0.001  0.019  0.028
   13  0.020  0.001  0.020  0.040
   14  0.000  0.000  0.049  0.049
   15  0.002  0.000  0.019  0.022
   16  0.008  0.001  0.019  0.029
   17  0.002  0.000  0.019  0.022
   18  0.000  0.001  0.013  0.014
   19  0.002  0.000  0.016  0.018
   20  0.000  0.000  0.080  0.080
   21  0.014  0.001  0.024  0.039
   22  0.004  0.001  0.018  0.023
   23  0.014  0.001  0.024  0.039
   24  0.000  0.001  0.031  0.031
   25  0.000  0.001  0.009  0.010
   26  0.002  0.000  0.016  0.018
   27  0.004  0.001  0.018  0.023
   28  0.000  0.000  0.005  0.006
   29  0.003  0.001  0.004  0.008
   30  0.007  0.001  0.006  0.014
   31  0.003  0.001  0.004  0.008
   32  0.001  0.000  0.003  0.004
   33  0.007  0.001  0.006  0.014
   34  0.001  0.000  0.003  0.004
   35  0.000  0.000  0.002  0.002
   36  0.000  0.002  0.023  0.025
   37  0.000  0.002  0.000  0.002
tot    0.150  0.032  0.571  0.753
 
band    14 # energy   -5.52041761 # occ.  2.00000000
 
ion      s      p      d    tot
    1  0.000  0.001  0.004  0.005
    2  0.009  0.001  0.004  0.014
    3  0.000  0.000  0.004  0.005
    4  0.009  0.001  0.004  0.014
    5  0.000  0.002  0.010  0.011
    6  0.006  0.001  0.005  0.013
    7  0.000  0.000  0.004  0.005
    8  0.006  0.001  0.005  0.013
    9  0.000  0.000  0.008  0.009
   10  0.010  0.002  0.009  0.021
   11  0.006  0.000  0.039  0.046
   12  0.003  0.001  0.040  0.044
   13  0.006  0.000  0.040  0.046
   14  0.026  0.001  0.010  0.037
   15  0.001  0.001  0.015  0.017
   16  0.003  0.001  0.040  0.044
   17  0.001  0.001  0.015  0.017
   18  0.002  0.000  0.021  0.024
   19  0.001  0.001  0.011  0.012
   20  0.018  0.002  0.005  0.025
   21  0.005  0.000  0.061  0.066
   22  0.001  0.001  0.026  0.028
   23  0.005  0.000  0.061  0.066
   24  0.005  0.001  0.014  0.020
   25  0.003  0.000  0.018  0.021
   26  0.001  0.001  0.011  0.012
   27  0.001  0.001  0.026  0.028
   28  0.000  0.000  0.005  0.006
   29  0.004  0.001  0.005  0.009
   30  0.000  0.000  0.003  0.004
   31  0.004  0.001  0.005  0.009
   32  0.007  0.001  0.006  0.013
   33  0.000  0.000  0.003  0.004
   34  0.007  0.001  0.006  0.013
   35  0.000  0.000  0.002  0.002
   36  0.000  0.002  0.023  0.025
   37  0.000  0.002  0.000  0.002
tot    0.150  0.032  0.571  0.753
 
band    15 # energy   -5.49476482 # occ.  2.00000000
 
ion      s      p      d    tot
    1  0.010  0.002  0.003  0.014
    2  0.000  0.001  0.008  0.009
    3  0.000  0.001  0.008  0.009
    4  0.000  0.001  0.008  0.009
    5  0.002  0.000  0.001  0.003
    6  0.000  0.001  0.008  0.009
    7  0.000  0.001  0.008  0.009
    8  0.000  0.001  0.008  0.009
    9  0.020  0.002  0.000  0.022
   10  0.011  0.001  0.020  0.032
   11  0.001  0.000  0.048  0.049
   12  0.011  0.001  0.020  0.032
   13  0.001  0.000  0.048  0.049
   14  0.001  0.000  0.048  0.049
   15  0.007  0.002  0.014  0.022
   16  0.011  0.001  0.020  0.032
   17  0.007  0.002  0.014  0.022
   18  0.007  0.002  0.014  0.022
   19  0.001  0.001  0.017  0.019
   20  0.002  0.001  0.050  0.052
   21  0.002  0.001  0.049  0.052
   22  0.011  0.001  0.016  0.028
   23  0.002  0.001  0.049  0.052
   24  0.011  0.001  0.016  0.028
   25  0.001  0.001  0.017  0.019
   26  0.001  0.001  0.017  0.019
   27  0.011  0.001  0.016  0.028
   28  0.011  0.001  0.000  0.012
   29  0.000  0.000  0.005  0.006
   30  0.000  0.000  0.005  0.006
   31  0.000  0.000  0.005  0.006
   32  0.000  0.000  0.005  0.006
   33  0.000  0.000  0.005  0.006
   34  0.000  0.000  0.005  0.006
   35  0.004  0.001  0.005  0.010
   36  0.000  0.000  0.004  0.005
   37  0.001  0.001  0.000  0.002
tot    0.146  0.028  0.586  0.760
 
band    16 # energy   -5.43508572 # occ.  2.00000000
 
ion      s      p      d    tot
    1  0.000  0.001  0.013  0.014
    2  0.009  0.001  0.004  0.014
    3  0.001  0.000  0.005  0.006
    4  0.009  0.001  0.004  0.014
    5  0.000  0.000  0.006  0.006
    6  0.005  0.001  0.005  0.011
    7  0.001  0.000  0.005  0.006
    8  0.005  0.001  0.005  0.011
    9  0.000  0.001  0.006  0.007
   10  0.000  0.001  0.034  0.034
   11  0.000  0.001  0.020  0.021
   12  0.009  0.000  0.021  0.031
   13  0.000  0.001  0.020  0.021
   14  0.000  0.001  0.016  0.017
   15  0.010  0.002  0.020  0.032
   16  0.009  0.000  0.021  0.031
   17  0.010  0.002  0.020  0.032
   18  0.000  0.000  0.061  0.061
   19  0.015  0.001  0.020  0.036
   20  0.000  0.002  0.024  0.025
   21  0.000  0.001  0.024  0.025
   22  0.016  0.001  0.021  0.037
   23  0.000  0.001  0.024  0.025
   24  0.000  0.001  0.028  0.029
   25  0.000  0.000  0.066  0.067
   26  0.015  0.001  0.020  0.036
   27  0.016  0.001  0.021  0.037
   28  0.000  0.001  0.005  0.006
   29  0.005  0.001  0.004  0.010
   30  0.000  0.000  0.005  0.005
   31  0.005  0.001  0.004  0.010
   32  0.005  0.001  0.003  0.009
   33  0.000  0.000  0.005  0.005
   34  0.005  0.001  0.003  0.009
   35  0.000  0.001  0.008  0.009
   36  0.000  0.000  0.003  0.003
   37  0.000  0.000  0.000  0.000
tot    0.150  0.029  0.572  0.750
 
band    17 # energy   -5.43506541 # occ.  2.00000000
 
ion      s      p      d    tot
    1  0.000  0.001  0.013  0.014
    2  0.001  0.001  0.005  0.006
    3  0.009  0.001  0.004  0.014
    4  0.001  0.001  0.005  0.006
    5  0.000  0.000  0.006  0.006
    6  0.005  0.001  0.004  0.010
    7  0.009  0.001  0.004  0.014
    8  0.005  0.001  0.004  0.010
    9  0.000  0.001  0.006  0.007
   10  0.012  0.000  0.017  0.030
   11  0.000  0.001  0.017  0.018
   12  0.003  0.000  0.030  0.033
   13  0.000  0.001  0.017  0.018
   14  0.000  0.001  0.022  0.023
   15  0.003  0.001  0.047  0.051
   16  0.003  0.000  0.030  0.033
   17  0.003  0.001  0.047  0.051
   18  0.013  0.002  0.006  0.022
   19  0.005  0.001  0.051  0.056
   20  0.000  0.000  0.025  0.025
   21  0.000  0.001  0.024  0.025
   22  0.005  0.001  0.025  0.031
   23  0.000  0.001  0.024  0.025
   24  0.021  0.001  0.018  0.040
   25  0.020  0.001  0.004  0.026
   26  0.005  0.001  0.051  0.056
   27  0.005  0.001  0.025  0.031
   28  0.000  0.001  0.005  0.006
   29  0.002  0.000  0.004  0.006
   30  0.007  0.001  0.003  0.011
   31  0.002  0.000  0.004  0.006
   32  0.002  0.001  0.005  0.007
   33  0.007  0.001  0.003  0.011
   34  0.002  0.001  0.005  0.007
   35  0.000  0.001  0.008  0.009
   36  0.000  0.000  0.003  0.003
   37  0.000  0.000  0.000  0.000
tot    0.150  0.029  0.572  0.750
 
band    18 # energy   -5.13679471 # occ.  2.00000000
 
ion      s      p      d    tot
    1  0.007  0.000  0.005  0.012
    2  0.000  0.001  0.011  0.012
    3  0.000  0.001  0.011  0.012
    4  0.000  0.001  0.011  0.012
    5  0.004  0.001  0.004  0.009
    6  0.000  0.001  0.011  0.012
    7  0.000  0.001  0.011  0.012
    8  0.000  0.001  0.011  0.012
    9  0.019  0.001  0.000  0.021
   10  0.000  0.000  0.018  0.019
   11  0.000  0.001  0.037  0.037
   12  0.000  0.000  0.018  0.019
   13  0.000  0.001  0.037  0.037
   14  0.000  0.001  0.037  0.037
   15  0.000  0.000  0.026  0.027
   16  0.000  0.000  0.018  0.019
   17  0.000  0.000  0.026  0.027
   18  0.000  0.000  0.026  0.027
   19  0.000  0.000  0.018  0.018
   20  0.001  0.000  0.041  0.042
   21  0.001  0.000  0.041  0.042
   22  0.000  0.000  0.032  0.033
   23  0.001  0.000  0.041  0.042
   24  0.000  0.000  0.032  0.033
   25  0.000  0.000  0.018  0.018
   26  0.000  0.000  0.018  0.018
   27  0.000  0.000  0.032  0.033
   28  0.000  0.000  0.007  0.007
   29  0.000  0.001  0.018  0.019
   30  0.000  0.001  0.018  0.019
   31  0.000  0.001  0.018  0.019
   32  0.000  0.001  0.018  0.019
   33  0.000  0.001  0.018  0.019
   34  0.000  0.001  0.018  0.019
   35  0.022  0.001  0.001  0.024
   36  0.005  0.000  0.024  0.030
   37  0.001  0.004  0.000  0.004
tot    0.066  0.022  0.734  0.822
 
band    19 # energy   -5.13055154 # occ.  2.00000000
 
ion      s      p      d    tot
    1  0.000  0.000  0.015  0.015
    2  0.002  0.001  0.007  0.009
    3  0.002  0.000  0.011  0.013
    4  0.002  0.001  0.007  0.009
    5  0.000  0.001  0.017  0.018
    6  0.007  0.001  0.007  0.015
    7  0.002  0.000  0.011  0.013
    8  0.007  0.001  0.007  0.015
    9  0.000  0.001  0.002  0.003
   10  0.000  0.001  0.026  0.027
   11  0.000  0.000  0.060  0.060
   12  0.000  0.000  0.012  0.012
   13  0.000  0.000  0.060  0.060
   14  0.001  0.000  0.053  0.053
   15  0.000  0.000  0.018  0.018
   16  0.000  0.000  0.012  0.012
   17  0.000  0.000  0.018  0.018
   18  0.000  0.000  0.028  0.028
   19  0.000  0.000  0.006  0.006
   20  0.001  0.000  0.100  0.101
   21  0.000  0.000  0.062  0.062
   22  0.000  0.000  0.034  0.034
   23  0.000  0.000  0.062  0.063
   24  0.001  0.000  0.020  0.022
   25  0.000  0.000  0.015  0.015
   26  0.000  0.000  0.006  0.006
   27  0.000  0.000  0.034  0.034
   28  0.000  0.000  0.002  0.002
   29  0.004  0.001  0.012  0.016
   30  0.000  0.000  0.008  0.008
   31  0.004  0.001  0.012  0.016
   32  0.002  0.000  0.005  0.008
   33  0.000  0.000  0.008  0.008
   34  0.002  0.000  0.005  0.008
   35  0.000  0.000  0.009  0.009
   36  0.000  0.002  0.024  0.026
   37  0.000  0.002  0.000  0.002
tot    0.039  0.015  0.792  0.846
 
band    20 # energy   -5.13052132 # occ.  2.00000000
 
ion      s      p      d    tot
    1  0.000  0.000  0.015  0.015
    2  0.006  0.000  0.009  0.015
    3  0.005  0.001  0.006  0.012
    4  0.006  0.000  0.009  0.015
    5  0.000  0.001  0.017  0.018
    6  0.000  0.000  0.009  0.010
    7  0.006  0.001  0.006  0.012
    8  0.000  0.000  0.009  0.010
    9  0.000  0.001  0.002  0.003
   10  0.000  0.000  0.007  0.007
   11  0.000  0.000  0.055  0.056
   12  0.000  0.000  0.021  0.022
   13  0.000  0.000  0.055  0.056
   14  0.000  0.000  0.062  0.063
   15  0.000  0.000  0.024  0.024
   16  0.000  0.000  0.021  0.022
   17  0.000  0.000  0.024  0.025
   18  0.000  0.000  0.014  0.014
   19  0.000  0.000  0.012  0.012
   20  0.000  0.000  0.049  0.050
   21  0.001  0.000  0.087  0.088
   22  0.001  0.000  0.025  0.026
   23  0.001  0.000  0.087  0.088
   24  0.000  0.000  0.038  0.038
   25  0.000  0.000  0.003  0.003
   26  0.000  0.000  0.012  0.012
   27  0.001  0.000  0.025  0.026
   28  0.000  0.000  0.002  0.002
   29  0.000  0.000  0.005  0.005
   30  0.004  0.001  0.009  0.013
   31  0.000  0.000  0.005  0.005
   32  0.002  0.000  0.011  0.014
   33  0.004  0.001  0.009  0.013
   34  0.002  0.000  0.011  0.014
   35  0.000  0.000  0.009  0.009
   36  0.000  0.002  0.024  0.026
   37  0.000  0.002  0.000  0.002
tot    0.039  0.015  0.792  0.846
 
band    21 # energy   -5.10636781 # occ.  2.00000000
 
ion      s      p      d    tot
    1  0.000  0.000  0.002  0.003
    2  0.000  0.000  0.011  0.011
    3  0.000  0.000  0.011  0.011
    4  0.000  0.000  0.011  0.011
    5  0.001  0.000  0.005  0.007
    6  0.000  0.000  0.011  0.011
    7  0.000  0.000  0.011  0.011
    8  0.000  0.000  0.011  0.011
    9  0.005  0.000  0.012  0.017
   10  0.000  0.000  0.017  0.018
   11  0.000  0.000  0.031  0.031
   12  0.000  0.000  0.017  0.018
   13  0.000  0.000  0.031  0.031
   14  0.000  0.000  0.031  0.032
   15  0.000  0.000  0.040  0.041
   16  0.000  0.000  0.017  0.018
   17  0.000  0.000  0.040  0.041
   18  0.000  0.000  0.040  0.041
   19  0.000  0.000  0.028  0.029
   20  0.001  0.001  0.055  0.056
   21  0.001  0.001  0.055  0.056
   22  0.001  0.000  0.031  0.032
   23  0.001  0.001  0.055  0.056
   24  0.001  0.000  0.031  0.032
   25  0.000  0.000  0.028  0.029
   26  0.000  0.000  0.028  0.029
   27  0.001  0.000  0.031  0.032
   28  0.012  0.000  0.005  0.017
   29  0.000  0.001  0.012  0.013
   30  0.000  0.001  0.012  0.013
   31  0.000  0.001  0.012  0.013
   32  0.000  0.001  0.012  0.013
   33  0.000  0.001  0.012  0.013
   34  0.000  0.001  0.012  0.013
   35  0.002  0.000  0.004  0.006
   36  0.012  0.003  0.004  0.020