PROCAR new format
# of k-points:   10         # of bands:  252         # of ions:   36

 k-point     1 :    0.00000000 0.00000000 0.00000000     weight = 0.01562500

band     1 # energy   -8.69805142 # occ.  2.00000000
 
ion      s      p      d    tot
    1  0.006  0.001  0.000  0.007
    2  0.006  0.001  0.000  0.007
    3  0.006  0.001  0.000  0.007
    4  0.006  0.001  0.000  0.007
    5  0.006  0.001  0.000  0.007
    6  0.006  0.001  0.000  0.007
    7  0.006  0.001  0.000  0.007
    8  0.006  0.001  0.000  0.007
    9  0.006  0.001  0.000  0.007
   10  0.024  0.000  0.000  0.024
   11  0.024  0.000  0.000  0.024
   12  0.024  0.000  0.000  0.024
   13  0.024  0.000  0.000  0.024
   14  0.024  0.000  0.000  0.024
   15  0.024  0.000  0.000  0.024
   16  0.024  0.000  0.000  0.024
   17  0.024  0.000  0.000  0.024
   18  0.024  0.000  0.000  0.024
   19  0.025  0.000  0.000  0.025
   20  0.025  0.000  0.000  0.026
   21  0.025  0.000  0.000  0.026
   22  0.025  0.000  0.000  0.025
   23  0.025  0.000  0.000  0.026
   24  0.025  0.000  0.000  0.025
   25  0.025  0.000  0.000  0.025
   26  0.025  0.000  0.000  0.025
   27  0.025  0.000  0.000  0.025
   28  0.007  0.001  0.000  0.008
   29  0.007  0.001  0.000  0.008
   30  0.007  0.001  0.000  0.008
   31  0.007  0.001  0.000  0.008
   32  0.007  0.001  0.000  0.008
   33  0.007  0.001  0.000  0.008
   34  0.007  0.001  0.000  0.008
   35  0.007  0.001  0.000  0.008
   36  0.015  0.001  0.000  0.017
tot    0.569  0.016  0.001  0.587
 
band     2 # energy   -7.43532652 # occ.  2.00000000
 
ion      s      p      d    tot
    1  0.017  0.001  0.000  0.019
    2  0.017  0.001  0.000  0.019
    3  0.017  0.001  0.000  0.019
    4  0.017  0.001  0.000  0.019
    5  0.017  0.001  0.000  0.019
    6  0.017  0.001  0.000  0.019
    7  0.017  0.001  0.000  0.019
    8  0.017  0.001  0.000  0.019
    9  0.018  0.001  0.000  0.019
   10  0.011  0.002  0.001  0.014
   11  0.011  0.002  0.001  0.013
   12  0.011  0.002  0.001  0.014
   13  0.011  0.002  0.001  0.013
   14  0.011  0.002  0.001  0.013
   15  0.011  0.002  0.001  0.014
   16  0.011  0.002  0.001  0.014
   17  0.011  0.002  0.001  0.014
   18  0.011  0.002  0.001  0.014
   19  0.008  0.002  0.000  0.011
   20  0.008  0.003  0.000  0.011
   21  0.008  0.003  0.000  0.011
   22  0.008  0.002  0.000  0.011
   23  0.008  0.003  0.000  0.011
   24  0.008  0.002  0.000  0.011
   25  0.008  0.002  0.000  0.011
   26  0.008  0.002  0.000  0.011
   27  0.008  0.002  0.000  0.011
   28  0.018  0.001  0.001  0.019
   29  0.019  0.001  0.001  0.020
   30  0.019  0.001  0.001  0.020
   31  0.019  0.001  0.001  0.020
   32  0.019  0.001  0.001  0.020
   33  0.019  0.001  0.001  0.020
   34  0.019  0.001  0.001  0.020
   35  0.018  0.001  0.001  0.019
   36  0.039  0.001  0.003  0.043
tot    0.519  0.053  0.021  0.593
 
band     3 # energy   -5.83575322 # occ.  2.00000000
 
ion      s      p      d    tot
    1  0.015  0.000  0.005  0.021
    2  0.017  0.000  0.005  0.022
    3  0.017  0.000  0.005  0.022
    4  0.017  0.000  0.005  0.022
    5  0.020  0.000  0.005  0.025
    6  0.017  0.000  0.005  0.022
    7  0.017  0.000  0.005  0.022
    8  0.017  0.000  0.005  0.022
    9  0.015  0.000  0.006  0.021
   10  0.004  0.004  0.001  0.009
   11  0.001  0.003  0.002  0.007
   12  0.004  0.004  0.001  0.009
   13  0.001  0.003  0.002  0.007
   14  0.001  0.003  0.002  0.007
   15  0.004  0.004  0.001  0.009
   16  0.004  0.004  0.001  0.009
   17  0.004  0.004  0.001  0.009
   18  0.004  0.004  0.001  0.009
   19  0.009  0.003  0.003  0.015
   20  0.003  0.003  0.005  0.011
   21  0.003  0.003  0.005  0.011
   22  0.007  0.003  0.003  0.013
   23  0.003  0.003  0.005  0.011
   24  0.007  0.003  0.003  0.013
   25  0.009  0.003  0.003  0.015
   26  0.009  0.003  0.003  0.015
   27  0.007  0.003  0.003  0.013
   28  0.010  0.000  0.007  0.017
   29  0.017  0.000  0.008  0.025
   30  0.017  0.000  0.008  0.025
   31  0.017  0.000  0.008  0.025
   32  0.017  0.000  0.008  0.025
   33  0.017  0.000  0.008  0.025
   34  0.017  0.000  0.008  0.025
   35  0.011  0.000  0.006  0.017
   36  0.048  0.000  0.026  0.074
tot    0.399  0.063  0.185  0.647
 
band     4 # energy   -5.71583202 # occ.  2.00000000
 
ion      s      p      d    tot
    1  0.000  0.003  0.005  0.008
    2  0.008  0.002  0.002  0.013
    3  0.004  0.001  0.002  0.007
    4  0.008  0.002  0.002  0.013
    5  0.000  0.001  0.002  0.004
    6  0.001  0.001  0.002  0.004
    7  0.003  0.001  0.002  0.006
    8  0.001  0.001  0.002  0.004
    9  0.000  0.000  0.003  0.003
   10  0.057  0.004  0.004  0.065
   11  0.003  0.010  0.003  0.016
   12  0.016  0.004  0.010  0.029
   13  0.003  0.009  0.003  0.016
   14  0.013  0.000  0.006  0.019
   15  0.004  0.003  0.009  0.016
   16  0.013  0.004  0.010  0.027
   17  0.004  0.003  0.009  0.016
   18  0.016  0.004  0.002  0.022
   19  0.010  0.009  0.005  0.024
   20  0.057  0.004  0.004  0.065
   21  0.015  0.001  0.014  0.030
   22  0.000  0.007  0.005  0.012
   23  0.013  0.001  0.014  0.028
   24  0.000  0.002  0.004  0.006
   25  0.044  0.001  0.007  0.051
   26  0.012  0.009  0.005  0.026
   27  0.000  0.007  0.005  0.013
   28  0.000  0.004  0.005  0.009
   29  0.011  0.003  0.003  0.017
   30  0.009  0.002  0.003  0.014
   31  0.010  0.003  0.003  0.017
   32  0.000  0.001  0.003  0.004
   33  0.008  0.002  0.003  0.013
   34  0.000  0.001  0.003  0.004
   35  0.000  0.000  0.003  0.003
   36  0.000  0.004  0.025  0.028
tot    0.344  0.113  0.193  0.650
 
band     5 # energy   -5.71580844 # occ.  2.00000000
 
ion      s      p      d    tot
    1  0.000  0.003  0.005  0.008
    2  0.000  0.001  0.002  0.003
    3  0.005  0.002  0.002  0.009
    4  0.000  0.001  0.002  0.003
    5  0.000  0.001  0.002  0.004
    6  0.007  0.002  0.002  0.011
    7  0.005  0.002  0.002  0.009
    8  0.008  0.002  0.002  0.012
    9  0.000  0.000  0.003  0.003
   10  0.000  0.004  0.012  0.016
   11  0.010  0.003  0.005  0.018
   12  0.042  0.004  0.006  0.052
   13  0.009  0.004  0.005  0.017
   14  0.000  0.013  0.002  0.015
   15  0.012  0.003  0.004  0.020
   16  0.044  0.004  0.006  0.054
   17  0.012  0.003  0.005  0.020
   18  0.000  0.002  0.011  0.014
   19  0.034  0.003  0.006  0.043
   20  0.000  0.000  0.017  0.017
   21  0.041  0.003  0.008  0.052
   22  0.000  0.004  0.005  0.008
   23  0.044  0.003  0.007  0.054
   24  0.000  0.009  0.005  0.014
   25  0.000  0.011  0.005  0.016
   26  0.032  0.004  0.006  0.042
   27  0.000  0.003  0.005  0.008
   28  0.000  0.004  0.005  0.009
   29  0.002  0.001  0.003  0.006
   30  0.004  0.002  0.003  0.009
   31  0.002  0.001  0.003  0.006
   32  0.013  0.003  0.003  0.019
   33  0.005  0.002  0.003  0.010
   34  0.013  0.003  0.003  0.019
   35  0.000  0.000  0.003  0.003
   36  0.000  0.004  0.025  0.028
tot    0.344  0.113  0.193  0.650
 
band     6 # energy   -5.70221507 # occ.  2.00000000
 
ion      s      p      d    tot
    1  0.001  0.000  0.000  0.001
    2  0.000  0.002  0.004  0.005
    3  0.000  0.002  0.004  0.005
    4  0.000  0.002  0.004  0.005
    5  0.012  0.003  0.001  0.016
    6  0.000  0.002  0.004  0.005
    7  0.000  0.002  0.004  0.005
    8  0.000  0.002  0.004  0.005
    9  0.014  0.002  0.000  0.016
   10  0.000  0.003  0.008  0.011
   11  0.025  0.009  0.002  0.036
   12  0.000  0.003  0.008  0.011
   13  0.025  0.009  0.002  0.036
   14  0.025  0.009  0.002  0.036
   15  0.018  0.002  0.009  0.029
   16  0.000  0.003  0.008  0.011
   17  0.018  0.002  0.009  0.029
   18  0.018  0.002  0.009  0.029
   19  0.005  0.000  0.012  0.018
   20  0.034  0.007  0.005  0.046
   21  0.034  0.007  0.005  0.046
   22  0.009  0.008  0.004  0.021
   23  0.034  0.007  0.005  0.046
   24  0.009  0.008  0.004  0.021
   25  0.005  0.000  0.012  0.018
   26  0.005  0.000  0.012  0.018
   27  0.009  0.008  0.004  0.021
   28  0.005  0.000  0.000  0.006
   29  0.000  0.002  0.004  0.007
   30  0.000  0.002  0.004  0.007
   31  0.000  0.002  0.004  0.007
   32  0.000  0.002  0.004  0.007
   33  0.000  0.002  0.004  0.007
   34  0.000  0.002  0.004  0.007
   35  0.014  0.001  0.000  0.016
   36  0.033  0.006  0.006  0.045
tot    0.360  0.117  0.176  0.653
 
band     7 # energy   -5.69198267 # occ.  2.00000000
 
ion      s      p      d    tot
    1  0.000  0.000  0.002  0.002
    2  0.009  0.002  0.002  0.014
    3  0.005  0.002  0.002  0.008
    4  0.009  0.002  0.002  0.013
    5  0.000  0.002  0.005  0.006
    6  0.002  0.001  0.002  0.005
    7  0.003  0.001  0.002  0.006
    8  0.001  0.001  0.002  0.003
    9  0.000  0.003  0.004  0.007
   10  0.000  0.008  0.005  0.014
   11  0.039  0.004  0.005  0.048
   12  0.000  0.004  0.005  0.009
   13  0.031  0.003  0.007  0.041
   14  0.000  0.000  0.016  0.016
   15  0.034  0.003  0.006  0.043
   16  0.000  0.003  0.004  0.007
   17  0.027  0.004  0.006  0.037
   18  0.000  0.011  0.005  0.016
   19  0.017  0.004  0.004  0.025
   20  0.000  0.015  0.001  0.015
   21  0.008  0.005  0.004  0.018
   22  0.043  0.004  0.007  0.054
   23  0.010  0.003  0.005  0.018
   24  0.001  0.005  0.013  0.018
   25  0.000  0.002  0.013  0.016
   26  0.014  0.003  0.006  0.023
   27  0.053  0.004  0.006  0.063
   28  0.000  0.001  0.004  0.005
   29  0.012  0.003  0.003  0.017
   30  0.007  0.002  0.003  0.013
   31  0.011  0.002  0.003  0.016
   32  0.002  0.001  0.003  0.005
   33  0.005  0.002  0.003  0.010
   34  0.000  0.001  0.003  0.004
   35  0.000  0.004  0.006  0.010
   36  0.000  0.003  0.014  0.017
tot    0.343  0.117  0.183  0.643
 
band     8 # energy   -5.69196987 # occ.  2.00000000
 
ion      s      p      d    tot
    1  0.000  0.000  0.002  0.002
    2  0.000  0.001  0.002  0.003
    3  0.004  0.002  0.002  0.008
    4  0.001  0.001  0.002  0.003
    5  0.000  0.002  0.005  0.006
    6  0.007  0.002  0.002  0.012
    7  0.006  0.002  0.002  0.010
    8  0.009  0.002  0.002  0.013
    9  0.000  0.003  0.004  0.007
   10  0.000  0.002  0.004  0.006
   11  0.008  0.001  0.013  0.022
   12  0.000  0.006  0.005  0.011
   13  0.016  0.002  0.011  0.029
   14  0.047  0.005  0.003  0.054
   15  0.007  0.009  0.006  0.022
   16  0.000  0.007  0.005  0.012
   17  0.014  0.007  0.006  0.027
   18  0.041  0.001  0.006  0.048
   19  0.004  0.003  0.012  0.018
   20  0.012  0.000  0.006  0.019
   21  0.004  0.010  0.003  0.017
   22  0.022  0.004  0.010  0.036
   23  0.002  0.012  0.002  0.016
   24  0.064  0.004  0.004  0.072
   25  0.021  0.004  0.002  0.027
   26  0.007  0.003  0.010  0.020
   27  0.011  0.005  0.011  0.027
   28  0.000  0.001  0.004  0.005
   29  0.000  0.001  0.003  0.004
   30  0.005  0.001  0.003  0.009
   31  0.001  0.001  0.003  0.006
   32  0.010  0.003  0.003  0.016
   33  0.008  0.002  0.003  0.012
   34  0.012  0.003  0.003  0.018
   35  0.000  0.004  0.006  0.010
   36  0.000  0.003  0.014  0.017
tot    0.343  0.117  0.183  0.643
 
band     9 # energy   -5.67067943 # occ.  2.00000000
 
ion      s      p      d    tot
    1  0.021  0.003  0.001  0.025
    2  0.000  0.002  0.004  0.006
    3  0.000  0.002  0.004  0.006
    4  0.000  0.002  0.004  0.006
    5  0.002  0.000  0.001  0.003
    6  0.000  0.002  0.004  0.006
    7  0.000  0.002  0.004  0.006
    8  0.000  0.002  0.004  0.006
    9  0.007  0.001  0.000  0.009
   10  0.030  0.006  0.005  0.041
   11  0.007  0.000  0.011  0.018
   12  0.030  0.006  0.005  0.041
   13  0.007  0.000  0.011  0.018
   14  0.007  0.000  0.011  0.018
   15  0.010  0.008  0.004  0.021
   16  0.030  0.006  0.005  0.041
   17  0.010  0.008  0.004  0.021
   18  0.010  0.008  0.004  0.021
   19  0.025  0.009  0.002  0.036
   20  0.000  0.003  0.008  0.012
   21  0.000  0.003  0.009  0.012
   22  0.023  0.002  0.010  0.035
   23  0.000  0.003  0.009  0.012
   24  0.023  0.002  0.010  0.035
   25  0.025  0.009  0.002  0.036
   26  0.025  0.009  0.002  0.036
   27  0.023  0.002  0.010  0.035
   28  0.022  0.003  0.000  0.026
   29  0.000  0.002  0.004  0.006
   30  0.000  0.002  0.004  0.006
   31  0.000  0.002  0.004  0.006
   32  0.000  0.002  0.004  0.006
   33  0.000  0.002  0.004  0.006
   34  0.000  0.002  0.004  0.006
   35  0.011  0.002  0.001  0.015
   36  0.001  0.000  0.000  0.001
tot    0.347  0.117  0.175  0.639
 
band    10 # energy   -4.99978311 # occ.  2.00000000
 
ion      s      p      d    tot
    1  0.000  0.003  0.009  0.012
    2  0.016  0.003  0.004  0.024
    3  0.000  0.001  0.004  0.006
    4  0.016  0.003  0.004  0.023
    5  0.000  0.000  0.009  0.009
    6  0.011  0.003  0.005  0.019
    7  0.000  0.001  0.004  0.006
    8  0.011  0.003  0.005  0.019
    9  0.000  0.005  0.008  0.013
   10  0.000  0.005  0.013  0.018
   11  0.004  0.002  0.008  0.014
   12  0.007  0.002  0.008  0.017
   13  0.004  0.002  0.008  0.014
   14  0.000  0.002  0.014  0.017
   15  0.021  0.003  0.008  0.032
   16  0.007  0.002  0.008  0.017
   17  0.021  0.003  0.008  0.032
   18  0.000  0.000  0.020  0.020
   19  0.006  0.004  0.009  0.020
   20  0.000  0.002  0.017  0.019
   21  0.000  0.001  0.012  0.013
   22  0.006  0.003  0.008  0.017
   23  0.000  0.001  0.012  0.013
   24  0.000  0.001  0.028  0.029
   25  0.000  0.000  0.011  0.011
   26  0.006  0.005  0.009  0.020
   27  0.006  0.003  0.009  0.018
   28  0.000  0.004  0.006  0.010
   29  0.022  0.003  0.009  0.034
   30  0.000  0.002  0.009  0.012
   31  0.022  0.003  0.009  0.034
   32  0.018  0.002  0.009  0.029
   33  0.000  0.002  0.009  0.012
   34  0.018  0.002  0.009  0.029
   35  0.000  0.005  0.008  0.013
   36  0.000  0.000  0.073  0.074
tot    0.225  0.087  0.404  0.716
 
band    11 # energy   -4.99975888 # occ.  2.00000000
 
ion      s      p      d    tot
    1  0.000  0.003  0.009  0.012
    2  0.002  0.002  0.004  0.009
    3  0.018  0.004  0.005  0.026
    4  0.003  0.002  0.004  0.009
    5  0.000  0.000  0.009  0.009
    6  0.007  0.002  0.004  0.014
    7  0.018  0.004  0.005  0.026
    8  0.007  0.002  0.004  0.013
    9  0.000  0.005  0.008  0.013
   10  0.009  0.001  0.006  0.016
   11  0.001  0.002  0.012  0.016
   12  0.002  0.004  0.011  0.018
   13  0.001  0.002  0.012  0.016
   14  0.005  0.002  0.006  0.013
   15  0.007  0.001  0.016  0.024
   16  0.002  0.004  0.011  0.018
   17  0.007  0.001  0.016  0.024
   18  0.028  0.004  0.004  0.036
   19  0.002  0.002  0.010  0.014
   20  0.000  0.001  0.010  0.011
   21  0.000  0.002  0.015  0.017
   22  0.002  0.002  0.022  0.026
   23  0.000  0.002  0.015  0.017
   24  0.008  0.004  0.002  0.014
   25  0.008  0.006  0.008  0.023
   26  0.002  0.002  0.010  0.014
   27  0.002  0.002  0.022  0.025
   28  0.000  0.004  0.006  0.010
   29  0.005  0.002  0.009  0.016
   30  0.027  0.002  0.009  0.038
   31  0.005  0.002  0.009  0.016
   32  0.009  0.003  0.009  0.021
   33  0.027  0.002  0.009  0.038
   34  0.009  0.003  0.009  0.021
   35  0.000  0.005  0.008  0.013
   36  0.000  0.000  0.073  0.074
tot    0.225  0.087  0.404  0.716
 
band    12 # energy   -4.97469671 # occ.  2.00000000
 
ion      s      p      d    tot
    1  0.000  0.002  0.007  0.009
    2  0.004  0.001  0.010  0.016
    3  0.004  0.001  0.010  0.016
    4  0.004  0.001  0.010  0.016
    5  0.036  0.001  0.004  0.040
    6  0.004  0.001  0.010  0.016
    7  0.004  0.001  0.010  0.016
    8  0.004  0.001  0.010  0.016
    9  0.000  0.001  0.009  0.010
   10  0.009  0.001  0.018  0.028
   11  0.000  0.002  0.020  0.022
   12  0.009  0.001  0.018  0.028
   13  0.000  0.002  0.020  0.022
   14  0.000  0.002  0.020  0.022
   15  0.013  0.000  0.020  0.034
   16  0.009  0.001  0.018  0.028
   17  0.013  0.000  0.020  0.034
   18  0.014  0.000  0.020  0.034
   19  0.009  0.001  0.014  0.025
   20  0.000  0.001  0.020  0.021
   21  0.000  0.001  0.020  0.021
   22  0.005  0.001  0.016  0.021
   23  0.000  0.001  0.020  0.021
   24  0.005  0.001  0.016  0.021
   25  0.009  0.001  0.014  0.025
   26  0.009  0.001  0.014  0.025
   27  0.005  0.001  0.016  0.021
   28  0.002  0.002  0.004  0.007
   29  0.001  0.002  0.010  0.013
   30  0.001  0.002  0.010  0.013
   31  0.001  0.002  0.010  0.013
   32  0.001  0.002  0.010  0.013
   33  0.001  0.002  0.010  0.013
   34  0.001  0.002  0.010  0.013
   35  0.002  0.001  0.003  0.006
   36  0.052  0.001  0.012  0.065
tot    0.235  0.046  0.482  0.763
 
band    13 # energy   -4.93398992 # occ.  2.00000000
 
ion      s      p      d    tot
    1  0.016  0.000  0.003  0.019
    2  0.002  0.002  0.010  0.014
    3  0.002  0.002  0.010  0.014
    4  0.002  0.002  0.010  0.014
    5  0.014  0.005  0.006  0.025
    6  0.002  0.002  0.010  0.014
    7  0.002  0.002  0.010  0.014
    8  0.002  0.002  0.010  0.014
    9  0.017  0.000  0.002  0.019
   10  0.001  0.001  0.022  0.024
   11  0.019  0.003  0.015  0.037
   12  0.001  0.001  0.022  0.024
   13  0.019  0.003  0.015  0.037
   14  0.019  0.003  0.015  0.037
   15  0.000  0.001  0.015  0.016
   16  0.001  0.001  0.022  0.024
   17  0.000  0.001  0.015  0.016
   18  0.000  0.001  0.015  0.016
   19  0.000  0.001  0.012  0.013
   20  0.014  0.004  0.020  0.038
   21  0.014  0.004  0.020  0.038
   22  0.001  0.000  0.021  0.022
   23  0.014  0.004  0.020  0.038
   24  0.001  0.000  0.021  0.022
   25  0.000  0.001  0.012  0.013
   26  0.000  0.001  0.012  0.013
   27  0.001  0.000  0.021  0.022
   28  0.013  0.000  0.002  0.015
   29  0.002  0.002  0.008  0.011
   30  0.002  0.002  0.008  0.011
   31  0.002  0.002  0.008  0.011
   32  0.002  0.002  0.008  0.011
   33  0.002  0.002  0.008  0.011
   34  0.002  0.002  0.008  0.011
   35  0.014  0.000  0.003  0.017
   36  0.024  0.007  0.020  0.051
tot    0.225  0.063  0.457  0.746
 
band    14 # energy   -4.91972758 # occ.  2.00000000
 
ion      s      p      d    tot
    1  0.000  0.003  0.010  0.012
    2  0.020  0.004  0.006  0.030
    3  0.001  0.002  0.005  0.008
    4  0.020  0.004  0.006  0.029
    5  0.000  0.006  0.010  0.016
    6  0.012  0.003  0.006  0.021
    7  0.001  0.002  0.005  0.008
    8  0.013  0.003  0.006  0.021
    9  0.000  0.001  0.013  0.013
   10  0.018  0.005  0.008  0.031
   11  0.005  0.003  0.021  0.029
   12  0.004  0.001  0.017  0.023
   13  0.005  0.003  0.021  0.029
   14  0.020  0.004  0.005  0.029
   15  0.000  0.003  0.015  0.018
   16  0.005  0.001  0.017  0.023
   17  0.000  0.003  0.015  0.018
   18  0.000  0.000  0.009  0.009
   19  0.001  0.002  0.018  0.021
   20  0.019  0.006  0.004  0.029
   21  0.005  0.002  0.022  0.028
   22  0.002  0.001  0.011  0.014
   23  0.005  0.002  0.021  0.028
   24  0.007  0.003  0.010  0.020
   25  0.002  0.000  0.006  0.009
   26  0.001  0.002  0.018  0.021
   27  0.002  0.001  0.011  0.014
   28  0.000  0.002  0.010  0.012
   29  0.015  0.003  0.006  0.025
   30  0.000  0.001  0.005  0.006
   31  0.015  0.003  0.006  0.024
   32  0.011  0.003  0.006  0.019
   33  0.000  0.001  0.005  0.006
   34  0.011  0.003  0.006  0.020
   35  0.000  0.001  0.009  0.009
   36  0.000  0.009  0.029  0.038
tot    0.220  0.097  0.396  0.713
 
band    15 # energy   -4.91967712 # occ.  2.00000000
 
ion      s      p      d    tot
    1  0.000  0.003  0.010  0.012
    2  0.002  0.002  0.005  0.009
    3  0.021  0.004  0.006  0.031
    4  0.002  0.002  0.005  0.010
    5  0.000  0.006  0.010  0.016
    6  0.010  0.003  0.005  0.018
    7  0.021  0.004  0.006  0.031
    8  0.010  0.003  0.005  0.018
    9  0.000  0.001  0.013  0.013
   10  0.000  0.000  0.020  0.020
   11  0.015  0.003  0.011  0.029
   12  0.014  0.004  0.011  0.029
   13  0.015  0.003  0.010  0.029
   14  0.000  0.002  0.027  0.029
   15  0.000  0.001  0.011  0.012
   16  0.014  0.004  0.011  0.028
   17  0.000  0.001  0.011  0.012
   18  0.000  0.004  0.017  0.021
   19  0.002  0.001  0.010  0.013
   20  0.000  0.001  0.028  0.028
   21  0.015  0.005  0.009  0.029
   22  0.005  0.002  0.010  0.018
   23  0.014  0.005  0.010  0.029
   24  0.000  0.001  0.012  0.013
   25  0.000  0.003  0.022  0.025
   26  0.002  0.001  0.010  0.013
   27  0.005  0.002  0.010  0.018
   28  0.000  0.002  0.010  0.012
   29  0.002  0.002  0.005  0.009
   30  0.017  0.004  0.006  0.027
   31  0.003  0.002  0.005  0.009
   32  0.007  0.002  0.005  0.014
   33  0.017  0.004  0.006  0.027
   34  0.007  0.002  0.005  0.014
   35  0.000  0.001  0.009  0.009
   36  0.000  0.009  0.029  0.038
tot    0.220  0.097  0.396  0.713
 
band    16 # energy   -4.90322892 # occ.  2.00000000
 
ion      s      p      d    tot
    1  0.032  0.003  0.000  0.035
    2  0.000  0.003  0.010  0.013
    3  0.000  0.003  0.010  0.013
    4  0.000  0.003  0.010  0.013
    5  0.000  0.000  0.000  0.000
    6  0.000  0.003  0.010  0.013
    7  0.000  0.003  0.010  0.013
    8  0.000  0.003  0.010  0.013
    9  0.032  0.004  0.000  0.037
   10  0.010  0.003  0.010  0.023
   11  0.001  0.000  0.015  0.016
   12  0.010  0.003  0.010  0.023
   13  0.001  0.000  0.015  0.016
   14  0.001  0.000  0.015  0.016
   15  0.007  0.004  0.017  0.028
   16  0.010  0.003  0.010  0.023
   17  0.007  0.004  0.017  0.028
   18  0.007  0.004  0.017  0.028
   19  0.005  0.003  0.019  0.027
   20  0.000  0.000  0.013  0.014
   21  0.000  0.000  0.013  0.014
   22  0.010  0.004  0.010  0.024
   23  0.000  0.000  0.013  0.014
   24  0.010  0.004  0.010  0.024
   25  0.005  0.003  0.019  0.027
   26  0.005  0.003  0.019  0.027
   27  0.010  0.004  0.010  0.024
   28  0.035  0.003  0.000  0.039
   29  0.000  0.003  0.010  0.013
   30  0.000  0.003  0.010  0.013
   31  0.000  0.003  0.010  0.013
   32  0.000  0.003  0.010  0.013
   33  0.000  0.003  0.010  0.013
   34  0.000  0.003  0.010  0.013
   35  0.032  0.004  0.001  0.036
   36  0.000  0.000  0.000  0.000
tot    0.230  0.095  0.379  0.704
 
band    17 # energy   -4.38312830 # occ.  2.00000000
 
ion      s      p      d    tot
    1  0.000  0.001  0.023  0.024
    2  0.015  0.002  0.007  0.023
    3  0.006  0.001  0.006  0.013
    4  0.015  0.002  0.007  0.023
    5  0.000  0.001  0.012  0.013
    6  0.002  0.001  0.006  0.010
    7  0.005  0.001  0.006  0.013
    8  0.002  0.001  0.006  0.010
    9  0.000  0.003  0.003  0.007
   10  0.000  0.000  0.058  0.058
   11  0.000  0.003  0.015  0.018
   12  0.000  0.000  0.018  0.018
   13  0.000  0.003  0.015  0.018
   14  0.000  0.000  0.004  0.004
   15  0.000  0.005  0.015  0.020
   16  0.000  0.000  0.017  0.017
   17  0.000  0.005  0.015  0.020
   18  0.000  0.000  0.027  0.027
   19  0.007  0.002  0.011  0.020
   20  0.000  0.000  0.049  0.049
   21  0.000  0.000  0.021  0.021
   22  0.004  0.001  0.015  0.020
   23  0.000  0.000  0.020  0.021
   24  0.000  0.001  0.008  0.009
   25  0.000  0.000  0.022  0.022
   26  0.007  0.002  0.011  0.020
   27  0.004  0.001  0.015  0.021
   28  0.000  0.000  0.005  0.006
   29  0.006  0.000  0.021  0.028
   30  0.000  0.001  0.015  0.016
   31  0.007  0.000  0.021  0.028
   32  0.008  0.000  0.019  0.027
   33  0.000  0.001  0.015  0.016
   34  0.007  0.000  0.019  0.027
   35  0.000  0.001  0.005  0.005
   36  0.000  0.000  0.128  0.128
tot    0.095  0.041  0.682  0.818
 
band    18 # energy   -4.38308882 # occ.  2.00000000
 
ion      s      p      d    tot
    1  0.000  0.001  0.023  0.024
    2  0.000  0.001  0.006  0.007
    3  0.009  0.001  0.007  0.017
    4  0.000  0.001  0.006  0.007
    5  0.000  0.001  0.012  0.013
    6  0.013  0.001  0.007  0.021
    7  0.010  0.001  0.007  0.018
    8  0.013  0.001  0.007  0.021
    9  0.000  0.003  0.003  0.007
   10  0.000  0.000  0.004  0.005
   11  0.000  0.001  0.007  0.008
   12  0.000  0.000  0.044  0.044
   13  0.000  0.001  0.008  0.009
   14  0.000  0.004  0.019  0.023
   15  0.000  0.002  0.023  0.025
   16  0.000  0.000  0.045  0.045
   17  0.000  0.002  0.023  0.024
   18  0.000  0.007  0.011  0.017
   19  0.002  0.001  0.019  0.022
   20  0.000  0.000  0.011  0.012
   21  0.000  0.000  0.039  0.040
   22  0.001  0.001  0.010  0.013
   23  0.000  0.000  0.040  0.040
   24  0.005  0.002  0.018  0.024
   25  0.010  0.003  0.007  0.019
   26  0.002  0.001  0.018  0.022
   27  0.001  0.001  0.010  0.012
   28  0.000  0.000  0.005  0.006
   29  0.003  0.001  0.016  0.020
   30  0.009  0.000  0.022  0.031
   31  0.003  0.001  0.016  0.019
   32  0.002  0.001  0.018  0.021
   33  0.009  0.000  0.022  0.031
   34  0.002  0.001  0.018  0.021
   35  0.000  0.001  0.005  0.005
   36  0.000  0.000  0.128  0.128
tot    0.095  0.041  0.682  0.818
 
band    19 # energy   -4.24522144 # occ.  2.00000000
 
ion      s      p      d    tot
    1  0.022  0.001  0.000  0.023
    2  0.000  0.001  0.016  0.018
    3  0.000  0.001  0.016  0.018
    4  0.000  0.001  0.016  0.018
    5  0.022  0.001  0.002  0.025
    6  0.000  0.001  0.016  0.018
    7  0.000  0.001  0.016  0.018
    8  0.000  0.001  0.016  0.018
    9  0.000  0.000  0.000  0.000
   10  0.000  0.002  0.031  0.032
   11  0.000  0.003  0.032  0.035
   12  0.000  0.002  0.031  0.032
   13  0.000  0.003  0.032  0.035
   14  0.000  0.003  0.032  0.035
   15  0.000  0.001  0.004  0.005
   16  0.000  0.002  0.031  0.032
   17  0.000  0.001  0.004  0.005
   18  0.000  0.001  0.004  0.005
   19  0.002  0.002  0.015  0.018
   20  0.001  0.003  0.029  0.032
   21  0.001  0.003  0.029  0.032
   22  0.000  0.001  0.019  0.020
   23  0.001  0.003  0.029  0.032
   24  0.000  0.001  0.019  0.020
   25  0.002  0.002  0.015  0.018
   26  0.002  0.002  0.015  0.018
   27  0.000  0.001  0.019  0.020
   28  0.006  0.000  0.005  0.011
   29  0.000  0.002  0.022  0.024
   30  0.000  0.002  0.022  0.024
   31  0.000  0.002  0.022  0.024
   32  0.000  0.002  0.022  0.024
   33  0.000  0.002  0.022  0.024
   34  0.000  0.002  0.022  0.024
   35  0.019  0.000  0.001  0.020
   36  0.037  0.000  0.013  0.051
tot    0.116  0.053  0.642  0.811
 
band    20 # energy   -4.20662494 # occ.  2.00000000
 
ion      s      p      d    tot
    1  0.007  0.000  0.002  0.009
    2  0.000  0.001  0.018  0.019
    3  0.000  0.001  0.018  0.019
    4  0.000  0.001  0.018  0.019
    5  0.008  0.000  0.000  0.008
    6  0.000  0.001  0.018  0.019
    7  0.000  0.001  0.018  0.019
    8  0.000  0.001  0.018  0.019
    9  0.031  0.001  0.001  0.033
   10  0.001  0.002  0.016  0.019
   11  0.000  0.000  0.012  0.012
   12  0.001  0.002  0.016  0.019
   13  0.000  0.000  0.012  0.012
   14  0.000  0.000  0.012  0.012
   15  0.000  0.003  0.042  0.046
   16  0.001  0.002  0.016  0.019
   17  0.000  0.003  0.042  0.046
   18  0.000  0.003  0.042  0.046
   19  0.000  0.002  0.035  0.037
   20  0.000  0.000  0.006  0.007
   21  0.000  0.000  0.006  0.007
   22  0.001  0.003  0.030  0.034
   23  0.000  0.000  0.006  0.007
   24  0.001  0.003  0.030  0.035
   25  0.000  0.002  0.035  0.037
   26  0.000  0.002  0.035  0.037
   27  0.001  0.003  0.030  0.034
   28  0.026  0.001  0.001  0.028
   29  0.000  0.001  0.018  0.019
   30  0.000  0.001  0.018  0.019
   31  0.000  0.001  0.018  0.019
   32  0.000  0.001  0.018  0.019
   33  0.000  0.001  0.018  0.019
   34  0.000  0.001  0.018  0.019
   35  0.019  0.000  0.003  0.022
   36  0.001  0.000  0.001  0.003
tot    0.099  0.054  0.647  0.800
 
band    21 # energy   -4.19820391 # occ.  2.00000000
 
ion      s      p      d    tot
    1  0.000  0.002  0.001  0.004
    2  0.014  0.001  0.010  0.026
    3  0.008  0.001  0.009  0.019
    4  0.014  0.001  0.010  0.026
    5  0.000  0.002  0.023  0.025
    6  0.001  0.001  0.010  0.011
    7  0.008  0.001  0.009  0.019
    8  0.001  0.001  0.010  0.011
    9  0.000  0.000  0.032  0.032
   10  0.001  0.007  0.021  0.029
   11  0.000  0.001  0.042  0.043
   12  0.000  0.002  0.012  0.015
   13  0.000  0.001  0.042  0.043
   14  0.001  0.002  0.005  0.008
   15  0.000  0.000  0.032  0.033
   16  0.000  0.002  0.012  0.015
   17  0.000  0.000  0.032  0.033
   18  0.000  0.001  0.013  0.015
   19  0.000  0.000  0.045  0.046
   20  0.001  0.007  0.017  0.026
   21  0.000  0.002  0.014  0.016
   22  0.000  0.001  0.026  0.027
   23  0.000  0.002  0.014  0.016
   24  0.000  0.002  0.016  0.018
   25  0.001  0.001  0.004  0.006
   26  0.000  0.000  0.046  0.046
   27  0.000  0.001  0.026  0.027
   28  0.000  0.001  0.028  0.030
   29  0.011  0.001  0.010  0.022
   30  0.000  0.001  0.010  0.010
   31  0.011  0.001  0.010  0.022
   32  0.010  0.001  0.009  0.020
   33  0.000  0.001  0.010  0.010
   34  0.010  0.001  0.009  0.020
   35  0.000  0.000  0.027  0.027
   36  0.000  0.004  0.002  0.006
tot    0.096  0.055  0.652  0.802
 
band    22 # energy   -4.19813652 # occ.  2.00000000
 
ion      s      p      d    tot
    1  0.000  0.002  0.001  0.004
    2  0.001  0.001  0.009  0.012
    3  0.007  0.001  0.010  0.018
    4  0.001  0.001  0.009  0.012
    5  0.000  0.002  0.023  0.025
    6  0.015  0.001  0.010  0.026
    7  0.007  0.001  0.010  0.018
    8  0.015  0.001  0.010  0.026
    9  0.000  0.000  0.032  0.032
   10  0.000  0.000  0.010  0.010
   11  0.001  0.002  0.017  0.020
   12  0.001  0.005  0.018  0.025
   13  0.001  0.002  0.017  0.020
   14  0.000  0.000  0.055  0.055
   15  0.000  0.001  0.020  0.021
   16  0.001  0.005  0.018  0.024