PROCAR new format
# of k-points:   10         # of bands:  252         # of ions:   38

 k-point     1 :    0.00000000 0.00000000 0.00000000     weight = 0.01562500

band     1 # energy  -19.64606375 # occ.  2.00000000
 
ion      s      p      d    tot
    1  0.000  0.000  0.000  0.000
    2  0.000  0.000  0.000  0.000
    3  0.000  0.000  0.000  0.000
    4  0.000  0.000  0.000  0.000
    5  0.000  0.000  0.000  0.000
    6  0.000  0.000  0.000  0.000
    7  0.000  0.000  0.000  0.000
    8  0.000  0.000  0.000  0.000
    9  0.000  0.000  0.000  0.000
   10  0.000  0.000  0.000  0.000
   11  0.000  0.000  0.000  0.000
   12  0.000  0.000  0.000  0.000
   13  0.000  0.000  0.000  0.000
   14  0.000  0.000  0.000  0.000
   15  0.000  0.000  0.000  0.000
   16  0.000  0.000  0.000  0.000
   17  0.000  0.000  0.000  0.000
   18  0.000  0.000  0.000  0.000
   19  0.000  0.000  0.000  0.000
   20  0.000  0.000  0.000  0.000
   21  0.000  0.000  0.000  0.000
   22  0.000  0.000  0.000  0.000
   23  0.000  0.000  0.000  0.000
   24  0.000  0.000  0.000  0.000
   25  0.000  0.000  0.000  0.000
   26  0.000  0.000  0.000  0.000
   27  0.000  0.000  0.000  0.000
   28  0.000  0.000  0.000  0.000
   29  0.000  0.000  0.000  0.000
   30  0.000  0.000  0.000  0.000
   31  0.000  0.000  0.000  0.000
   32  0.000  0.000  0.000  0.000
   33  0.000  0.000  0.000  0.000
   34  0.000  0.000  0.000  0.000
   35  0.000  0.000  0.000  0.000
   36  0.010  0.014  0.013  0.038
   37  0.740  0.016  0.000  0.756
   38  0.117  0.024  0.000  0.141
tot    0.868  0.054  0.013  0.936
 
band     2 # energy   -8.54173002 # occ.  2.00000000
 
ion      s      p      d    tot
    1  0.005  0.001  0.000  0.006
    2  0.005  0.001  0.000  0.006
    3  0.005  0.001  0.000  0.006
    4  0.005  0.001  0.000  0.006
    5  0.005  0.001  0.000  0.006
    6  0.005  0.001  0.000  0.006
    7  0.005  0.001  0.000  0.006
    8  0.005  0.001  0.000  0.006
    9  0.005  0.001  0.000  0.006
   10  0.020  0.000  0.000  0.020
   11  0.020  0.000  0.000  0.021
   12  0.020  0.000  0.000  0.020
   13  0.020  0.000  0.000  0.021
   14  0.020  0.000  0.000  0.021
   15  0.020  0.000  0.000  0.020
   16  0.020  0.000  0.000  0.020
   17  0.020  0.000  0.000  0.020
   18  0.020  0.000  0.000  0.020
   19  0.021  0.000  0.000  0.021
   20  0.024  0.000  0.000  0.024
   21  0.024  0.000  0.000  0.024
   22  0.022  0.000  0.000  0.022
   23  0.024  0.000  0.000  0.024
   24  0.022  0.000  0.000  0.022
   25  0.021  0.000  0.000  0.021
   26  0.021  0.000  0.000  0.021
   27  0.022  0.000  0.000  0.022
   28  0.006  0.001  0.000  0.007
   29  0.007  0.001  0.000  0.008
   30  0.007  0.001  0.000  0.008
   31  0.007  0.001  0.000  0.008
   32  0.007  0.001  0.000  0.008
   33  0.007  0.001  0.000  0.008
   34  0.007  0.001  0.000  0.008
   35  0.006  0.001  0.000  0.007
   36  0.027  0.002  0.010  0.039
   37  0.002  0.068  0.000  0.070
   38  0.024  0.003  0.000  0.026
tot    0.536  0.085  0.011  0.631
 
band     3 # energy   -8.14127764 # occ.  2.00000000
 
ion      s      p      d    tot
    1  0.003  0.000  0.000  0.003
    2  0.003  0.000  0.000  0.003
    3  0.003  0.000  0.000  0.003
    4  0.003  0.000  0.000  0.003
    5  0.002  0.000  0.000  0.003
    6  0.003  0.000  0.000  0.003
    7  0.003  0.000  0.000  0.003
    8  0.003  0.000  0.000  0.003
    9  0.003  0.000  0.000  0.003
   10  0.006  0.000  0.000  0.006
   11  0.006  0.000  0.000  0.006
   12  0.006  0.000  0.000  0.006
   13  0.006  0.000  0.000  0.006
   14  0.006  0.000  0.000  0.006
   15  0.007  0.000  0.000  0.007
   16  0.006  0.000  0.000  0.006
   17  0.007  0.000  0.000  0.007
   18  0.007  0.000  0.000  0.007
   19  0.003  0.000  0.000  0.003
   20  0.001  0.001  0.000  0.002
   21  0.001  0.001  0.000  0.002
   22  0.002  0.000  0.000  0.003
   23  0.001  0.001  0.000  0.002
   24  0.002  0.000  0.000  0.003
   25  0.003  0.000  0.000  0.003
   26  0.003  0.000  0.000  0.003
   27  0.002  0.000  0.000  0.003
   28  0.000  0.000  0.000  0.000
   29  0.000  0.000  0.000  0.001
   30  0.000  0.000  0.000  0.001
   31  0.000  0.000  0.000  0.001
   32  0.000  0.000  0.000  0.001
   33  0.000  0.000  0.000  0.001
   34  0.000  0.000  0.000  0.001
   35  0.000  0.000  0.000  0.000
   36  0.049  0.038  0.076  0.163
   37  0.022  0.435  0.000  0.456
   38  0.146  0.015  0.000  0.161
tot    0.315  0.496  0.080  0.891
 
band     4 # energy   -7.12051939 # occ.  2.00000000
 
ion      s      p      d    tot
    1  0.018  0.001  0.001  0.019
    2  0.018  0.001  0.001  0.019
    3  0.018  0.001  0.001  0.019
    4  0.018  0.001  0.001  0.019
    5  0.018  0.001  0.001  0.019
    6  0.018  0.001  0.001  0.019
    7  0.018  0.001  0.001  0.019
    8  0.018  0.001  0.001  0.019
    9  0.018  0.001  0.001  0.019
   10  0.008  0.002  0.000  0.011
   11  0.008  0.002  0.000  0.011
   12  0.008  0.002  0.000  0.011
   13  0.008  0.002  0.000  0.011
   14  0.008  0.002  0.000  0.011
   15  0.008  0.003  0.001  0.011
   16  0.008  0.002  0.000  0.011
   17  0.008  0.003  0.001  0.011
   18  0.008  0.003  0.001  0.011
   19  0.013  0.002  0.001  0.016
   20  0.010  0.002  0.001  0.012
   21  0.010  0.002  0.001  0.012
   22  0.013  0.002  0.001  0.016
   23  0.010  0.002  0.001  0.012
   24  0.013  0.002  0.001  0.016
   25  0.013  0.002  0.001  0.016
   26  0.013  0.002  0.001  0.016
   27  0.013  0.002  0.001  0.016
   28  0.019  0.001  0.000  0.020
   29  0.016  0.001  0.000  0.017
   30  0.016  0.001  0.000  0.017
   31  0.016  0.001  0.000  0.017
   32  0.016  0.001  0.000  0.017
   33  0.016  0.001  0.000  0.017
   34  0.016  0.001  0.000  0.017
   35  0.019  0.001  0.000  0.020
   36  0.004  0.006  0.011  0.021
   37  0.003  0.022  0.000  0.025
   38  0.007  0.001  0.000  0.007
tot    0.487  0.083  0.030  0.599
 
band     5 # energy   -5.53119009 # occ.  2.00000000
 
ion      s      p      d    tot
    1  0.016  0.000  0.005  0.021
    2  0.012  0.001  0.006  0.019
    3  0.012  0.001  0.006  0.019
    4  0.012  0.001  0.006  0.019
    5  0.002  0.001  0.007  0.010
    6  0.012  0.001  0.006  0.019
    7  0.012  0.001  0.006  0.019
    8  0.012  0.001  0.006  0.019
    9  0.028  0.000  0.003  0.031
   10  0.002  0.003  0.005  0.010
   11  0.020  0.006  0.001  0.027
   12  0.002  0.003  0.005  0.010
   13  0.020  0.006  0.001  0.027
   14  0.020  0.006  0.001  0.027
   15  0.000  0.002  0.007  0.009
   16  0.002  0.003  0.005  0.010
   17  0.000  0.002  0.007  0.009
   18  0.000  0.002  0.007  0.009
   19  0.000  0.002  0.006  0.008
   20  0.022  0.006  0.002  0.029
   21  0.022  0.006  0.002  0.029
   22  0.000  0.004  0.004  0.008
   23  0.022  0.006  0.002  0.029
   24  0.000  0.004  0.004  0.008
   25  0.000  0.002  0.006  0.008
   26  0.000  0.002  0.006  0.008
   27  0.000  0.004  0.004  0.008
   28  0.020  0.000  0.003  0.023
   29  0.012  0.001  0.006  0.019
   30  0.012  0.001  0.006  0.019
   31  0.012  0.001  0.006  0.019
   32  0.012  0.001  0.006  0.019
   33  0.012  0.001  0.006  0.019
   34  0.012  0.001  0.006  0.019
   35  0.026  0.000  0.004  0.030
   36  0.000  0.002  0.009  0.011
   37  0.000  0.000  0.000  0.000
   38  0.000  0.000  0.000  0.000
tot    0.375  0.080  0.173  0.628
 
band     6 # energy   -5.49951040 # occ.  2.00000000
 
ion      s      p      d    tot
    1  0.000  0.001  0.005  0.006
    2  0.008  0.002  0.002  0.013
    3  0.000  0.001  0.002  0.003
    4  0.008  0.002  0.002  0.012
    5  0.000  0.003  0.005  0.008
    6  0.007  0.002  0.002  0.011
    7  0.000  0.001  0.002  0.003
    8  0.007  0.002  0.002  0.012
    9  0.000  0.000  0.002  0.003
   10  0.044  0.005  0.002  0.051
   11  0.013  0.008  0.007  0.028
   12  0.010  0.001  0.013  0.025
   13  0.012  0.008  0.007  0.027
   14  0.050  0.002  0.006  0.058
   15  0.000  0.008  0.004  0.012
   16  0.011  0.001  0.013  0.026
   17  0.000  0.008  0.004  0.012
   18  0.000  0.001  0.005  0.006
   19  0.002  0.010  0.003  0.014
   20  0.062  0.003  0.006  0.071
   21  0.015  0.006  0.010  0.031
   22  0.006  0.002  0.012  0.020
   23  0.016  0.006  0.010  0.032
   24  0.027  0.004  0.002  0.033
   25  0.007  0.000  0.006  0.013
   26  0.002  0.010  0.003  0.014
   27  0.007  0.002  0.012  0.021
   28  0.000  0.001  0.003  0.004
   29  0.010  0.003  0.003  0.015
   30  0.000  0.001  0.002  0.004
   31  0.010  0.002  0.003  0.015
   32  0.006  0.002  0.002  0.010
   33  0.001  0.001  0.002  0.004
   34  0.006  0.002  0.002  0.010
   35  0.000  0.001  0.004  0.005
   36  0.000  0.005  0.004  0.009
   37  0.000  0.000  0.000  0.000
   38  0.000  0.000  0.000  0.000
tot    0.348  0.118  0.176  0.641
 
band     7 # energy   -5.49940918 # occ.  2.00000000
 
ion      s      p      d    tot
    1  0.000  0.001  0.005  0.006
    2  0.002  0.001  0.002  0.005
    3  0.010  0.002  0.002  0.015
    4  0.002  0.001  0.002  0.006
    5  0.000  0.003  0.005  0.008
    6  0.003  0.001  0.002  0.007
    7  0.010  0.002  0.002  0.015
    8  0.003  0.001  0.002  0.006
    9  0.000  0.000  0.002  0.003
   10  0.000  0.000  0.017  0.017
   11  0.037  0.004  0.007  0.047
   12  0.033  0.004  0.006  0.043
   13  0.038  0.004  0.006  0.048
   14  0.000  0.010  0.007  0.017
   15  0.000  0.004  0.005  0.008
   16  0.032  0.004  0.006  0.042
   17  0.000  0.003  0.005  0.008
   18  0.000  0.010  0.004  0.014
   19  0.005  0.004  0.005  0.014
   20  0.000  0.006  0.012  0.018
   21  0.048  0.004  0.007  0.058
   22  0.020  0.004  0.005  0.029
   23  0.046  0.004  0.007  0.057
   24  0.000  0.001  0.015  0.016
   25  0.000  0.013  0.002  0.015
   26  0.005  0.003  0.005  0.014
   27  0.020  0.004  0.006  0.029
   28  0.000  0.001  0.003  0.004
   29  0.001  0.001  0.002  0.004
   30  0.011  0.002  0.003  0.016
   31  0.001  0.001  0.002  0.004
   32  0.005  0.002  0.003  0.009
   33  0.010  0.002  0.002  0.015
   34  0.005  0.002  0.003  0.009
   35  0.000  0.001  0.004  0.005
   36  0.000  0.005  0.004  0.009
   37  0.000  0.000  0.000  0.000
   38  0.000  0.000  0.000  0.000
tot    0.348  0.118  0.176  0.641
 
band     8 # energy   -5.49123925 # occ.  2.00000000
 
ion      s      p      d    tot
    1  0.022  0.003  0.001  0.026
    2  0.000  0.002  0.004  0.006
    3  0.000  0.002  0.004  0.006
    4  0.000  0.002  0.004  0.006
    5  0.000  0.000  0.001  0.001
    6  0.000  0.002  0.004  0.006
    7  0.000  0.002  0.004  0.006
    8  0.000  0.002  0.004  0.006
    9  0.010  0.002  0.001  0.012
   10  0.028  0.005  0.007  0.040
   11  0.004  0.001  0.011  0.016
   12  0.028  0.005  0.007  0.040
   13  0.004  0.001  0.011  0.016
   14  0.004  0.001  0.011  0.016
   15  0.015  0.009  0.003  0.027
   16  0.028  0.005  0.007  0.040
   17  0.015  0.009  0.003  0.027
   18  0.015  0.009  0.003  0.027
   19  0.020  0.009  0.002  0.031
   20  0.000  0.002  0.010  0.012
   21  0.000  0.002  0.010  0.012
   22  0.027  0.003  0.008  0.038
   23  0.000  0.002  0.010  0.012
   24  0.027  0.003  0.008  0.038
   25  0.020  0.009  0.002  0.031
   26  0.020  0.009  0.002  0.031
   27  0.027  0.003  0.008  0.038
   28  0.019  0.002  0.000  0.022
   29  0.000  0.002  0.004  0.006
   30  0.000  0.002  0.004  0.006
   31  0.000  0.002  0.004  0.006
   32  0.000  0.002  0.004  0.006
   33  0.000  0.002  0.004  0.006
   34  0.000  0.002  0.004  0.006
   35  0.012  0.003  0.002  0.016
   36  0.000  0.000  0.000  0.000
   37  0.000  0.000  0.000  0.000
   38  0.000  0.000  0.000  0.000
tot    0.346  0.115  0.177  0.639
 
band     9 # energy   -5.48440936 # occ.  2.00000000
 
ion      s      p      d    tot
    1  0.000  0.002  0.003  0.005
    2  0.009  0.002  0.002  0.013
    3  0.000  0.001  0.002  0.003
    4  0.008  0.002  0.002  0.013
    5  0.000  0.000  0.003  0.003
    6  0.007  0.002  0.003  0.012
    7  0.000  0.001  0.002  0.003
    8  0.008  0.002  0.003  0.012
    9  0.000  0.003  0.006  0.009
   10  0.000  0.014  0.002  0.016
   11  0.009  0.004  0.005  0.018
   12  0.015  0.003  0.006  0.024
   13  0.010  0.004  0.005  0.018
   14  0.000  0.004  0.012  0.015
   15  0.047  0.004  0.007  0.058
   16  0.014  0.004  0.006  0.024
   17  0.048  0.004  0.007  0.059
   18  0.000  0.003  0.015  0.018
   19  0.041  0.004  0.006  0.051
   20  0.000  0.007  0.007  0.015
   21  0.002  0.003  0.005  0.010
   22  0.028  0.004  0.006  0.037
   23  0.002  0.003  0.005  0.010
   24  0.000  0.012  0.004  0.016
   25  0.000  0.001  0.017  0.017
   26  0.042  0.004  0.006  0.052
   27  0.027  0.004  0.006  0.037
   28  0.000  0.002  0.005  0.007
   29  0.009  0.002  0.003  0.014
   30  0.000  0.001  0.002  0.004
   31  0.009  0.002  0.003  0.014
   32  0.005  0.002  0.002  0.009
   33  0.001  0.001  0.002  0.004
   34  0.005  0.002  0.002  0.009
   35  0.000  0.003  0.004  0.007
   36  0.000  0.000  0.002  0.002
   37  0.000  0.000  0.000  0.000
   38  0.000  0.000  0.000  0.000
tot    0.345  0.116  0.178  0.638
 
band    10 # energy   -5.48432381 # occ.  2.00000000
 
ion      s      p      d    tot
    1  0.000  0.002  0.003  0.005
    2  0.002  0.001  0.002  0.006
    3  0.011  0.003  0.003  0.016
    4  0.002  0.001  0.002  0.006
    5  0.000  0.000  0.003  0.003
    6  0.003  0.001  0.002  0.007
    7  0.011  0.003  0.003  0.016
    8  0.003  0.001  0.002  0.007
    9  0.000  0.003  0.006  0.009
   10  0.019  0.000  0.007  0.027
   11  0.003  0.004  0.009  0.016
   12  0.005  0.011  0.003  0.018
   13  0.003  0.004  0.010  0.016
   14  0.013  0.003  0.003  0.019
   15  0.017  0.003  0.012  0.032
   16  0.005  0.010  0.003  0.018
   17  0.015  0.003  0.013  0.031
   18  0.064  0.004  0.004  0.072
   19  0.014  0.002  0.013  0.029
   20  0.002  0.002  0.004  0.008
   21  0.001  0.006  0.007  0.013
   22  0.009  0.010  0.005  0.023
   23  0.001  0.006  0.006  0.013
   24  0.036  0.001  0.007  0.044
   25  0.055  0.005  0.003  0.063
   26  0.013  0.002  0.013  0.028
   27  0.009  0.009  0.005  0.024
   28  0.000  0.002  0.005  0.007
   29  0.001  0.001  0.002  0.004
   30  0.009  0.002  0.002  0.014
   31  0.001  0.001  0.002  0.004
   32  0.005  0.002  0.002  0.009
   33  0.009  0.002  0.002  0.014
   34  0.005  0.002  0.002  0.009
   35  0.000  0.003  0.004  0.007
   36  0.000  0.000  0.002  0.002
   37  0.000  0.000  0.000  0.000
   38  0.000  0.000  0.000  0.000
tot    0.345  0.116  0.178  0.638
 
band    11 # energy   -5.41860326 # occ.  2.00000000
 
ion      s      p      d    tot
    1  0.000  0.001  0.003  0.003
    2  0.005  0.002  0.006  0.012
    3  0.005  0.002  0.006  0.012
    4  0.005  0.002  0.006  0.012
    5  0.043  0.002  0.000  0.045
    6  0.005  0.002  0.006  0.012
    7  0.005  0.002  0.006  0.012
    8  0.005  0.002  0.006  0.012
    9  0.000  0.002  0.005  0.007
   10  0.007  0.005  0.007  0.018
   11  0.014  0.007  0.005  0.027
   12  0.007  0.005  0.007  0.018
   13  0.014  0.007  0.005  0.027
   14  0.014  0.007  0.005  0.027
   15  0.024  0.002  0.010  0.036
   16  0.007  0.005  0.007  0.018
   17  0.024  0.002  0.010  0.036
   18  0.024  0.002  0.010  0.036
   19  0.011  0.002  0.007  0.021
   20  0.013  0.004  0.005  0.023
   21  0.013  0.004  0.005  0.023
   22  0.006  0.006  0.005  0.016
   23  0.013  0.004  0.005  0.023
   24  0.006  0.006  0.005  0.016
   25  0.011  0.002  0.007  0.021
   26  0.011  0.002  0.007  0.021
   27  0.006  0.006  0.005  0.016
   28  0.001  0.001  0.004  0.006
   29  0.005  0.001  0.004  0.010
   30  0.005  0.001  0.004  0.010
   31  0.005  0.001  0.004  0.010
   32  0.005  0.001  0.004  0.010
   33  0.005  0.001  0.004  0.010
   34  0.005  0.001  0.004  0.010
   35  0.001  0.000  0.002  0.004
   36  0.015  0.005  0.005  0.025
   37  0.001  0.004  0.000  0.005
   38  0.001  0.000  0.000  0.001
tot    0.347  0.107  0.196  0.651
 
band    12 # energy   -4.72930138 # occ.  2.00000000
 
ion      s      p      d    tot
    1  0.000  0.002  0.010  0.011
    2  0.017  0.003  0.005  0.026
    3  0.000  0.002  0.005  0.007
    4  0.016  0.003  0.005  0.025
    5  0.000  0.006  0.009  0.015
    6  0.014  0.003  0.005  0.022
    7  0.000  0.002  0.005  0.007
    8  0.015  0.003  0.005  0.024
    9  0.000  0.001  0.012  0.014
   10  0.013  0.004  0.009  0.025
   11  0.005  0.002  0.020  0.028
   12  0.003  0.001  0.014  0.019
   13  0.005  0.002  0.021  0.028
   14  0.020  0.004  0.005  0.029
   15  0.000  0.003  0.016  0.019
   16  0.003  0.001  0.014  0.019
   17  0.000  0.003  0.016  0.019
   18  0.001  0.000  0.008  0.009
   19  0.000  0.003  0.017  0.020
   20  0.019  0.005  0.005  0.029
   21  0.004  0.002  0.023  0.029
   22  0.002  0.001  0.013  0.017
   23  0.005  0.002  0.022  0.029
   24  0.010  0.004  0.010  0.024
   25  0.002  0.000  0.007  0.009
   26  0.000  0.003  0.018  0.021
   27  0.003  0.002  0.013  0.017
   28  0.000  0.002  0.012  0.014
   29  0.019  0.003  0.005  0.027
   30  0.000  0.002  0.005  0.007
   31  0.018  0.003  0.005  0.026
   32  0.017  0.003  0.005  0.025
   33  0.000  0.002  0.005  0.007
   34  0.019  0.003  0.005  0.026
   35  0.000  0.001  0.010  0.011
   36  0.000  0.010  0.001  0.012
   37  0.000  0.008  0.000  0.008
   38  0.000  0.000  0.000  0.000
tot    0.231  0.105  0.365  0.701
 
band    13 # energy   -4.72927062 # occ.  2.00000000
 
ion      s      p      d    tot
    1  0.000  0.002  0.010  0.011
    2  0.004  0.002  0.005  0.011
    3  0.021  0.004  0.005  0.030
    4  0.005  0.002  0.005  0.012
    5  0.000  0.006  0.009  0.015
    6  0.007  0.002  0.005  0.014
    7  0.021  0.004  0.005  0.030
    8  0.006  0.002  0.005  0.013
    9  0.000  0.001  0.012  0.014
   10  0.000  0.001  0.016  0.017
   11  0.015  0.003  0.011  0.029
   12  0.010  0.003  0.010  0.023
   13  0.015  0.004  0.010  0.029
   14  0.000  0.001  0.026  0.027
   15  0.001  0.001  0.011  0.012
   16  0.009  0.003  0.011  0.023
   17  0.001  0.001  0.010  0.012
   18  0.000  0.004  0.019  0.023
   19  0.001  0.001  0.011  0.013
   20  0.000  0.001  0.028  0.029
   21  0.015  0.004  0.010  0.029
   22  0.008  0.003  0.011  0.022
   23  0.014  0.004  0.011  0.029
   24  0.000  0.001  0.014  0.015
   25  0.000  0.004  0.021  0.025
   26  0.001  0.001  0.010  0.012
   27  0.007  0.003  0.011  0.021
   28  0.000  0.002  0.012  0.014
   29  0.005  0.002  0.005  0.013
   30  0.024  0.004  0.005  0.032
   31  0.007  0.002  0.005  0.014
   32  0.007  0.002  0.005  0.014
   33  0.024  0.004  0.005  0.032
   34  0.006  0.002  0.005  0.013
   35  0.000  0.002  0.010  0.011
   36  0.000  0.010  0.001  0.012
   37  0.000  0.008  0.000  0.008
   38  0.000  0.000  0.000  0.000
tot    0.231  0.105  0.365  0.701
 
band    14 # energy   -4.72275754 # occ.  2.00000000
 
ion      s      p      d    tot
    1  0.002  0.002  0.007  0.011
    2  0.002  0.002  0.009  0.013
    3  0.002  0.002  0.009  0.013
    4  0.002  0.002  0.009  0.013
    5  0.000  0.001  0.004  0.005
    6  0.002  0.002  0.009  0.013
    7  0.002  0.002  0.009  0.013
    8  0.002  0.002  0.009  0.013
    9  0.037  0.001  0.003  0.040
   10  0.013  0.001  0.018  0.032
   11  0.004  0.000  0.018  0.022
   12  0.013  0.001  0.018  0.032
   13  0.004  0.000  0.018  0.022
   14  0.004  0.000  0.018  0.022
   15  0.000  0.002  0.021  0.023
   16  0.013  0.001  0.018  0.032
   17  0.000  0.002  0.021  0.023
   18  0.000  0.002  0.021  0.023
   19  0.009  0.001  0.018  0.028
   20  0.009  0.000  0.022  0.031
   21  0.009  0.000  0.022  0.031
   22  0.000  0.002  0.018  0.021
   23  0.009  0.000  0.022  0.031
   24  0.000  0.002  0.018  0.021
   25  0.009  0.001  0.018  0.028
   26  0.009  0.001  0.018  0.028
   27  0.000  0.002  0.018  0.021
   28  0.002  0.002  0.006  0.010
   29  0.003  0.002  0.009  0.014
   30  0.003  0.002  0.009  0.014
   31  0.003  0.002  0.009  0.014
   32  0.003  0.002  0.009  0.014
   33  0.003  0.002  0.009  0.014
   34  0.003  0.002  0.009  0.014
   35  0.036  0.001  0.002  0.039
   36  0.000  0.001  0.005  0.007
   37  0.000  0.000  0.000  0.000
   38  0.000  0.000  0.000  0.000
tot    0.211  0.050  0.484  0.745
 
band    15 # energy   -4.72084291 # occ.  2.00000000
 
ion      s      p      d    tot
    1  0.038  0.001  0.001  0.041
    2  0.002  0.002  0.010  0.013
    3  0.002  0.002  0.010  0.013
    4  0.002  0.002  0.010  0.013
    5  0.000  0.001  0.005  0.006
    6  0.002  0.002  0.010  0.013
    7  0.002  0.002  0.010  0.013
    8  0.002  0.002  0.010  0.013
    9  0.006  0.003  0.005  0.013
   10  0.001  0.002  0.017  0.020
   11  0.007  0.000  0.018  0.026
   12  0.001  0.002  0.017  0.020
   13  0.007  0.000  0.018  0.026
   14  0.008  0.000  0.018  0.026
   15  0.008  0.002  0.019  0.029
   16  0.001  0.002  0.017  0.020
   17  0.008  0.002  0.019  0.029
   18  0.008  0.002  0.019  0.029
   19  0.000  0.003  0.020  0.023
   20  0.003  0.000  0.018  0.021
   21  0.003  0.000  0.018  0.021
   22  0.015  0.002  0.017  0.033
   23  0.003  0.000  0.018  0.021
   24  0.015  0.002  0.017  0.033
   25  0.001  0.003  0.020  0.023
   26  0.000  0.003  0.020  0.023
   27  0.015  0.002  0.017  0.033
   28  0.040  0.001  0.002  0.043
   29  0.002  0.002  0.009  0.013
   30  0.002  0.002  0.009  0.013
   31  0.002  0.002  0.009  0.013
   32  0.002  0.002  0.009  0.013
   33  0.002  0.002  0.009  0.013
   34  0.002  0.002  0.009  0.013
   35  0.004  0.003  0.007  0.014
   36  0.000  0.001  0.003  0.004
   37  0.000  0.000  0.000  0.000
   38  0.000  0.000  0.000  0.000
tot    0.215  0.059  0.461  0.736
 
band    16 # energy   -4.70655218 # occ.  2.00000000
 
ion      s      p      d    tot
    1  0.000  0.004  0.012  0.016
    2  0.018  0.003  0.005  0.026
    3  0.000  0.002  0.005  0.007
    4  0.018  0.003  0.005  0.026
    5  0.000  0.000  0.012  0.012
    6  0.015  0.003  0.006  0.023
    7  0.000  0.002  0.005  0.007
    8  0.015  0.003  0.006  0.023
    9  0.000  0.005  0.008  0.013
   10  0.000  0.003  0.028  0.032
   11  0.002  0.002  0.011  0.014
   12  0.007  0.002  0.011  0.020
   13  0.002  0.002  0.011  0.014
   14  0.000  0.002  0.014  0.017
   15  0.015  0.004  0.011  0.030
   16  0.007  0.002  0.011  0.020
   17  0.015  0.005  0.011  0.030
   18  0.000  0.000  0.023  0.023
   19  0.016  0.004  0.011  0.031
   20  0.000  0.003  0.016  0.019
   21  0.001  0.001  0.012  0.014
   22  0.009  0.002  0.010  0.022
   23  0.001  0.001  0.012  0.014
   24  0.000  0.003  0.026  0.029
   25  0.000  0.000  0.022  0.022
   26  0.016  0.004  0.010  0.031
   27  0.009  0.002  0.011  0.022
   28  0.000  0.004  0.008  0.012
   29  0.015  0.003  0.005  0.024
   30  0.000  0.002  0.005  0.007
   31  0.015  0.003  0.005  0.024
   32  0.015  0.003  0.005  0.023
   33  0.000  0.002  0.005  0.007
   34  0.015  0.003  0.005  0.023
   35  0.000  0.005  0.010  0.015
   36  0.000  0.000  0.008  0.008
   37  0.000  0.000  0.000  0.000
   38  0.000  0.000  0.000  0.000
tot    0.226  0.094  0.383  0.703
 
band    17 # energy   -4.70652366 # occ.  2.00000000
 
ion      s      p      d    tot
    1  0.000  0.004  0.012  0.016
    2  0.004  0.002  0.005  0.011
    3  0.021  0.004  0.006  0.031
    4  0.004  0.002  0.005  0.011
    5  0.000  0.000  0.012  0.012
    6  0.007  0.002  0.005  0.015
    7  0.021  0.004  0.006  0.031
    8  0.007  0.002  0.005  0.014
    9  0.000  0.005  0.008  0.013
   10  0.009  0.002  0.005  0.016
   11  0.001  0.002  0.013  0.016
   12  0.002  0.003  0.023  0.028
   13  0.001  0.002  0.013  0.016
   14  0.002  0.001  0.010  0.014
   15  0.005  0.002  0.019  0.025
   16  0.002  0.003  0.023  0.028
   17  0.005  0.002  0.019  0.025
   18  0.020  0.006  0.007  0.033
   19  0.005  0.001  0.018  0.025
   20  0.001  0.001  0.010  0.013
   21  0.000  0.002  0.014  0.017
   22  0.003  0.003  0.021  0.027
   23  0.000  0.002  0.014  0.017
   24  0.012  0.002  0.005  0.020
   25  0.022  0.005  0.006  0.033
   26  0.005  0.001  0.019  0.025
   27  0.003  0.003  0.021  0.027
   28  0.000  0.004  0.008  0.012
   29  0.005  0.002  0.005  0.012
   30  0.020  0.004  0.005  0.029
   31  0.005  0.002  0.005  0.013
   32  0.005  0.002  0.005  0.013
   33  0.020  0.004  0.005  0.029
   34  0.005  0.002  0.005  0.013
   35  0.000  0.005  0.010  0.015
   36  0.000  0.000  0.008  0.008
   37  0.000  0.000  0.000  0.000
   38  0.000  0.000  0.000  0.000
tot    0.226  0.094  0.383  0.703
 
band    18 # energy   -4.59889179 # occ.  2.00000000
 
ion      s      p      d    tot
    1  0.011  0.001  0.001  0.013
    2  0.000  0.003  0.011  0.014
    3  0.000  0.003  0.011  0.014
    4  0.000  0.003  0.011  0.014
    5  0.045  0.003  0.000  0.048
    6  0.000  0.003  0.011  0.014
    7  0.000  0.003  0.011  0.014
    8  0.000  0.003  0.011  0.014
    9  0.005  0.001  0.001  0.007
   10  0.001  0.001  0.024  0.026
   11  0.004  0.004  0.020  0.027
   12  0.001  0.001  0.024  0.026
   13  0.004  0.004  0.020  0.027
   14  0.004  0.004  0.020  0.027
   15  0.005  0.002  0.010  0.016
   16  0.001  0.001  0.024  0.026
   17  0.005  0.002  0.010  0.016
   18  0.005  0.002  0.010  0.016
   19  0.011  0.001  0.020  0.032
   20  0.009  0.004  0.009  0.023
   21  0.009  0.004  0.009  0.023
   22  0.003  0.002  0.019  0.023
   23  0.009  0.004  0.009  0.023
   24  0.003  0.002  0.019  0.023
   25  0.011  0.001  0.020  0.032
   26  0.011  0.001  0.020  0.032
   27  0.003  0.002  0.019  0.023
   28  0.002  0.002  0.005  0.009
   29  0.001  0.002  0.010  0.014
   30  0.001  0.002  0.010  0.014
   31  0.001  0.002  0.010  0.014
   32  0.001  0.002  0.010  0.014
   33  0.001  0.002  0.010  0.014
   34  0.001  0.002  0.010  0.014
   35  0.003  0.002  0.002  0.007
   36  0.029  0.009  0.005  0.044
   37  0.001  0.003  0.000  0.005
   38  0.001  0.000  0.000  0.001
tot    0.205  0.089  0.448  0.742
 
band    19 # energy   -4.13854959 # occ.  2.00000000
 
ion      s      p      d    tot
    1  0.000  0.002  0.001  0.002
    2  0.009  0.001  0.005  0.014
    3  0.005  0.001  0.005  0.010
    4  0.009  0.001  0.005  0.014
    5  0.000  0.001  0.012  0.013
    6  0.001  0.001  0.005  0.006
    7  0.005  0.001  0.005  0.010
    8  0.001  0.001  0.005  0.006
    9  0.000  0.000  0.015  0.015
   10  0.000  0.005  0.012  0.017
   11  0.000  0.000  0.027  0.027
   12  0.000  0.001  0.006  0.007
   13  0.000  0.000  0.027  0.027
   14  0.000  0.001  0.001  0.003
   15  0.000  0.000  0.015  0.015
   16  0.000  0.001  0.006  0.007
   17  0.000  0.000  0.015  0.015
   18  0.000  0.001  0.008  0.009
   19  0.000  0.000  0.022  0.022
   20  0.004  0.003  0.016  0.023
   21  0.001  0.001  0.011  0.013
   22  0.000  0.000  0.019  0.020
   23  0.001  0.001  0.011  0.013
   24  0.001  0.001  0.006  0.007
   25  0.001  0.001  0.004  0.006
   26  0.000  0.000  0.022  0.022
   27  0.000  0.000  0.019  0.020
   28  0.000  0.001  0.016  0.017
   29  0.014  0.001  0.011  0.027
   30  0.000  0.001  0.011  0.012
   31  0.014  0.001  0.011  0.027
   32  0.011  0.002  0.008  0.021
   33  0.000  0.001  0.011  0.012
   34  0.011  0.002  0.008  0.020
   35  0.000  0.000  0.021  0.022
   36  0.000  0.011  0.049  0.059
   37  0.000  0.162  0.000  0.162
   38  0.000  0.003  0.000  0.003
tot    0.087  0.208  0.452  0.747
 
band    20 # energy   -4.13848516 # occ.  2.00000000
 
ion      s      p      d    tot
    1  0.000  0.002  0.001  0.002
    2  0.001  0.001  0.005  0.006
    3  0.005  0.001  0.005  0.010
    4  0.001  0.001  0.005  0.006
    5  0.000  0.001  0.012  0.013
    6  0.009  0.001  0.005  0.015
    7  0.005  0.001  0.005  0.010
    8  0.009  0.001  0.005  0.015
    9  0.000  0.000  0.015  0.015
   10  0.000  0.000  0.004  0.004
   11  0.000  0.001  0.010  0.011
   12  0.000  0.004  0.010  0.014
   13  0.000  0.001  0.010  0.011
   14  0.000  0.000  0.035  0.035
   15  0.000  0.001  0.010  0.011
   16  0.000  0.004  0.010  0.014
   17  0.000  0.001  0.010  0.011
   18  0.000  0.000  0.017  0.017
   19  0.001  0.001  0.010  0.011
   20  0.000  0.000  0.009  0.009
   21  0.003  0.002  0.015  0.019
   22  0.000  0.001  0.010  0.011
   23  0.003  0.002  0.015  0.019
   24  0.000  0.000  0.024  0.024
   25  0.000  0.000  0.028  0.028
   26  0.001  0.001  0.010  0.011
   27  0.000  0.001  0.010  0.011
   28  0.000  0.001  0.016  0.017
   29  0.003  0.001  0.009  0.013
   30  0.017  0.002  0.009  0.028
   31  0.003  0.001  0.009  0.013
   32  0.006  0.001  0.012  0.019
   33  0.017  0.002  0.009  0.028
   34  0.006  0.001  0.012  0.019
   35  0.000  0.000  0.021  0.022
   36  0.000  0.011  0.049  0.059
   37  0.000  0.162  0.000  0.162
   38  0.000  0.003  0.000  0.003
tot    0.087  0.208  0.452  0.747
 
band    21 # energy   -4.02055866 # occ.  2.00000000
 
ion      s      p      d    tot
    1  0.001  0.000  0.001  0.003
    2  0.000  0.001  0.018  0.020
    3  0.000  0.001  0.018  0.020
    4  0.000  0.001  0.018  0.020
    5  0.017  0.001  0.000  0.017
    6  0.000  0.001  0.018  0.020
    7  0.000  0.001  0.018  0.020
    8  0.000  0.001  0.018  0.020
    9  0.027  0.001  0.002  0.031
   10  0.001  0.001  0.009  0.011
   11  0.000  0.001  0.021  0.021
   12  0.001  0.001  0.009  0.011
   13  0.000  0.001  0.021  0.021
   14  0.000  0.001  0.021  0.021
   15  0.001  0.003  0.040  0.044
   16  0.001  0.001  0.009  0.011