PROCAR new format
# of k-points:   10         # of bands:  252         # of ions:   37

 k-point     1 :    0.00000000 0.00000000 0.00000000     weight = 0.01562500

band     1 # energy  -47.31498187 # occ.  2.00000000
 
ion      s      p      d    tot
    1  0.000  0.000  0.000  0.000
    2  0.000  0.000  0.000  0.000
    3  0.000  0.000  0.000  0.000
    4  0.000  0.000  0.000  0.000
    5  0.000  0.000  0.000  0.000
    6  0.000  0.000  0.000  0.000
    7  0.000  0.000  0.000  0.000
    8  0.000  0.000  0.000  0.000
    9  0.000  0.000  0.000  0.000
   10  0.000  0.000  0.000  0.000
   11  0.000  0.000  0.000  0.000
   12  0.000  0.000  0.000  0.000
   13  0.000  0.000  0.000  0.000
   14  0.000  0.000  0.000  0.000
   15  0.000  0.000  0.000  0.000
   16  0.000  0.000  0.000  0.000
   17  0.000  0.000  0.000  0.000
   18  0.000  0.000  0.000  0.000
   19  0.000  0.000  0.000  0.000
   20  0.000  0.000  0.000  0.000
   21  0.000  0.000  0.000  0.000
   22  0.000  0.000  0.000  0.000
   23  0.000  0.000  0.000  0.000
   24  0.000  0.000  0.000  0.000
   25  0.000  0.000  0.000  0.000
   26  0.000  0.000  0.000  0.000
   27  0.000  0.000  0.000  0.000
   28  0.000  0.000  0.000  0.000
   29  0.000  0.000  0.000  0.000
   30  0.000  0.000  0.000  0.000
   31  0.000  0.000  0.000  0.000
   32  0.000  0.000  0.000  0.000
   33  0.000  0.000  0.000  0.000
   34  0.000  0.000  0.000  0.000
   35  0.000  0.000  0.000  0.000
   36  0.992  0.000  0.000  0.992
   37  0.001  0.001  0.000  0.002
tot    0.993  0.001  0.000  0.994
 
band     2 # energy  -25.65335360 # occ.  2.00000000
 
ion      s      p      d    tot
    1  0.000  0.000  0.000  0.000
    2  0.000  0.000  0.000  0.000
    3  0.000  0.000  0.000  0.000
    4  0.000  0.000  0.000  0.000
    5  0.000  0.000  0.000  0.000
    6  0.000  0.000  0.000  0.000
    7  0.000  0.000  0.000  0.000
    8  0.000  0.000  0.000  0.000
    9  0.000  0.000  0.000  0.000
   10  0.000  0.000  0.000  0.000
   11  0.000  0.000  0.000  0.000
   12  0.000  0.000  0.000  0.000
   13  0.000  0.000  0.000  0.000
   14  0.000  0.000  0.000  0.000
   15  0.000  0.000  0.000  0.000
   16  0.000  0.000  0.000  0.000
   17  0.000  0.000  0.000  0.000
   18  0.000  0.000  0.000  0.000
   19  0.000  0.000  0.000  0.000
   20  0.000  0.000  0.000  0.001
   21  0.000  0.000  0.000  0.001
   22  0.000  0.000  0.000  0.000
   23  0.000  0.000  0.000  0.001
   24  0.000  0.000  0.000  0.000
   25  0.000  0.000  0.000  0.000
   26  0.000  0.000  0.000  0.000
   27  0.000  0.000  0.000  0.000
   28  0.000  0.000  0.000  0.000
   29  0.000  0.000  0.000  0.000
   30  0.000  0.000  0.000  0.000
   31  0.000  0.000  0.000  0.000
   32  0.000  0.000  0.000  0.000
   33  0.000  0.000  0.000  0.000
   34  0.000  0.000  0.000  0.000
   35  0.000  0.000  0.000  0.000
   36  0.000  0.936  0.001  0.937
   37  0.022  0.013  0.000  0.035
tot    0.022  0.950  0.002  0.974
 
band     3 # energy  -25.56070077 # occ.  2.00000000
 
ion      s      p      d    tot
    1  0.000  0.000  0.000  0.000
    2  0.000  0.000  0.000  0.000
    3  0.000  0.000  0.000  0.000
    4  0.000  0.000  0.000  0.000
    5  0.000  0.000  0.000  0.000
    6  0.000  0.000  0.000  0.000
    7  0.000  0.000  0.000  0.000
    8  0.000  0.000  0.000  0.000
    9  0.000  0.000  0.000  0.000
   10  0.000  0.000  0.000  0.000
   11  0.000  0.000  0.000  0.000
   12  0.000  0.000  0.000  0.000
   13  0.000  0.000  0.000  0.000
   14  0.000  0.000  0.000  0.000
   15  0.000  0.000  0.000  0.000
   16  0.000  0.000  0.000  0.000
   17  0.000  0.000  0.000  0.000
   18  0.000  0.000  0.000  0.000
   19  0.000  0.000  0.000  0.000
   20  0.000  0.000  0.000  0.000
   21  0.000  0.000  0.000  0.000
   22  0.000  0.000  0.000  0.000
   23  0.000  0.000  0.000  0.000
   24  0.000  0.000  0.000  0.000
   25  0.000  0.000  0.000  0.000
   26  0.000  0.000  0.000  0.000
   27  0.000  0.000  0.000  0.000
   28  0.000  0.000  0.000  0.000
   29  0.000  0.000  0.000  0.000
   30  0.000  0.000  0.000  0.001
   31  0.000  0.000  0.000  0.000
   32  0.000  0.000  0.000  0.000
   33  0.000  0.000  0.000  0.001
   34  0.000  0.000  0.000  0.000
   35  0.000  0.000  0.000  0.000
   36  0.000  0.967  0.000  0.967
   37  0.000  0.000  0.000  0.000
tot    0.001  0.969  0.001  0.971
 
band     4 # energy  -25.56068827 # occ.  2.00000000
 
ion      s      p      d    tot
    1  0.000  0.000  0.000  0.000
    2  0.000  0.000  0.000  0.000
    3  0.000  0.000  0.000  0.000
    4  0.000  0.000  0.000  0.000
    5  0.000  0.000  0.000  0.000
    6  0.000  0.000  0.000  0.000
    7  0.000  0.000  0.000  0.000
    8  0.000  0.000  0.000  0.000
    9  0.000  0.000  0.000  0.000
   10  0.000  0.000  0.000  0.000
   11  0.000  0.000  0.000  0.000
   12  0.000  0.000  0.000  0.000
   13  0.000  0.000  0.000  0.000
   14  0.000  0.000  0.000  0.000
   15  0.000  0.000  0.000  0.000
   16  0.000  0.000  0.000  0.000
   17  0.000  0.000  0.000  0.000
   18  0.000  0.000  0.000  0.000
   19  0.000  0.000  0.000  0.000
   20  0.000  0.000  0.000  0.000
   21  0.000  0.000  0.000  0.000
   22  0.000  0.000  0.000  0.000
   23  0.000  0.000  0.000  0.000
   24  0.000  0.000  0.000  0.000
   25  0.000  0.000  0.000  0.000
   26  0.000  0.000  0.000  0.000
   27  0.000  0.000  0.000  0.000
   28  0.000  0.000  0.000  0.000
   29  0.000  0.000  0.000  0.001
   30  0.000  0.000  0.000  0.000
   31  0.000  0.000  0.000  0.001
   32  0.000  0.000  0.000  0.001
   33  0.000  0.000  0.000  0.000
   34  0.000  0.000  0.000  0.001
   35  0.000  0.000  0.000  0.000
   36  0.000  0.967  0.000  0.967
   37  0.000  0.000  0.000  0.000
tot    0.001  0.969  0.001  0.971
 
band     5 # energy  -10.45911905 # occ.  2.00000000
 
ion      s      p      d    tot
    1  0.000  0.000  0.000  0.000
    2  0.000  0.000  0.000  0.000
    3  0.000  0.000  0.000  0.000
    4  0.000  0.000  0.000  0.000
    5  0.000  0.000  0.000  0.000
    6  0.000  0.000  0.000  0.000
    7  0.000  0.000  0.000  0.000
    8  0.000  0.000  0.000  0.000
    9  0.000  0.000  0.000  0.000
   10  0.000  0.000  0.000  0.000
   11  0.000  0.000  0.000  0.000
   12  0.000  0.000  0.000  0.000
   13  0.000  0.000  0.000  0.000
   14  0.000  0.000  0.000  0.000
   15  0.000  0.000  0.000  0.000
   16  0.000  0.000  0.000  0.000
   17  0.000  0.000  0.000  0.000
   18  0.000  0.000  0.000  0.000
   19  0.000  0.000  0.000  0.000
   20  0.001  0.000  0.001  0.002
   21  0.001  0.000  0.001  0.002
   22  0.000  0.000  0.000  0.000
   23  0.001  0.000  0.001  0.002
   24  0.000  0.000  0.000  0.000
   25  0.000  0.000  0.000  0.000
   26  0.000  0.000  0.000  0.000
   27  0.000  0.000  0.000  0.000
   28  0.000  0.000  0.000  0.000
   29  0.000  0.000  0.000  0.000
   30  0.000  0.000  0.000  0.000
   31  0.000  0.000  0.000  0.000
   32  0.000  0.000  0.000  0.000
   33  0.000  0.000  0.000  0.000
   34  0.000  0.000  0.000  0.000
   35  0.000  0.000  0.000  0.000
   36  0.025  0.039  0.070  0.133
   37  0.620  0.004  0.000  0.624
tot    0.649  0.044  0.073  0.765
 
band     6 # energy   -8.16698066 # occ.  2.00000000
 
ion      s      p      d    tot
    1  0.007  0.001  0.000  0.008
    2  0.007  0.001  0.000  0.008
    3  0.007  0.001  0.000  0.008
    4  0.007  0.001  0.000  0.008
    5  0.007  0.001  0.000  0.008
    6  0.007  0.001  0.000  0.008
    7  0.007  0.001  0.000  0.008
    8  0.007  0.001  0.000  0.008
    9  0.007  0.001  0.000  0.008
   10  0.028  0.000  0.000  0.028
   11  0.028  0.000  0.000  0.029
   12  0.028  0.000  0.000  0.028
   13  0.028  0.000  0.000  0.029
   14  0.028  0.000  0.000  0.029
   15  0.027  0.000  0.000  0.028
   16  0.028  0.000  0.000  0.028
   17  0.027  0.000  0.000  0.028
   18  0.027  0.000  0.000  0.028
   19  0.023  0.000  0.000  0.023
   20  0.024  0.000  0.000  0.025
   21  0.024  0.000  0.000  0.025
   22  0.024  0.000  0.000  0.024
   23  0.024  0.000  0.000  0.025
   24  0.024  0.000  0.000  0.024
   25  0.023  0.000  0.000  0.023
   26  0.023  0.000  0.000  0.023
   27  0.024  0.000  0.000  0.024
   28  0.004  0.000  0.000  0.005
   29  0.004  0.000  0.000  0.004
   30  0.004  0.000  0.000  0.004
   31  0.004  0.000  0.000  0.004
   32  0.004  0.000  0.000  0.004
   33  0.004  0.000  0.000  0.004
   34  0.004  0.000  0.000  0.004
   35  0.004  0.000  0.000  0.005
   36  0.001  0.001  0.000  0.002
   37  0.002  0.000  0.000  0.002
tot    0.562  0.012  0.004  0.578
 
band     7 # energy   -6.98244466 # occ.  2.00000000
 
ion      s      p      d    tot
    1  0.017  0.000  0.001  0.019
    2  0.016  0.000  0.001  0.018
    3  0.016  0.000  0.001  0.018
    4  0.016  0.000  0.001  0.018
    5  0.016  0.000  0.001  0.018
    6  0.016  0.000  0.001  0.018
    7  0.016  0.000  0.001  0.018
    8  0.016  0.000  0.001  0.018
    9  0.016  0.000  0.001  0.018
   10  0.010  0.002  0.002  0.014
   11  0.009  0.002  0.003  0.013
   12  0.010  0.002  0.002  0.014
   13  0.009  0.002  0.003  0.013
   14  0.009  0.002  0.003  0.013
   15  0.009  0.002  0.002  0.013
   16  0.010  0.002  0.002  0.014
   17  0.009  0.002  0.002  0.013
   18  0.009  0.002  0.002  0.013
   19  0.015  0.001  0.004  0.020
   20  0.015  0.001  0.005  0.020
   21  0.015  0.001  0.005  0.020
   22  0.017  0.001  0.004  0.021
   23  0.015  0.001  0.005  0.020
   24  0.017  0.001  0.004  0.021
   25  0.015  0.001  0.004  0.020
   26  0.015  0.001  0.004  0.020
   27  0.017  0.001  0.004  0.021
   28  0.016  0.001  0.001  0.017
   29  0.014  0.001  0.001  0.015
   30  0.014  0.001  0.001  0.015
   31  0.014  0.001  0.001  0.015
   32  0.014  0.001  0.001  0.015
   33  0.014  0.001  0.001  0.015
   34  0.014  0.001  0.001  0.015
   35  0.016  0.001  0.001  0.017
   36  0.003  0.001  0.001  0.005
   37  0.002  0.000  0.000  0.002
tot    0.487  0.031  0.076  0.595
 
band     8 # energy   -6.07781479 # occ.  2.00000000
 
ion      s      p      d    tot
    1  0.010  0.000  0.020  0.031
    2  0.017  0.000  0.016  0.034
    3  0.017  0.000  0.016  0.034
    4  0.017  0.000  0.016  0.034
    5  0.013  0.000  0.015  0.028
    6  0.017  0.000  0.016  0.034
    7  0.017  0.000  0.016  0.034
    8  0.017  0.000  0.016  0.034
    9  0.032  0.000  0.012  0.044
   10  0.011  0.001  0.016  0.028
   11  0.013  0.002  0.014  0.028
   12  0.011  0.001  0.016  0.028
   13  0.013  0.002  0.014  0.028
   14  0.013  0.002  0.014  0.028
   15  0.000  0.001  0.019  0.020
   16  0.011  0.001  0.016  0.028
   17  0.000  0.001  0.019  0.020
   18  0.000  0.001  0.019  0.020
   19  0.000  0.001  0.004  0.005
   20  0.007  0.001  0.004  0.012
   21  0.007  0.001  0.004  0.012
   22  0.002  0.001  0.001  0.003
   23  0.007  0.001  0.004  0.012
   24  0.002  0.001  0.001  0.003
   25  0.000  0.001  0.004  0.005
   26  0.000  0.001  0.004  0.005
   27  0.002  0.001  0.001  0.003
   28  0.009  0.000  0.002  0.011
   29  0.007  0.000  0.004  0.011
   30  0.007  0.000  0.004  0.011
   31  0.007  0.000  0.004  0.011
   32  0.007  0.000  0.004  0.011
   33  0.007  0.000  0.004  0.011
   34  0.007  0.000  0.004  0.011
   35  0.013  0.000  0.003  0.016
   36  0.000  0.000  0.002  0.002
   37  0.000  0.000  0.000  0.000
tot    0.321  0.020  0.353  0.694
 
band     9 # energy   -6.04400357 # occ.  2.00000000
 
ion      s      p      d    tot
    1  0.000  0.000  0.009  0.009
    2  0.004  0.001  0.004  0.009
    3  0.007  0.001  0.003  0.011
    4  0.004  0.001  0.004  0.009
    5  0.000  0.001  0.007  0.009
    6  0.000  0.000  0.003  0.004
    7  0.007  0.001  0.003  0.011
    8  0.000  0.000  0.003  0.004
    9  0.000  0.000  0.001  0.001
   10  0.000  0.000  0.039  0.039
   11  0.041  0.001  0.015  0.057
   12  0.028  0.002  0.013  0.042
   13  0.041  0.001  0.015  0.058
   14  0.000  0.003  0.024  0.028
   15  0.001  0.001  0.011  0.013
   16  0.028  0.002  0.013  0.042
   17  0.001  0.001  0.011  0.013
   18  0.000  0.004  0.005  0.008
   19  0.007  0.001  0.011  0.019
   20  0.000  0.002  0.037  0.039
   21  0.044  0.002  0.016  0.061
   22  0.013  0.001  0.011  0.025
   23  0.043  0.002  0.016  0.061
   24  0.000  0.000  0.026  0.027
   25  0.000  0.004  0.004  0.007
   26  0.007  0.001  0.011  0.019
   27  0.012  0.001  0.011  0.025
   28  0.000  0.000  0.001  0.001
   29  0.000  0.000  0.002  0.002
   30  0.003  0.001  0.003  0.007
   31  0.000  0.000  0.002  0.002
   32  0.004  0.001  0.003  0.008
   33  0.003  0.001  0.003  0.007
   34  0.004  0.001  0.003  0.008
   35  0.000  0.000  0.004  0.004
   36  0.000  0.001  0.003  0.004
   37  0.000  0.000  0.000  0.000
tot    0.303  0.042  0.346  0.691
 
band    10 # energy   -6.04395782 # occ.  2.00000000
 
ion      s      p      d    tot
    1  0.000  0.000  0.009  0.009
    2  0.004  0.001  0.003  0.007
    3  0.001  0.000  0.003  0.005
    4  0.003  0.001  0.003  0.007
    5  0.000  0.001  0.007  0.009
    6  0.007  0.001  0.004  0.012
    7  0.001  0.000  0.003  0.004
    8  0.007  0.001  0.004  0.012
    9  0.000  0.000  0.001  0.001
   10  0.037  0.002  0.004  0.043
   11  0.014  0.003  0.021  0.038
   12  0.009  0.001  0.030  0.040
   13  0.014  0.003  0.021  0.038
   14  0.054  0.001  0.012  0.067
   15  0.000  0.003  0.007  0.010
   16  0.009  0.001  0.030  0.040
   17  0.000  0.003  0.007  0.010
   18  0.001  0.000  0.013  0.015
   19  0.002  0.003  0.006  0.011
   20  0.058  0.001  0.009  0.068
   21  0.014  0.002  0.030  0.046
   22  0.004  0.001  0.021  0.026
   23  0.015  0.002  0.030  0.046
   24  0.016  0.002  0.005  0.024
   25  0.010  0.000  0.013  0.023
   26  0.002  0.003  0.006  0.011
   27  0.004  0.001  0.021  0.026
   28  0.000  0.000  0.001  0.001
   29  0.005  0.001  0.003  0.009
   30  0.002  0.000  0.003  0.005
   31  0.005  0.001  0.003  0.009
   32  0.001  0.000  0.002  0.003
   33  0.002  0.000  0.003  0.005
   34  0.001  0.000  0.002  0.003
   35  0.000  0.000  0.004  0.004
   36  0.000  0.001  0.003  0.004
   37  0.000  0.000  0.000  0.000
tot    0.303  0.042  0.346  0.691
 
band    11 # energy   -6.03796214 # occ.  2.00000000
 
ion      s      p      d    tot
    1  0.010  0.000  0.002  0.013
    2  0.004  0.000  0.008  0.012
    3  0.004  0.000  0.008  0.012
    4  0.004  0.000  0.008  0.012
    5  0.011  0.000  0.005  0.016
    6  0.004  0.000  0.008  0.012
    7  0.004  0.000  0.008  0.012
    8  0.004  0.000  0.008  0.012
    9  0.000  0.001  0.009  0.011
   10  0.000  0.000  0.028  0.028
   11  0.000  0.001  0.018  0.020
   12  0.000  0.000  0.028  0.028
   13  0.000  0.001  0.018  0.020
   14  0.000  0.001  0.018  0.020
   15  0.028  0.001  0.010  0.039
   16  0.000  0.000  0.028  0.028
   17  0.028  0.001  0.010  0.039
   18  0.028  0.001  0.010  0.039
   19  0.001  0.000  0.025  0.026
   20  0.026  0.001  0.017  0.043
   21  0.026  0.001  0.017  0.043
   22  0.001  0.001  0.016  0.019
   23  0.026  0.001  0.017  0.043
   24  0.001  0.001  0.016  0.019
   25  0.001  0.000  0.025  0.026
   26  0.001  0.000  0.025  0.026
   27  0.001  0.001  0.016  0.019
   28  0.007  0.000  0.002  0.009
   29  0.004  0.000  0.006  0.011
   30  0.004  0.000  0.006  0.011
   31  0.004  0.000  0.006  0.011
   32  0.004  0.000  0.006  0.011
   33  0.004  0.000  0.006  0.011
   34  0.004  0.000  0.006  0.011
   35  0.012  0.000  0.004  0.016
   36  0.000  0.001  0.003  0.004
   37  0.000  0.000  0.000  0.001
tot    0.257  0.020  0.453  0.729
 
band    12 # energy   -6.02324693 # occ.  2.00000000
 
ion      s      p      d    tot
    1  0.013  0.002  0.000  0.015
    2  0.000  0.001  0.006  0.007
    3  0.000  0.001  0.006  0.007
    4  0.000  0.001  0.006  0.007
    5  0.012  0.002  0.002  0.016
    6  0.000  0.001  0.006  0.007
    7  0.000  0.001  0.006  0.007
    8  0.000  0.001  0.006  0.007
    9  0.000  0.000  0.000  0.000
   10  0.025  0.003  0.003  0.031
   11  0.022  0.000  0.023  0.045
   12  0.025  0.003  0.003  0.031
   13  0.022  0.000  0.023  0.045
   14  0.022  0.000  0.023  0.045
   15  0.000  0.001  0.021  0.023
   16  0.025  0.003  0.003  0.031
   17  0.000  0.001  0.021  0.023
   18  0.000  0.001  0.021  0.023
   19  0.026  0.003  0.003  0.031
   20  0.002  0.002  0.022  0.026
   21  0.002  0.002  0.022  0.026
   22  0.011  0.000  0.024  0.036
   23  0.002  0.002  0.022  0.026
   24  0.011  0.000  0.025  0.036
   25  0.026  0.003  0.003  0.031
   26  0.026  0.003  0.003  0.031
   27  0.011  0.000  0.024  0.036
   28  0.010  0.001  0.001  0.012
   29  0.000  0.000  0.004  0.004
   30  0.000  0.000  0.004  0.004
   31  0.000  0.000  0.004  0.004
   32  0.000  0.000  0.004  0.004
   33  0.000  0.000  0.004  0.004
   34  0.000  0.000  0.004  0.004
   35  0.006  0.001  0.002  0.008
   36  0.000  0.000  0.000  0.000
   37  0.000  0.000  0.000  0.000
tot    0.298  0.040  0.355  0.694
 
band    13 # energy   -5.99471249 # occ.  2.00000000
 
ion      s      p      d    tot
    1  0.000  0.001  0.003  0.004
    2  0.004  0.001  0.004  0.010
    3  0.008  0.001  0.004  0.013
    4  0.005  0.001  0.004  0.010
    5  0.000  0.000  0.005  0.005
    6  0.001  0.000  0.003  0.004
    7  0.008  0.001  0.004  0.013
    8  0.000  0.000  0.003  0.004
    9  0.000  0.001  0.011  0.012
   10  0.026  0.000  0.017  0.044
   11  0.002  0.001  0.021  0.025
   12  0.006  0.004  0.007  0.017
   13  0.002  0.001  0.021  0.025
   14  0.008  0.001  0.008  0.017
   15  0.016  0.001  0.034  0.051
   16  0.007  0.004  0.007  0.018
   17  0.016  0.001  0.034  0.051
   18  0.063  0.002  0.005  0.070
   19  0.010  0.001  0.027  0.038
   20  0.000  0.001  0.013  0.014
   21  0.000  0.002  0.011  0.013
   22  0.008  0.003  0.014  0.026
   23  0.000  0.002  0.012  0.013
   24  0.034  0.001  0.011  0.046
   25  0.040  0.002  0.003  0.046
   26  0.010  0.001  0.028  0.038
   27  0.009  0.003  0.014  0.026
   28  0.000  0.000  0.006  0.007
   29  0.000  0.000  0.002  0.002
   30  0.002  0.001  0.002  0.005
   31  0.000  0.000  0.002  0.002
   32  0.004  0.001  0.002  0.007
   33  0.002  0.000  0.002  0.005
   34  0.004  0.001  0.002  0.007
   35  0.000  0.001  0.004  0.004
   36  0.000  0.000  0.000  0.000
   37  0.000  0.000  0.000  0.000
tot    0.298  0.041  0.353  0.692
 
band    14 # energy   -5.99466514 # occ.  2.00000000
 
ion      s      p      d    tot
    1  0.000  0.001  0.003  0.004
    2  0.004  0.001  0.003  0.008
    3  0.001  0.000  0.004  0.005
    4  0.004  0.001  0.003  0.008
    5  0.000  0.000  0.005  0.005
    6  0.008  0.001  0.004  0.014
    7  0.001  0.000  0.004  0.005
    8  0.008  0.001  0.004  0.014
    9  0.000  0.001  0.011  0.012
   10  0.000  0.005  0.004  0.009
   11  0.006  0.001  0.012  0.020
   12  0.020  0.001  0.014  0.035
   13  0.006  0.001  0.012  0.020
   14  0.000  0.002  0.025  0.027
   15  0.047  0.001  0.015  0.064
   16  0.020  0.001  0.014  0.035
   17  0.048  0.001  0.015  0.064
   18  0.000  0.001  0.043  0.044
   19  0.030  0.002  0.012  0.043
   20  0.000  0.002  0.011  0.013
   21  0.000  0.001  0.012  0.014
   22  0.026  0.001  0.012  0.039
   23  0.000  0.001  0.012  0.014
   24  0.000  0.004  0.015  0.019
   25  0.000  0.000  0.036  0.036
   26  0.030  0.002  0.011  0.043
   27  0.025  0.001  0.012  0.039
   28  0.000  0.000  0.006  0.007
   29  0.004  0.001  0.002  0.007
   30  0.002  0.000  0.002  0.004
   31  0.004  0.001  0.002  0.007
   32  0.000  0.000  0.002  0.002
   33  0.002  0.000  0.002  0.004
   34  0.000  0.000  0.002  0.002
   35  0.000  0.001  0.004  0.004
   36  0.000  0.000  0.000  0.000
   37  0.000  0.000  0.000  0.000
tot    0.298  0.041  0.353  0.692
 
band    15 # energy   -5.95239691 # occ.  2.00000000
 
ion      s      p      d    tot
    1  0.003  0.000  0.000  0.004
    2  0.000  0.000  0.003  0.004
    3  0.000  0.000  0.003  0.004
    4  0.000  0.000  0.003  0.004
    5  0.004  0.000  0.000  0.005
    6  0.000  0.000  0.003  0.004
    7  0.000  0.000  0.003  0.004
    8  0.000  0.000  0.003  0.004
    9  0.005  0.001  0.001  0.008
   10  0.002  0.000  0.016  0.018
   11  0.007  0.002  0.004  0.012
   12  0.002  0.000  0.016  0.018
   13  0.007  0.002  0.004  0.012
   14  0.007  0.002  0.004  0.012
   15  0.014  0.001  0.009  0.025
   16  0.002  0.000  0.016  0.018
   17  0.014  0.001  0.009  0.025
   18  0.014  0.001  0.009  0.024
   19  0.004  0.001  0.016  0.022
   20  0.001  0.000  0.028  0.029
   21  0.001  0.000  0.028  0.029
   22  0.017  0.002  0.014  0.033
   23  0.001  0.000  0.028  0.029
   24  0.017  0.002  0.014  0.033
   25  0.004  0.001  0.016  0.021
   26  0.004  0.001  0.016  0.022
   27  0.017  0.002  0.014  0.033
   28  0.015  0.000  0.018  0.034
   29  0.017  0.000  0.014  0.031
   30  0.017  0.000  0.014  0.031
   31  0.017  0.000  0.014  0.031
   32  0.017  0.000  0.014  0.031
   33  0.017  0.000  0.014  0.031
   34  0.017  0.000  0.014  0.031
   35  0.012  0.000  0.016  0.028
   36  0.005  0.000  0.004  0.010
   37  0.001  0.000  0.000  0.001
tot    0.284  0.023  0.403  0.709
 
band    16 # energy   -5.56892744 # occ.  2.00000000
 
ion      s      p      d    tot
    1  0.011  0.002  0.002  0.015
    2  0.000  0.001  0.008  0.009
    3  0.000  0.001  0.008  0.009
    4  0.000  0.001  0.008  0.009
    5  0.001  0.000  0.002  0.002
    6  0.000  0.001  0.008  0.009
    7  0.000  0.001  0.008  0.009
    8  0.000  0.001  0.008  0.009
    9  0.017  0.001  0.000  0.019
   10  0.010  0.001  0.014  0.026
   11  0.002  0.000  0.045  0.047
   12  0.010  0.001  0.014  0.026
   13  0.002  0.000  0.045  0.047
   14  0.002  0.000  0.045  0.047
   15  0.004  0.001  0.019  0.024
   16  0.010  0.001  0.014  0.026
   17  0.004  0.001  0.019  0.024
   18  0.004  0.001  0.019  0.025
   19  0.003  0.001  0.015  0.019
   20  0.002  0.000  0.054  0.056
   21  0.002  0.000  0.054  0.056
   22  0.012  0.001  0.016  0.029
   23  0.002  0.000  0.054  0.056
   24  0.012  0.001  0.016  0.029
   25  0.003  0.001  0.015  0.019
   26  0.003  0.001  0.015  0.019
   27  0.012  0.001  0.016  0.029
   28  0.012  0.001  0.000  0.013
   29  0.000  0.000  0.006  0.006
   30  0.000  0.000  0.006  0.006
   31  0.000  0.000  0.006  0.006
   32  0.000  0.000  0.006  0.006
   33  0.000  0.000  0.006  0.006
   34  0.000  0.000  0.006  0.006
   35  0.009  0.001  0.002  0.013
   36  0.000  0.000  0.000  0.001
   37  0.000  0.000  0.000  0.000
tot    0.147  0.027  0.581  0.755
 
band    17 # energy   -5.56060545 # occ.  2.00000000
 
ion      s      p      d    tot
    1  0.000  0.001  0.004  0.004
    2  0.009  0.001  0.004  0.014
    3  0.001  0.000  0.004  0.006
    4  0.009  0.001  0.004  0.014
    5  0.000  0.001  0.011  0.012
    6  0.004  0.001  0.005  0.010
    7  0.001  0.000  0.004  0.006
    8  0.004  0.001  0.005  0.010
    9  0.000  0.000  0.009  0.009
   10  0.009  0.002  0.009  0.020
   11  0.005  0.000  0.041  0.046
   12  0.002  0.001  0.039  0.042
   13  0.005  0.000  0.041  0.046
   14  0.019  0.001  0.012  0.032
   15  0.000  0.001  0.014  0.015
   16  0.002  0.001  0.039  0.042
   17  0.000  0.001  0.014  0.015
   18  0.002  0.000  0.022  0.024
   19  0.002  0.001  0.014  0.016
   20  0.024  0.001  0.008  0.033
   21  0.006  0.000  0.061  0.067
   22  0.001  0.001  0.031  0.033
   23  0.006  0.000  0.061  0.067
   24  0.004  0.001  0.013  0.019
   25  0.008  0.000  0.023  0.030
   26  0.002  0.001  0.014  0.016
   27  0.001  0.001  0.031  0.033
   28  0.000  0.000  0.008  0.008
   29  0.006  0.001  0.004  0.011
   30  0.000  0.000  0.004  0.004
   31  0.006  0.001  0.004  0.011
   32  0.006  0.001  0.004  0.011
   33  0.000  0.000  0.004  0.004
   34  0.006  0.001  0.004  0.011
   35  0.000  0.000  0.003  0.003
   36  0.000  0.001  0.003  0.004
   37  0.000  0.000  0.000  0.000
tot    0.148  0.028  0.575  0.751
 
band    18 # energy   -5.56059725 # occ.  2.00000000
 
ion      s      p      d    tot
    1  0.000  0.001  0.004  0.004
    2  0.000  0.000  0.005  0.006
    3  0.008  0.001  0.005  0.014
    4  0.000  0.000  0.005  0.006
    5  0.000  0.001  0.011  0.012
    6  0.005  0.001  0.004  0.010
    7  0.008  0.001  0.005  0.014
    8  0.005  0.001  0.004  0.010
    9  0.000  0.000  0.009  0.009
   10  0.000  0.001  0.049  0.050
   11  0.014  0.001  0.022  0.037
   12  0.007  0.002  0.019  0.027
   13  0.014  0.001  0.022  0.036
   14  0.000  0.000  0.051  0.051
   15  0.001  0.000  0.020  0.021
   16  0.007  0.002  0.019  0.027
   17  0.001  0.000  0.020  0.021
   18  0.000  0.001  0.011  0.012
   19  0.006  0.000  0.020  0.026
   20  0.000  0.000  0.079  0.079
   21  0.018  0.001  0.026  0.045
   22  0.003  0.001  0.019  0.024
   23  0.018  0.001  0.026  0.045
   24  0.000  0.001  0.037  0.038
   25  0.000  0.001  0.010  0.011
   26  0.006  0.000  0.020  0.026
   27  0.003  0.001  0.019  0.024
   28  0.000  0.000  0.008  0.008
   29  0.002  0.000  0.004  0.006
   30  0.008  0.001  0.004  0.013
   31  0.002  0.000  0.004  0.006
   32  0.002  0.001  0.004  0.006
   33  0.008  0.001  0.004  0.013
   34  0.002  0.001  0.004  0.006
   35  0.000  0.000  0.003  0.003
   36  0.000  0.001  0.003  0.004
   37  0.000  0.000  0.000  0.000
tot    0.149  0.028  0.575  0.751
 
band    19 # energy   -5.50941853 # occ.  2.00000000
 
ion      s      p      d    tot
    1  0.000  0.001  0.015  0.015
    2  0.010  0.001  0.005  0.016
    3  0.002  0.000  0.005  0.007
    4  0.010  0.001  0.005  0.016
    5  0.000  0.000  0.005  0.005
    6  0.003  0.001  0.005  0.010
    7  0.002  0.000  0.005  0.007
    8  0.003  0.001  0.005  0.010
    9  0.000  0.001  0.007  0.008
   10  0.000  0.001  0.030  0.030
   11  0.001  0.001  0.020  0.021
   12  0.007  0.000  0.022  0.030
   13  0.001  0.001  0.020  0.021
   14  0.000  0.001  0.019  0.020
   15  0.010  0.002  0.021  0.033
   16  0.007  0.000  0.022  0.030
   17  0.011  0.002  0.021  0.033
   18  0.000  0.000  0.063  0.064
   19  0.013  0.001  0.020  0.034
   20  0.000  0.002  0.019  0.020
   21  0.000  0.001  0.023  0.024
   22  0.018  0.001  0.020  0.039
   23  0.000  0.001  0.023  0.024
   24  0.000  0.000  0.032  0.033
   25  0.000  0.000  0.067  0.068
   26  0.013  0.001  0.020  0.034
   27  0.018  0.001  0.020  0.039
   28  0.000  0.001  0.005  0.006
   29  0.006  0.001  0.003  0.010
   30  0.000  0.000  0.005  0.005
   31  0.006  0.001  0.003  0.010
   32  0.004  0.001  0.003  0.007
   33  0.000  0.000  0.005  0.005
   34  0.004  0.001  0.003  0.007
   35  0.000  0.001  0.008  0.009
   36  0.000  0.000  0.001  0.001
   37  0.000  0.000  0.000  0.000
tot    0.148  0.028  0.574  0.750
 
band    20 # energy   -5.50938652 # occ.  2.00000000
 
ion      s      p      d    tot
    1  0.000  0.001  0.015  0.015
    2  0.000  0.000  0.005  0.006
    3  0.008  0.001  0.005  0.014
    4  0.000  0.000  0.005  0.006
    5  0.000  0.000  0.005  0.005
    6  0.007  0.001  0.005  0.012
    7  0.008  0.001  0.005  0.014
    8  0.007  0.001  0.005  0.012
    9  0.000  0.001  0.007  0.008
   10  0.009  0.000  0.020  0.029
   11  0.000  0.001  0.019  0.020
   12  0.002  0.001  0.027  0.030
   13  0.000  0.001  0.019  0.020
   14  0.001  0.001  0.020  0.022
   15  0.004  0.001  0.049  0.053
   16  0.002  0.001  0.027  0.030
   17  0.003  0.001  0.049  0.053
   18  0.014  0.002  0.006  0.023
   19  0.004  0.001  0.051  0.056
   20  0.000  0.000  0.024  0.025
   21  0.000  0.001  0.020  0.021
   22  0.006  0.001  0.029  0.035
   23  0.000  0.001  0.020  0.021
   24  0.024  0.001  0.016  0.041
   25  0.018  0.001  0.004  0.023
   26  0.004  0.001  0.051  0.056
   27  0.006  0.001  0.029  0.035
   28  0.000  0.001  0.005  0.006
   29  0.001  0.000  0.004  0.005
   30  0.006  0.001  0.003  0.010
   31  0.001  0.000  0.004  0.005
   32  0.002  0.001  0.004  0.008
   33  0.006  0.001  0.003  0.010
   34  0.002  0.001  0.004  0.008
   35  0.000  0.001  0.008  0.009
   36  0.000  0.000  0.001  0.001
   37  0.000  0.000  0.000  0.000
tot    0.148  0.028  0.574  0.750
 
band    21 # energy   -5.48514541 # occ.  2.00000000
 
ion      s      p      d    tot
    1  0.014  0.001  0.001  0.015
    2  0.000  0.001  0.010  0.011
    3  0.000  0.001  0.010  0.011
    4  0.000  0.001  0.010  0.011
    5  0.017  0.002  0.001  0.020
    6  0.000  0.001  0.010  0.011
    7  0.000  0.001  0.010  0.011
    8  0.000  0.001  0.010  0.011
    9  0.000  0.000  0.002  0.003
   10  0.000  0.001  0.041  0.042
   11  0.006  0.002  0.011  0.018
   12  0.000  0.001  0.041  0.042
   13  0.006  0.002  0.011  0.018
   14  0.006  0.002  0.011  0.018
   15  0.004  0.001  0.030  0.035
   16  0.000  0.001  0.041  0.042
   17  0.004  0.001  0.030  0.035
   18  0.004  0.001  0.030  0.035
   19  0.011  0.001  0.046  0.057
   20  0.010  0.001  0.004  0.015
   21  0.010  0.001  0.004  0.015
   22  0.000  0.000  0.038  0.038
   23  0.010  0.001  0.004  0.015
   24  0.000  0.000  0.038  0.038
   25  0.011  0.001  0.046  0.057
   26  0.011  0.001  0.046  0.057
   27  0.000  0.000  0.038  0.038
   28  0.001  0.001  0.008  0.010
   29  0.001  0.000  0.004  0.005
   30  0.001  0.000  0.004  0.005
   31  0.001  0.000  0.004  0.005
   32  0.001  0.000  0.004  0.005
   33  0.001  0.000  0.004  0.005
   34  0.001  0.000  0.004  0.005
   35  0.001  0.000  0.000  0.001
   36  0.003  0.001  0.000  0.005