 vasp.6.2.0 18Jan21 (build Jun 12 2021 23:27:24) complex                        
  
 executed on             LinuxIFC date 2022.05.30  16:03:53
 running on   28 total cores
 distrk:  each k-point on   28 cores,    1 groups
 distr:  one band on NCORE=   1 cores,   28 groups


--------------------------------------------------------------------------------------------------------


 INCAR:
   ISMEAR = -5
   SIGMA = 0.1
   ISPIN = 1
   EDIFF = 1.d-5
   EDIFFG = -0.01
   NSW = 0
   NELM = 150
   ENCUT = 500
   ISIF = 2
   IBRION = 2
   LREAL = Auto
   ALGO = Fast
   ICHARG = 11
   LORBIT = 10
   LCHARG = .F.
   LWAVE = .F.

 POTCAR:    PAW_PBE Au 04Oct2007                  
 POTCAR:    PAW_PBE Mo 08Apr2002                  
 POTCAR:    PAW_PBE C 08Apr2002                   
 POTCAR:    PAW_PBE O 08Apr2002                   
 POTCAR:    PAW_PBE H 15Jun2001                   
 -----------------------------------------------------------------------------
|                                                                             |
|           W    W    AA    RRRRR   N    N  II  N    N   GGGG   !!!           |
|           W    W   A  A   R    R  NN   N  II  NN   N  G    G  !!!           |
|           W    W  A    A  R    R  N N  N  II  N N  N  G       !!!           |
|           W WW W  AAAAAA  RRRRR   N  N N  II  N  N N  G  GGG   !            |
|           WW  WW  A    A  R   R   N   NN  II  N   NN  G    G                |
|           W    W  A    A  R    R  N    N  II  N    N   GGGG   !!!           |
|                                                                             |
|     For optimal performance we recommend to set                             |
|       NCORE = 2 up to number-of-cores-per-socket                            |
|     NCORE specifies how many cores store one orbital (NPAR=cpu/NCORE).      |
|     This setting can greatly improve the performance of VASP for DFT.       |
|     The default, NCORE=1 might be grossly inefficient on modern             |
|     multi-core architectures or massively parallel machines. Do your        |
|     own testing! More info at https://www.vasp.at/wiki/index.php/NCORE      |
|     Unfortunately you need to use the default for GW and RPA                |
|     calculations (for HF NCORE is supported but not extensively tested      |
|     yet).                                                                   |
|                                                                             |
 -----------------------------------------------------------------------------

 POTCAR:    PAW_PBE Au 04Oct2007                  
   VRHFIN =Au: s1d10                                                                                
   LEXCH  = PE                                                                                      
   EATOM  =   926.0867 eV,   68.0654 Ry                                                             
                                                                                                    
   TITEL  = PAW_PBE Au 04Oct2007                                                                    
   LULTRA =        F    use ultrasoft PP ?                                                          
   IUNSCR =        1    unscreen: 0-lin 1-nonlin 2-no                                               
   RPACOR =    2.330    partial core radius                                                         
   POMASS =  196.966; ZVAL   =   11.000    mass and valenz                                          
   RCORE  =    2.500    outmost cutoff radius                                                       
   RWIGS  =    2.840; RWIGS  =    1.503    wigner-seitz radius (au A)                               
   ENMAX  =  229.943; ENMIN  =  172.457 eV                                                          
   ICORE  =        3    local potential                                                             
   LCOR   =        T    correct aug charges                                                         
   LPAW   =        T    paw PP                                                                      
   EAUG   =  356.670                                                                                
   DEXC   =    0.000                                                                                
   RMAX   =    2.562    core radius for proj-oper                                                   
   RAUG   =    1.300    factor for augmentation sphere                                              
   RDEP   =    2.598    radius for radial grids                                                     
   RDEPT  =    2.193    core radius for aug-charge                                                  
                                                                                                    
   Atomic configuration                                                                             
   16 entries                                                                                       
     n  l   j            E        occ.                                                              
     1  0  0.50    -80748.5001   2.0000                                                             
     2  0  0.50    -14244.7466   2.0000                                                             
     2  1  1.50    -12310.9591   6.0000                                                             
     3  0  0.50     -3362.1768   2.0000                                                             
     3  1  1.50     -2801.5463   6.0000                                                             
     3  2  2.50     -2203.8206  10.0000                                                             
     4  0  0.50      -729.8168   2.0000                                                             
     4  1  1.50      -546.0527   6.0000                                                             
     4  2  2.50      -325.7302  10.0000                                                             
     4  3  3.50       -81.1472  14.0000                                                             
     5  0  0.50      -108.3201   2.0000                                                             
     5  1  1.50       -59.7479   6.0000                                                             
     5  2  2.50        -6.8783  10.0000                                                             
     6  0  0.50        -5.7602   1.0000                                                             
     6  1  1.50        -6.8029   0.0000                                                             
     5  3  2.50        -1.3606   0.0000                                                             
   Description                                                                                      
     l       E           TYP  RCUT    TYP  RCUT                                                     
     2     -6.8782861     23  2.500                                                                 
     2     -8.2388687     23  2.500                                                                 
     0     -5.7601759     23  2.500                                                                 
     0     -0.8493231     23  2.500                                                                 
     1     -2.7211652     23  2.500                                                                 
     1     27.2116520     23  2.500                                                                 
     3     -1.3605826     23  2.500                                                                 
  local pseudopotential read in
  partial core-charges read in
  partial kinetic energy density read in
  atomic valenz-charges read in
  non local Contribution for L=           2  read in
    real space projection operators read in
  non local Contribution for L=           2  read in
    real space projection operators read in
  non local Contribution for L=           0  read in
    real space projection operators read in
  non local Contribution for L=           0  read in
    real space projection operators read in
  non local Contribution for L=           1  read in
    real space projection operators read in
  non local Contribution for L=           1  read in
    real space projection operators read in
    PAW grid and wavefunctions read in
 
   number of l-projection  operators is LMAX  =           6
   number of lm-projection operators is LMMAX =          18
 
 POTCAR:    PAW_PBE Mo 08Apr2002                  
   VRHFIN =Mo: 4p5s4d                                                                               
   LEXCH  = PE                                                                                      
   EATOM  =   217.5176 eV,   15.9871 Ry                                                             
                                                                                                    
   TITEL  = PAW_PBE Mo 08Apr2002                                                                    
   LULTRA =        F    use ultrasoft PP ?                                                          
   IUNSCR =        1    unscreen: 0-lin 1-nonlin 2-no                                               
   RPACOR =    2.200    partial core radius                                                         
   POMASS =   95.940; ZVAL   =    6.000    mass and valenz                                          
   RCORE  =    2.750    outmost cutoff radius                                                       
   RWIGS  =    2.750; RWIGS  =    1.455    wigner-seitz radius (au A)                               
   ENMAX  =  224.584; ENMIN  =  168.438 eV                                                          
   RCLOC  =    2.111    cutoff for local pot                                                        
   LCOR   =        T    correct aug charges                                                         
   LPAW   =        T    paw PP                                                                      
   EAUG   =  345.278                                                                                
   DEXC   =    0.000                                                                                
   RMAX   =    2.821    core radius for proj-oper                                                   
   RAUG   =    1.300    factor for augmentation sphere                                              
   RDEP   =    2.815    radius for radial grids                                                     
   RDEPT  =    2.211    core radius for aug-charge                                                  
                                                                                                    
   Atomic configuration                                                                             
   12 entries                                                                                       
     n  l   j            E        occ.                                                              
     1  0  0.50    -19819.0341   2.0000                                                             
     2  0  0.50     -2799.0127   2.0000                                                             
     2  1  1.50     -2502.0276   6.0000                                                             
     3  0  0.50      -476.4448   2.0000                                                             
     3  1  1.50      -379.1496   6.0000                                                             
     3  2  2.50      -220.9367  10.0000                                                             
     4  0  0.50       -64.3378   2.0000                                                             
     4  1  1.50       -38.4773   6.0000                                                             
     4  2  2.50        -3.7535   5.0000                                                             
     5  0  0.50        -4.0862   1.0000                                                             
     5  1  0.50        -2.7701   0.0000                                                             
     4  3  2.50        -1.3606   0.0000                                                             
   Description                                                                                      
     l       E           TYP  RCUT    TYP  RCUT                                                     
     2     -3.7534765     23  2.500                                                                 
     2     -5.1140591     23  2.500                                                                 
     0     -4.0861560     23  2.600                                                                 
     0     13.6058260     23  2.600                                                                 
     1      5.4423304     23  2.750                                                                 
     1     27.2116520     23  2.750                                                                 
  local pseudopotential read in
  partial core-charges read in
  partial kinetic energy density read in
  atomic valenz-charges read in
  non local Contribution for L=           2  read in
    real space projection operators read in
  non local Contribution for L=           2  read in
    real space projection operators read in
  non local Contribution for L=           0  read in
    real space projection operators read in
  non local Contribution for L=           0  read in
    real space projection operators read in
  non local Contribution for L=           1  read in
    real space projection operators read in
  non local Contribution for L=           1  read in
    real space projection operators read in
    PAW grid and wavefunctions read in
 
   number of l-projection  operators is LMAX  =           6
   number of lm-projection operators is LMMAX =          18
 
 POTCAR:    PAW_PBE C 08Apr2002                   
   VRHFIN =C: s2p2                                                                                  
   LEXCH  = PE                                                                                      
   EATOM  =   147.1560 eV,   10.8157 Ry                                                             
                                                                                                    
   TITEL  = PAW_PBE C 08Apr2002                                                                     
   LULTRA =        F    use ultrasoft PP ?                                                          
   IUNSCR =        1    unscreen: 0-lin 1-nonlin 2-no                                               
   RPACOR =    1.200    partial core radius                                                         
   POMASS =   12.011; ZVAL   =    4.000    mass and valenz                                          
   RCORE  =    1.500    outmost cutoff radius                                                       
   RWIGS  =    1.630; RWIGS  =    0.863    wigner-seitz radius (au A)                               
   ENMAX  =  400.000; ENMIN  =  300.000 eV                                                          
   ICORE  =        2    local potential                                                             
   LCOR   =        T    correct aug charges                                                         
   LPAW   =        T    paw PP                                                                      
   EAUG   =  644.873                                                                                
   DEXC   =    0.000                                                                                
   RMAX   =    1.529    core radius for proj-oper                                                   
   RAUG   =    1.300    factor for augmentation sphere                                              
   RDEP   =    1.501    radius for radial grids                                                     
   RDEPT  =    1.300    core radius for aug-charge                                                  
                                                                                                    
   Atomic configuration                                                                             
    4 entries                                                                                       
     n  l   j            E        occ.                                                              
     1  0  0.50      -273.3789   2.0000                                                             
     2  0  0.50       -13.7508   2.0000                                                             
     2  1  0.50        -5.2854   2.0000                                                             
     3  2  1.50        -5.4423   0.0000                                                             
   Description                                                                                      
     l       E           TYP  RCUT    TYP  RCUT                                                     
     0    -13.7508458     23  1.200                                                                 
     0     -8.2022199     23  1.200                                                                 
     1     -5.2854383     23  1.500                                                                 
     1     34.0145650     23  1.500                                                                 
     2     -5.4423304      7  1.500                                                                 
  local pseudopotential read in
  partial core-charges read in
  partial kinetic energy density read in
  atomic valenz-charges read in
  non local Contribution for L=           0  read in
    real space projection operators read in
  non local Contribution for L=           0  read in
    real space projection operators read in
  non local Contribution for L=           1  read in
    real space projection operators read in
  non local Contribution for L=           1  read in
    real space projection operators read in
    PAW grid and wavefunctions read in
 
   number of l-projection  operators is LMAX  =           4
   number of lm-projection operators is LMMAX =           8
 
 POTCAR:    PAW_PBE O 08Apr2002                   
   VRHFIN =O: s2p4                                                                                  
   LEXCH  = PE                                                                                      
   EATOM  =   432.3788 eV,   31.7789 Ry                                                             
                                                                                                    
   TITEL  = PAW_PBE O 08Apr2002                                                                     
   LULTRA =        F    use ultrasoft PP ?                                                          
   IUNSCR =        1    unscreen: 0-lin 1-nonlin 2-no                                               
   RPACOR =    1.200    partial core radius                                                         
   POMASS =   16.000; ZVAL   =    6.000    mass and valenz                                          
   RCORE  =    1.520    outmost cutoff radius                                                       
   RWIGS  =    1.550; RWIGS  =    0.820    wigner-seitz radius (au A)                               
   ENMAX  =  400.000; ENMIN  =  300.000 eV                                                          
   ICORE  =        2    local potential                                                             
   LCOR   =        T    correct aug charges                                                         
   LPAW   =        T    paw PP                                                                      
   EAUG   =  605.392                                                                                
   DEXC   =    0.000                                                                                
   RMAX   =    1.553    core radius for proj-oper                                                   
   RAUG   =    1.300    factor for augmentation sphere                                              
   RDEP   =    1.550    radius for radial grids                                                     
   RDEPT  =    1.329    core radius for aug-charge                                                  
                                                                                                    
   Atomic configuration                                                                             
    4 entries                                                                                       
     n  l   j            E        occ.                                                              
     1  0  0.50      -514.6923   2.0000                                                             
     2  0  0.50       -23.9615   2.0000                                                             
     2  1  0.50        -9.0305   4.0000                                                             
     3  2  1.50        -9.5241   0.0000                                                             
   Description                                                                                      
     l       E           TYP  RCUT    TYP  RCUT                                                     
     0    -23.9615318     23  1.200                                                                 
     0     -9.5240782     23  1.200                                                                 
     1     -9.0304911     23  1.520                                                                 
     1      8.1634956     23  1.520                                                                 
     2     -9.5240782      7  1.500                                                                 
  local pseudopotential read in
  partial core-charges read in
  partial kinetic energy density read in
  kinetic energy density of atom read in
  atomic valenz-charges read in
  non local Contribution for L=           0  read in
    real space projection operators read in
  non local Contribution for L=           0  read in
    real space projection operators read in
  non local Contribution for L=           1  read in
    real space projection operators read in
  non local Contribution for L=           1  read in
    real space projection operators read in
    PAW grid and wavefunctions read in
 
   number of l-projection  operators is LMAX  =           4
   number of lm-projection operators is LMMAX =           8
 
 POTCAR:    PAW_PBE H 15Jun2001                   
   VRHFIN =H: ultrasoft test                                                                        
   LEXCH  = PE                                                                                      
   EATOM  =    12.4884 eV,    0.9179 Ry                                                             
                                                                                                    
   TITEL  = PAW_PBE H 15Jun2001                                                                     
   LULTRA =        F    use ultrasoft PP ?                                                          
   IUNSCR =        0    unscreen: 0-lin 1-nonlin 2-no                                               
   RPACOR =    0.000    partial core radius                                                         
   POMASS =    1.000; ZVAL   =    1.000    mass and valenz                                          
   RCORE  =    1.100    outmost cutoff radius                                                       
   RWIGS  =    0.700; RWIGS  =    0.370    wigner-seitz radius (au A)                               
   ENMAX  =  250.000; ENMIN  =  200.000 eV                                                          
   RCLOC  =    0.701    cutoff for local pot                                                        
   LCOR   =        T    correct aug charges                                                         
   LPAW   =        T    paw PP                                                                      
   EAUG   =  400.000                                                                                
   RMAX   =    1.123    core radius for proj-oper                                                   
   RAUG   =    1.200    factor for augmentation sphere                                              
   RDEP   =    1.112    radius for radial grids                                                     
   RDEPT  =    0.926    core radius for aug-charge                                                  
                                                                                                    
   Atomic configuration                                                                             
    2 entries                                                                                       
     n  l   j            E        occ.                                                              
     1  0  0.50        -6.4927   1.0000                                                             
     2  1  0.50        -3.4015   0.0000                                                             
   Description                                                                                      
     l       E           TYP  RCUT    TYP  RCUT                                                     
     0     -6.4927494     23  1.100                                                                 
     0      6.8029130     23  1.100                                                                 
     1     -4.0817478     23  1.100                                                                 
  local pseudopotential read in
  atomic valenz-charges read in
  non local Contribution for L=           0  read in
    real space projection operators read in
  non local Contribution for L=           0  read in
    real space projection operators read in
  non local Contribution for L=           1  read in
    real space projection operators read in
    PAW grid and wavefunctions read in
 
   number of l-projection  operators is LMAX  =           3
   number of lm-projection operators is LMMAX =           5
 
 Optimization of the real space projectors (new method)

 maximal supplied QI-value         = 15.12
 optimisation between [QCUT,QGAM] = [ 11.34, 22.83] = [ 36.00,145.93] Ry 
 Optimized for a Real-space Cutoff    1.39 Angstroem

   l    n(q)    QCUT    max X(q) W(low)/X(q) W(high)/X(q)  e(spline) 
   2      9    11.338    60.898    0.39E-03    0.42E-03    0.21E-06
   2      9    11.338    58.894    0.40E-03    0.42E-03    0.22E-06
   0      9    11.338   109.617    0.13E-03    0.20E-04    0.13E-06
   0      9    11.338    75.026    0.13E-03    0.20E-04    0.13E-06
   1      9    11.338    16.344    0.33E-04    0.24E-03    0.18E-06
   1      9    11.338    10.160    0.26E-04    0.19E-03    0.15E-06
 Optimization of the real space projectors (new method)

 maximal supplied QI-value         = 13.61
 optimisation between [QCUT,QGAM] = [ 11.43, 22.86] = [ 36.58,146.31] Ry 
 Optimized for a Real-space Cutoff    1.56 Angstroem

   l    n(q)    QCUT    max X(q) W(low)/X(q) W(high)/X(q)  e(spline) 
   2     10    11.429    80.908    0.27E-03    0.78E-03    0.13E-05
   2     10    11.429    79.000    0.27E-03    0.78E-03    0.13E-05
   0     11    11.429    52.066    0.33E-04    0.97E-04    0.72E-06
   0     11    11.429    24.514    0.27E-04    0.80E-04    0.60E-06
   1     10    11.429    16.033    0.31E-04    0.17E-03    0.36E-06
   1     10    11.429    11.179    0.22E-04    0.13E-03    0.29E-06
 Optimization of the real space projectors (new method)

 maximal supplied QI-value         = 25.13
 optimisation between [QCUT,QGAM] = [ 11.31, 22.87] = [ 35.82,146.48] Ry 
 Optimized for a Real-space Cutoff    1.00 Angstroem

   l    n(q)    QCUT    max X(q) W(low)/X(q) W(high)/X(q)  e(spline) 
   0      7    11.310   115.676    0.43E-03    0.13E-02    0.19E-06
   0      7    11.310    87.132    0.43E-03    0.13E-02    0.18E-06
   1      6    11.310     4.429    0.42E-03    0.74E-03    0.11E-06
   1      6    11.310     2.733    0.34E-03    0.55E-03    0.92E-07
 Optimization of the real space projectors (new method)

 maximal supplied QI-value         = 24.76
 optimisation between [QCUT,QGAM] = [ 11.39, 22.77] = [ 36.31,145.25] Ry 
 Optimized for a Real-space Cutoff    1.00 Angstroem

   l    n(q)    QCUT    max X(q) W(low)/X(q) W(high)/X(q)  e(spline) 
   0      7    11.387    20.381    0.39E-03    0.13E-02    0.15E-06
   0      7    11.387    15.268    0.42E-03    0.14E-02    0.17E-06
   1      6    11.387     5.964    0.41E-03    0.11E-02    0.17E-06
   1      6    11.387     5.382    0.39E-03    0.87E-03    0.15E-06
 Optimization of the real space projectors (new method)

 maximal supplied QI-value         = 34.20
 optimisation between [QCUT,QGAM] = [ 11.29, 22.57] = [ 35.68,142.71] Ry 
 Optimized for a Real-space Cutoff    1.16 Angstroem

   l    n(q)    QCUT    max X(q) W(low)/X(q) W(high)/X(q)  e(spline) 
   0      8    11.287    19.460    0.40E-03    0.73E-03    0.16E-06
   0      8    11.287    12.209    0.38E-03    0.70E-03    0.15E-06
   1      7    11.287     4.655    0.22E-03    0.25E-04    0.22E-06
  PAW_PBE Au 04Oct2007                  :
 energy of atom  1       EATOM= -926.0867
 kinetic energy error for atom=    0.0042 (will be added to EATOM!!)
  PAW_PBE Mo 08Apr2002                  :
 energy of atom  2       EATOM= -217.5176
 kinetic energy error for atom=    0.0017 (will be added to EATOM!!)
  PAW_PBE C 08Apr2002                   :
 energy of atom  3       EATOM= -147.1560
 kinetic energy error for atom=    0.0076 (will be added to EATOM!!)
  PAW_PBE O 08Apr2002                   :
 energy of atom  4       EATOM= -432.3788
 kinetic energy error for atom=    0.0224 (will be added to EATOM!!)
  PAW_PBE H 15Jun2001                   :
 energy of atom  5       EATOM=  -12.4884
 kinetic energy error for atom=    0.0020 (will be added to EATOM!!)
 
 
 POSCAR: Au-Mo-COH
  positions in direct lattice
  velocities in cartesian coordinates
 exchange correlation table for  LEXCH =        8
   RHO(1)=    0.500       N(1)  =     2000
   RHO(2)=  100.500       N(2)  =     4000

 VTST: version 3.2, (02/03/18)

 CHAIN: initializing optimizer
 
 OPT: Using VASP Conjugate-Gradient optimizer
 CHAIN: Read ICHAIN            0
 
 POSCAR: Au-Mo-COH
  positions in direct lattice
  velocities in cartesian coordinates
 


--------------------------------------------------------------------------------------------------------


 ion  position               nearest neighbor table
   1  0.000  0.000  0.197-  16 2.94  12 2.94   6 2.94   8 2.94   7 2.94   3 2.94  10 2.94   4 2.94
                             2 2.94
   2  0.333  0.000  0.197-   9 2.94  11 2.94  17 2.94  10 2.94   8 2.94   4 2.94   5 2.94   1 2.94
                             3 2.94
   3  0.667  0.000  0.197-   7 2.94  18 2.94  12 2.94   1 2.94  11 2.94   5 2.94   6 2.94   9 2.94
                             2 2.94
   4  0.000  0.333  0.197-  10 2.94   6 2.94   5 2.94  13 2.94   2 2.94  15 2.94   9 2.94   1 2.94
                             7 2.94
   5  0.333  0.333  0.197-  13 2.94   7 2.94  11 2.94   4 2.94   2 2.94  14 2.94   3 2.94   8 2.94
                             6 2.94
   6  0.667  0.333  0.197-  15 2.94  14 2.94   1 2.94  12 2.94   4 2.94   9 2.94   8 2.94   3 2.94
                             5 2.94
   7  0.000  0.667  0.197-  18 2.94   3 2.94  16 2.94   5 2.94   1 2.94  13 2.94   8 2.94   4 2.94
                             9 2.94
   8  0.333  0.667  0.197-   9 2.94  17 2.94   1 2.94   2 2.94  14 2.94  16 2.94   6 2.94   7 2.94
                             5 2.94
   9  0.667  0.667  0.197-   2 2.94   8 2.94  17 2.94   6 2.94  15 2.94   4 2.94   3 2.94  18 2.94
                             7 2.94
  10  0.111  0.111  0.287-  20 2.91  11 2.94  17 2.94   2 2.94   4 2.94   1 2.94  12 2.94  16 2.94
                            13 2.94  15 2.94  26 2.95  19 2.95
  11  0.444  0.111  0.287-  20 2.91  21 2.91  13 2.94   2 2.94  10 2.94  17 2.94   5 2.94   3 2.94
                            18 2.94  14 2.94  12 2.94  27 2.94
  12  0.778  0.111  0.287-  21 2.91  16 2.94  18 2.94   1 2.94  14 2.94  15 2.94   3 2.94   6 2.94
                            10 2.94  11 2.94  25 2.95  19 2.95
  13  0.111  0.444  0.287-  23 2.91  20 2.91   5 2.94  18 2.94  11 2.94   7 2.94   4 2.94  16 2.94
                            10 2.94  14 2.94  15 2.94  22 2.94
  14  0.444  0.444  0.287-  21 2.91  23 2.91  15 2.94   6 2.94  12 2.94   8 2.94  17 2.94   5 2.94
                            16 2.94  13 2.94  11 2.94  24 2.94
  15  0.778  0.444  0.287-  24 2.93  22 2.93  14 2.94   6 2.94  17 2.94  12 2.94   9 2.94   4 2.94
                            10 2.94  13 2.94  18 2.94  19 2.95
  16  0.111  0.778  0.287-  23 2.91  18 2.94  12 2.94   7 2.94   1 2.94   8 2.94  13 2.94  10 2.94
                            14 2.94  17 2.94  25 2.95  26 2.95
  17  0.444  0.778  0.287-  27 2.93  24 2.93   9 2.94  15 2.94   2 2.94  10 2.94  11 2.94   8 2.94
                            14 2.94  16 2.94  18 2.94  26 2.95
  18  0.778  0.778  0.287-  22 2.93  27 2.93  16 2.94   7 2.94  13 2.94  12 2.94   3 2.94  11 2.94
                             9 2.94  15 2.94  17 2.94  25 2.95
  19  0.889  0.223  0.377-  24 2.93  22 2.93  21 2.94  20 2.94  28 2.95  26 2.95  25 2.95  15 2.95
                            10 2.95  12 2.95  32 3.02  31 3.02
  20  0.222  0.222  0.375-  36 2.77  11 2.91  13 2.91  10 2.91  23 2.94  21 2.94  26 2.94  19 2.94
                            27 2.95  22 2.95  29 2.98  31 2.98
  21  0.555  0.222  0.375-  36 2.77  14 2.91  11 2.91  12 2.91  20 2.94  23 2.94  25 2.94  19 2.94
                            27 2.95  24 2.95  30 2.98  32 2.98
  22  0.887  0.557  0.376-  24 2.91  27 2.91  18 2.93  15 2.93  25 2.93  19 2.93  13 2.94  35 2.95
                            23 2.95  20 2.95  33 3.00  31 3.00
  23  0.222  0.555  0.375-  36 2.77  13 2.91  14 2.91  16 2.91  20 2.94  21 2.94  25 2.94  26 2.94
                            22 2.95  24 2.95  33 2.98  34 2.98
  24  0.557  0.557  0.376-  27 2.91  22 2.91  15 2.93  17 2.93  26 2.93  19 2.93  14 2.94  35 2.95
                            21 2.95  23 2.95  32 3.00  34 3.00
  25  0.889  0.889  0.377-  22 2.93  27 2.93  23 2.94  21 2.94  28 2.95  19 2.95  26 2.95  18 2.95
                            16 2.95  12 2.95  33 3.02  30 3.02
  26  0.223  0.889  0.377-  27 2.93  24 2.93  20 2.94  23 2.94  28 2.95  19 2.95  25 2.95  17 2.95
                            10 2.95  16 2.95  29 3.02  34 3.02
  27  0.557  0.887  0.376-  24 2.91  22 2.91  17 2.93  18 2.93  26 2.93  25 2.93  11 2.94  35 2.95
                            20 2.95  21 2.95  29 3.00  30 3.00
  28  0.000  0.000  0.467-  25 2.95  19 2.95  26 2.95  34 2.98  32 2.98  33 2.98  30 2.98  31 2.98
                            29 2.98
  29  0.333  0.010  0.469-  30 2.85  31 2.85  36 2.87  20 2.98  35 2.98  28 2.98  27 3.00  26 3.02
                            34 3.11
  30  0.657  0.010  0.469-  29 2.85  32 2.85  36 2.87  21 2.98  35 2.98  28 2.98  27 3.00  25 3.02
                            33 3.11
  31  0.010  0.333  0.469-  33 2.85  29 2.85  36 2.87  20 2.98  35 2.98  28 2.98  22 3.00  19 3.02
                            32 3.11
  32  0.657  0.333  0.469-  34 2.85  30 2.85  36 2.87  21 2.98  35 2.98  28 2.98  24 3.00  19 3.02
                            31 3.11
  33  0.010  0.657  0.469-  31 2.85  34 2.85  36 2.87  23 2.98  35 2.98  28 2.98  22 3.00  25 3.02
                            30 3.11
  34  0.333  0.657  0.469-  32 2.85  33 2.85  36 2.87  23 2.98  35 2.98  28 2.98  24 3.00  26 3.02
                            29 3.11
  35  0.667  0.667  0.467-  24 2.95  27 2.95  22 2.95  29 2.98  34 2.98  32 2.98  31 2.98  30 2.98
                            33 2.98
  36  0.333  0.333  0.457-  37 1.84  20 2.77  23 2.77  21 2.77  33 2.87  31 2.87  29 2.87  30 2.87
                            34 2.87  32 2.87
  37  0.333  0.333  0.526-  38 1.26  36 1.84
  38  0.333  0.333  0.573-  39 0.96  37 1.26
  39  0.333  0.333  0.609-  38 0.96
 
  LATTYP: Found a hexagonal cell.
 ALAT       =     8.8135128021
 C/A-ratio  =     3.0356784858
  
  Lattice vectors:
  
 A1 = (  -4.4067569092,  -7.6327256898,   0.0000000000)
 A2 = (   8.8135128021,   0.0000000000,   0.0000000000)
 A3 = (   0.0000000000,   0.0000000000,  26.7549911976)


Analysis of symmetry for initial positions (statically):
=====================================================================
 Subroutine PRICEL returns:
 Original cell was already a primitive cell.
 

 Routine SETGRP: Setting up the symmetry group for a 
 hexagonal supercell.


 Subroutine GETGRP returns: Found  6 space group operations
 (whereof  6 operations were pure point group operations)
 out of a pool of 24 trial point group operations.


The static configuration has the point symmetry C_3v.


Analysis of symmetry for dynamics (positions and initial velocities):
=====================================================================
 Subroutine PRICEL returns:
 Original cell was already a primitive cell.
 

 Routine SETGRP: Setting up the symmetry group for a 
 hexagonal supercell.


 Subroutine GETGRP returns: Found  6 space group operations
 (whereof  6 operations were pure point group operations)
 out of a pool of 24 trial point group operations.


The dynamic configuration has the point symmetry C_3v.


Analysis of constrained symmetry for selective dynamics:
=====================================================================
 Subroutine PRICEL returns:
 Original cell was already a primitive cell.
 

 Routine SETGRP: Setting up the symmetry group for a 
 hexagonal supercell.


 Subroutine GETGRP returns: Found  6 space group operations
 (whereof  6 operations were pure point group operations)
 out of a pool of 24 trial point group operations.


The constrained configuration has the point symmetry C_3v.


 Subroutine INISYM returns: Found  6 space group operations
 (whereof  6 operations are pure point group operations),
 and found     1 'primitive' translations


----------------------------------------------------------------------------------------

                                     Primitive cell                                     

  volume of cell :    1799.8384

  direct lattice vectors                    reciprocal lattice vectors
     8.813512802  0.000000000  0.000000000     0.113462137 -0.065507406  0.000000000
     4.406756909  7.632725690  0.000000000     0.000000000  0.131014796  0.000000000
     0.000000000  0.000000000 26.754991198     0.000000000  0.000000000  0.037376204

  length of vectors
     8.813512802  8.813512802 26.754991198     0.131014796  0.131014796  0.037376204

  position of ions in fractional coordinates (direct lattice)
     0.000000000  0.000000000  0.197360556
     0.333333343  0.000000000  0.197360556
     0.666666687  0.000000000  0.197360556
     0.000000000  0.333333343  0.197360556
     0.333333313  0.333333343  0.197360556
     0.666666687  0.333333343  0.197360556
     0.000000000  0.666666687  0.197360556
     0.333333343  0.666666687  0.197360556
     0.666666627  0.666666687  0.197360556
     0.111111119  0.111111112  0.287016131
     0.444444418  0.111111112  0.287016131
     0.777777791  0.111111112  0.287016131
     0.111111127  0.444444448  0.287016131
     0.444444478  0.444444448  0.287016131
     0.777777731  0.444444448  0.287016131
     0.111111090  0.777777791  0.287016131
     0.444444448  0.777777791  0.287016131
     0.777777851  0.777777791  0.287016131
     0.888518739  0.222962538  0.377271686
     0.222314337  0.222314322  0.375436033
     0.555371387  0.222314322  0.375436033
     0.886544633  0.556727714  0.376321919
     0.222314292  0.555371387  0.375436033
     0.556727714  0.556727714  0.376321919
     0.888518739  0.888518739  0.377271686
     0.222962568  0.888518739  0.377271686
     0.556727654  0.886544633  0.376321919
     0.000000000  0.000000000  0.467177853
     0.333456407  0.009911723  0.468685533
     0.656631900  0.009911723  0.468685533
     0.009911723  0.333456407  0.468685533
     0.656631900  0.333456407  0.468685533
     0.009911723  0.656631900  0.468685533
     0.333456407  0.656631900  0.468685533
     0.666666627  0.666666687  0.467147728
     0.333333313  0.333333343  0.457279417
     0.333333313  0.333333343  0.525887501
     0.333333313  0.333333343  0.572820549
     0.333333313  0.333333343  0.608588484

  ion indices of the primitive-cell ions
   primitive index   ion index
                 1           1
                 2           2
                 3           3
                 4           4
                 5           5
                 6           6
                 7           7
                 8           8
                 9           9
                10          10
                11          11
                12          12
                13          13
                14          14
                15          15
                16          16
                17          17
                18          18
                19          19
                20          20
                21          21
                22          22
                23          23
                24          24
                25          25
                26          26
                27          27
                28          28
                29          29
                30          30
                31          31
                32          32
                33          33
                34          34
                35          35
                36          36
                37          37
                38          38
                39          39

----------------------------------------------------------------------------------------

 
 
 KPOINTS: Automatic mesh                          

Automatic generation of k-mesh.
 Grid dimensions read from file:
 generate k-points for:    8    8    1

 Generating k-lattice:

  Cartesian coordinates                     Fractional coordinates (reciprocal lattice)
     0.014182767 -0.008188426  0.000000000     0.125000000  0.000000000  0.000000000
     0.000000000  0.016376850  0.000000000     0.000000000  0.125000000  0.000000000
     0.000000000  0.000000000  0.037376204     0.000000000  0.000000000  1.000000000

  Length of vectors
     0.016376850  0.016376850  0.037376204

  Shift w.r.t. Gamma in fractional coordinates (k-lattice)
     0.000000000  0.000000000  0.000000000

 TETIRR: Found     36 inequivalent tetrahedra from      384
 
 Subroutine IBZKPT returns following result:
 ===========================================
 
 Found     10 irreducible k-points:
 
 Following reciprocal coordinates:
            Coordinates               Weight
  0.000000  0.000000  0.000000      1.000000
  0.125000  0.000000  0.000000      6.000000
  0.250000  0.000000  0.000000      6.000000
  0.375000  0.000000  0.000000      6.000000
  0.500000  0.000000  0.000000      3.000000
  0.250000  0.125000  0.000000      6.000000
  0.375000  0.125000  0.000000     12.000000
  0.500000  0.125000  0.000000     12.000000
  0.500000  0.250000  0.000000      6.000000
 -0.375000  0.250000  0.000000      6.000000
 
 Following cartesian coordinates:
            Coordinates               Weight
  0.000000  0.000000  0.000000      1.000000
  0.014183 -0.008188  0.000000      6.000000
  0.028366 -0.016377  0.000000      6.000000
  0.042548 -0.024565  0.000000      6.000000
  0.056731 -0.032754  0.000000      3.000000
  0.028366 -0.000000  0.000000      6.000000
  0.042548 -0.008188  0.000000     12.000000
  0.056731 -0.016377  0.000000     12.000000
  0.056731 -0.000000  0.000000      6.000000
 -0.042548  0.057319  0.000000      6.000000
 


--------------------------------------------------------------------------------------------------------




 Dimension of arrays:
   k-points           NKPTS =     10   k-points in BZ     NKDIM =     10   number of bands    NBANDS=    252
   number of dos      NEDOS =    301   number of ions     NIONS =     39
   non local maximal  LDIM  =      6   non local SUM 2l+1 LMDIM =     18
   total plane-waves  NPLWV = 345600
   max r-space proj   IRMAX =   3128   max aug-charges    IRDMAX=  12526
   dimension x,y,z NGX =    48 NGY =   48 NGZ =  150
   dimension x,y,z NGXF=    96 NGYF=   96 NGZF=  300
   support grid    NGXF=    96 NGYF=   96 NGZF=  300
   ions per type =              35   1   1   1   1
   NGX,Y,Z   is equivalent  to a cutoff of   9.05,  9.05,  9.32 a.u.
   NGXF,Y,Z  is equivalent  to a cutoff of  18.11, 18.11, 18.64 a.u.

 SYSTEM =  unknown system                          
 POSCAR =  Au-Mo-COH                               

 Startparameter for this run:
   NWRITE =      2    write-flag & timer
   PREC   = normal    normal or accurate (medium, high low for compatibility)
   ISTART =      0    job   : 0-new  1-cont  2-samecut
   ICHARG =     11    charge: 1-file 2-atom 10-const
   ISPIN  =      1    spin polarized calculation?
   LNONCOLLINEAR =      F non collinear calculations
   LSORBIT =      F    spin-orbit coupling
   INIWAV =      1    electr: 0-lowe 1-rand  2-diag
   LASPH  =      F    aspherical Exc in radial PAW
   METAGGA=      F    non-selfconsistent MetaGGA calc.

 Electronic Relaxation 1
   ENCUT  =  500.0 eV  36.75 Ry    6.06 a.u.  16.07 16.07 48.78*2*pi/ulx,y,z
   ENINI  =  500.0     initial cutoff
   ENAUG  =  644.9 eV  augmentation charge cutoff
   NELM   =    150;   NELMIN=  2; NELMDL= -5     # of ELM steps 
   EDIFF  = 0.1E-04   stopping-criterion for ELM
   LREAL  =      T    real-space projection
   NLSPLINE    = F    spline interpolate recip. space projectors
   LCOMPAT=      F    compatible to vasp.4.4
   GGA_COMPAT  = T    GGA compatible to vasp.4.4-vasp.4.6
   LMAXPAW     = -100 max onsite density
   LMAXMIX     =    2 max onsite mixed and CHGCAR
   VOSKOWN=      0    Vosko Wilk Nusair interpolation
   ROPT   =   -0.00050  -0.00050  -0.00050  -0.00050
   ROPT   =   -0.00050
 Ionic relaxation
   EDIFFG = -.1E-01   stopping-criterion for IOM
   NSW    =      0    number of steps for IOM
   NBLOCK =      1;   KBLOCK =      1    inner block; outer block 
   IBRION =     -1    ionic relax: 0-MD 1-quasi-New 2-CG
   NFREE  =      1    steps in history (QN), initial steepest desc. (CG)
   ISIF   =      2    stress and relaxation
   IWAVPR =     10    prediction:  0-non 1-charg 2-wave 3-comb
   ISYM   =      2    0-nonsym 1-usesym 2-fastsym
   LCORR  =      T    Harris-Foulkes like correction to forces

   POTIM  = 0.5000    time-step for ionic-motion
   TEIN   =    0.0    initial temperature
   TEBEG  =    0.0;   TEEND  =   0.0 temperature during run
   SMASS  =  -3.00    Nose mass-parameter (am)
   estimated Nose-frequenzy (Omega)   =  0.10E-29 period in steps = 0.13E+47 mass=  -0.178E-26a.u.
   SCALEE = 1.0000    scale energy and forces
   NPACO  =    256;   APACO  = 16.0  distance and # of slots for P.C.
   PSTRESS=    0.0 pullay stress

  Mass of Ions in am
   POMASS = 196.97 95.94 12.01 16.00  1.00
  Ionic Valenz
   ZVAL   =  11.00  6.00  4.00  6.00  1.00
  Atomic Wigner-Seitz radii
   RWIGS  =  -1.00 -1.00 -1.00 -1.00 -1.00
  virtual crystal weights 
   VCA    =   1.00  1.00  1.00  1.00  1.00
   NELECT =     402.0000    total number of electrons
   NUPDOWN=      -1.0000    fix difference up-down

 DOS related values:
   EMIN   =  10.00;   EMAX   =-10.00  energy-range for DOS
   EFERMI =   0.00
   ISMEAR =    -5;   SIGMA  =   0.10  broadening in eV -4-tet -1-fermi 0-gaus

 Electronic relaxation 2 (details)
   IALGO  =     68    algorithm
   LDIAG  =      T    sub-space diagonalisation (order eigenvalues)
   LSUBROT=      F    optimize rotation matrix (better conditioning)
   TURBO    =      0    0=normal 1=particle mesh
   IRESTART =      0    0=no restart 2=restart with 2 vectors
   NREBOOT  =      0    no. of reboots
   NMIN     =      0    reboot dimension
   EREF     =   0.00    reference energy to select bands
   IMIX   =      4    mixing-type and parameters
     AMIX     =   0.40;   BMIX     =  1.00
     AMIX_MAG =   1.60;   BMIX_MAG =  1.00
     AMIN     =   0.10
     WC   =   100.;   INIMIX=   1;  MIXPRE=   1;  MAXMIX= -45

 Intra band minimization:
   WEIMIN = 0.0000     energy-eigenvalue tresh-hold
   EBREAK =  0.99E-08  absolut break condition
   DEPER  =   0.30     relativ break condition  

   TIME   =   0.40     timestep for ELM

  volume/ion in A,a.u.               =      46.15       311.43
  Fermi-wavevector in a.u.,A,eV,Ry     =   0.993281  1.877030 13.423619  0.986608
  Thomas-Fermi vector in A             =   2.125152
 
 Write flags
   LWAVE        =      F    write WAVECAR
   LDOWNSAMPLE  =      F    k-point downsampling of WAVECAR
   LCHARG       =      F    write CHGCAR
   LVTOT        =      F    write LOCPOT, total local potential
   LVHAR        =      F    write LOCPOT, Hartree potential only
   LELF         =      F    write electronic localiz. function (ELF)
   LORBIT       =     10    0 simple, 1 ext, 2 COOP (PROOUT), +10 PAW based schemes


 Dipole corrections
   LMONO  =      F    monopole corrections only (constant potential shift)
   LDIPOL =      F    correct potential (dipole corrections)
   IDIPOL =      0    1-x, 2-y, 3-z, 4-all directions 
   EPSILON=  1.0000000 bulk dielectric constant

 Exchange correlation treatment:
   GGA     =    --    GGA type
   LEXCH   =     8    internal setting for exchange type
   VOSKOWN=      0    Vosko Wilk Nusair interpolation
   LHFCALC =     F    Hartree Fock is set to
   LHFONE  =     F    Hartree Fock one center treatment
   AEXX    =    0.0000 exact exchange contribution

 Linear response parameters
   LEPSILON=     F    determine dielectric tensor
   LRPA    =     F    only Hartree local field effects (RPA)
   LNABLA  =     F    use nabla operator in PAW spheres
   LVEL    =     F    velocity operator in full k-point grid
   LINTERFAST=   F  fast interpolation
   KINTER  =     0    interpolate to denser k-point grid
   CSHIFT  =0.1000    complex shift for real part using Kramers Kronig
   OMEGAMAX=  -1.0    maximum frequency
   DEG_THRESHOLD= 0.2000000E-02 threshold for treating states as degnerate
   RTIME   =   -0.100 relaxation time in fs
  (WPLASMAI=    0.000 imaginary part of plasma frequency in eV, 0.658/RTIME)
   DFIELD  = 0.0000000 0.0000000 0.0000000 field for delta impulse in time
 
 Orbital magnetization related:
   ORBITALMAG=     F  switch on orbital magnetization
   LCHIMAG   =     F  perturbation theory with respect to B field
   DQ        =  0.001000  dq finite difference perturbation B field
   LLRAUG    =     F  two centre corrections for induced B field



--------------------------------------------------------------------------------------------------------


 Static calculation
 charge density and potential remain constant during run
 non-spin polarized calculation
 RMM-DIIS sequential band-by-band and
  variant of blocked Davidson during initial phase
 perform sub-space diagonalisation
    before iterative eigenvector-optimisation
 no mixing
 using additional bands           51
 real space projection scheme for non local part
 use partial core corrections
 calculate Harris-corrections to forces 
   (improved forces if not selfconsistent)
 use gradient corrections 
 WARNING: stress and forces are not correct
  (second derivative of E(xc) not defined)
 use of overlap-Matrix (Vanderbilt PP)
 Fermi weights with tetrahedron method with Bloechl corrections


--------------------------------------------------------------------------------------------------------


  energy-cutoff  :      500.00
  volume of cell :     1799.84
      direct lattice vectors                 reciprocal lattice vectors
     8.813512802  0.000000000  0.000000000     0.113462137 -0.065507406  0.000000000
     4.406756909  7.632725690  0.000000000     0.000000000  0.131014796  0.000000000
     0.000000000  0.000000000 26.754991198     0.000000000  0.000000000  0.037376204

  length of vectors
     8.813512802  8.813512802 26.754991198     0.131014796  0.131014796  0.037376204


 
 k-points in units of 2pi/SCALE and weight: Automatic mesh                          
   0.00000000  0.00000000  0.00000000       0.016
   0.01418277 -0.00818843  0.00000000       0.094
   0.02836553 -0.01637685  0.00000000       0.094
   0.04254830 -0.02456528  0.00000000       0.094
   0.05673107 -0.03275370  0.00000000       0.047
   0.02836553 -0.00000000  0.00000000       0.094
   0.04254830 -0.00818843  0.00000000       0.188
   0.05673107 -0.01637685  0.00000000       0.188
   0.05673107 -0.00000000  0.00000000       0.094
  -0.04254830  0.05731898  0.00000000       0.094
 
 k-points in reciprocal lattice and weights: Automatic mesh                          
   0.00000000  0.00000000  0.00000000       0.016
   0.12500000  0.00000000  0.00000000       0.094
   0.25000000  0.00000000  0.00000000       0.094
   0.37500000  0.00000000  0.00000000       0.094
   0.50000000  0.00000000  0.00000000       0.047
   0.25000000  0.12500000  0.00000000       0.094
   0.37500000  0.12500000  0.00000000       0.188
   0.50000000  0.12500000  0.00000000       0.188
   0.50000000  0.25000000  0.00000000       0.094
  -0.37500000  0.25000000  0.00000000       0.094
 
 position of ions in fractional coordinates (direct lattice) 
   0.00000000  0.00000000  0.19736056
   0.33333334  0.00000000  0.19736056
   0.66666669  0.00000000  0.19736056
   0.00000000  0.33333334  0.19736056
   0.33333331  0.33333334  0.19736056
   0.66666669  0.33333334  0.19736056
   0.00000000  0.66666669  0.19736056
   0.33333334  0.66666669  0.19736056
   0.66666663  0.66666669  0.19736056
   0.11111112  0.11111111  0.28701613
   0.44444442  0.11111111  0.28701613
   0.77777779  0.11111111  0.28701613
   0.11111113  0.44444445  0.28701613
   0.44444448  0.44444445  0.28701613
   0.77777773  0.44444445  0.28701613
   0.11111109  0.77777779  0.28701613
   0.44444445  0.77777779  0.28701613
   0.77777785  0.77777779  0.28701613
   0.88851874  0.22296254  0.37727169
   0.22231434  0.22231432  0.37543603
   0.55537139  0.22231432  0.37543603
   0.88654463  0.55672771  0.37632192
   0.22231429  0.55537139  0.37543603
   0.55672771  0.55672771  0.37632192
   0.88851874  0.88851874  0.37727169
   0.22296257  0.88851874  0.37727169
   0.55672765  0.88654463  0.37632192
   0.00000000  0.00000000  0.46717785
   0.33345641  0.00991172  0.46868553
   0.65663190  0.00991172  0.46868553
   0.00991172  0.33345641  0.46868553
   0.65663190  0.33345641  0.46868553
   0.00991172  0.65663190  0.46868553
   0.33345641  0.65663190  0.46868553
   0.66666663  0.66666669  0.46714773
   0.33333331  0.33333334  0.45727942
   0.33333331  0.33333334  0.52588750
   0.33333331  0.33333334  0.57282055
   0.33333331  0.33333334  0.60858848
 
 position of ions in cartesian coordinates  (Angst):
   0.00000000  0.00000000  5.28037993
   2.93783769  0.00000000  5.28037993
   5.87567538  0.00000000  5.28037993
   1.46891901  2.54424197  5.28037993
   4.40675643  2.54424197  5.28037993
   7.34459439  2.54424197  5.28037993
   2.93783803  5.08848395  5.28037993
   5.87567571  5.08848395  5.28037993
   8.81351288  5.08848395  5.28037993
   1.46891893  0.84808064  7.67911405
   4.40675623  0.84808064  7.67911405
   7.34459418  0.84808064  7.67911405
   2.93783798  3.39232256  7.67911405
   5.87567574  3.39232256  7.67911405
   8.81351263  3.39232256  7.67911405
   4.40675667  5.93656453  7.67911405
   7.34459449  5.93656453  7.67911405
  10.28243270  5.93656453  7.67911405
   8.81351299  1.70181189 10.09390065
   2.93905542  1.69686423 10.04478777
   5.87445800  1.69686423 10.04478777
  10.26693617  4.24934992 10.06848962
   4.40675655  4.23899745 10.04478777
   7.36009053  4.24934992 10.06848962
  11.74645737  6.78181981 10.09390065
   5.88056954  6.78181981 10.09390065
   8.81351299  6.76675199 10.06848962
   0.00000000  0.00000000 12.49933935
   2.98260087  0.07565346 12.53967732
   5.83091221  0.07565346 12.53967732
   1.55681842  2.54518129 12.53967732
   7.25669498  2.54518129 12.53967732
   2.98097426  5.01189117 12.53967732
   5.83253948  5.01189117 12.53967732
   8.81351288  5.08848395 12.49853336
   4.40675643  2.54424197 12.23450679
   4.40675643  2.54424197 14.07011545
   4.40675643  2.54424197 15.32580876
   4.40675643  2.54424197 16.28277953
 


--------------------------------------------------------------------------------------------------------


 k-point   1 :   0.0000 0.0000 0.0000  plane waves:   45655
 k-point   2 :   0.1250 0.0000 0.0000  plane waves:   45660
 k-point   3 :   0.2500 0.0000 0.0000  plane waves:   45682
 k-point   4 :   0.3750 0.0000 0.0000  plane waves:   45716
 k-point   5 :   0.5000 0.0000 0.0000  plane waves:   45700
 k-point   6 :   0.2500 0.1250 0.0000  plane waves:   45658
 k-point   7 :   0.3750 0.1250 0.0000  plane waves:   45702
 k-point   8 :   0.5000 0.1250 0.0000  plane waves:   45722
 k-point   9 :   0.5000 0.2500 0.0000  plane waves:   45712
 k-point  10 :  -0.3750 0.2500 0.0000  plane waves:   45690

 maximum and minimum number of plane-waves per node :     45722    45655

 maximum number of plane-waves:     45722
 maximum index in each direction: 
   IXMAX=   16   IYMAX=   16   IZMAX=   48
   IXMIN=  -16   IYMIN=  -16   IZMIN=  -48


 serial   3D FFT for wavefunctions
 parallel 3D FFT for charge:
    minimum data exchange during FFTs selected (reduces bandwidth)


 total amount of memory used by VASP MPI-rank0   140006. kBytes
=======================================================================

   base      :      30000. kBytes
   nonlr-proj:      14314. kBytes
   fftplans  :       5150. kBytes
   grid      :      23126. kBytes
   one-center:        606. kBytes
   wavefun   :      66810. kBytes
 
     INWAV:  cpu time    0.0000: real time    0.0000
 initial charge density was supplied:
 number of electron     402.0000097 magnetization 
 keeping initial charge density in first step


--------------------------------------------------------------------------------------------------------


 Maximum index for non-local projection operator         3006
 Maximum index for augmentation-charges          844 (set IRDMAX)


--------------------------------------------------------------------------------------------------------


 First call to EWALD:  gamma=   0.146
 Maximum number of real-space cells 4x 4x 2
 Maximum number of reciprocal cells 2x 2x 5

    FEWALD:  cpu time    0.0014: real time    0.0014


--------------------------------------- Iteration      1(   1)  ---------------------------------------


    POTLOK:  cpu time    0.0521: real time    0.0524
    SETDIJ:  cpu time    0.0051: real time    0.0053
     EDDAV:  cpu time    8.2744: real time    8.2757
 BZINTS: Fermi energy:   10.579742;  402.000000 electrons
         Band energy: 0.133093E+04;  BLOECHL correction:   -0.016505
       DOS:  cpu time    0.0104: real time    0.0105
    --------------------------------------------
      LOOP:  cpu time    8.3421: real time    8.3438

 eigenvalue-minimisations  :  5040
 total energy-change (2. order) : 0.2662885E+04  (-0.1746687E+05)
 number of electron     402.0000097 magnetization 
 augmentation part      402.0000097 magnetization 

 Free energy of the ion-electron system (eV)
  ---------------------------------------------------
  alpha Z        PSCENC =       863.64149189
  Ewald energy   TEWEN  =    162093.33834276
  -Hartree energ DENC   =   -196143.27592629
  -exchange      EXHF   =         0.00000000
  -V(xc)+E(xc)   XCENC  =       501.07967444
  PAW double counting   =     36439.53584631   -35644.76166107
  entropy T*S    EENTRO =         0.00000000
  eigenvalues    EBANDS =      1330.93434908
  atomic energy  EATOM  =     33222.39337980
  Solvation  Ediel_sol  =         0.00000000
  ---------------------------------------------------
  free energy    TOTEN  =      2662.88549692 eV

  energy without entropy =     2662.88549692  energy(sigma->0) =     2662.88549692


--------------------------------------------------------------------------------------------------------




--------------------------------------- Iteration      1(   2)  ---------------------------------------


     EDDAV:  cpu time    9.1515: real time    9.1518
 BZINTS: Fermi energy:    1.175345;  402.000000 electrons
         Band energy:-0.130032E+04;  BLOECHL correction:   -0.046420
       DOS:  cpu time    0.0100: real time    0.0100
    --------------------------------------------
      LOOP:  cpu time    9.1615: real time    9.1617

 eigenvalue-minimisations  :  5712
 total energy-change (2. order) :-0.2631251E+04  (-0.2426090E+04)
 number of electron     402.0000097 magnetization 
 augmentation part      402.0000097 magnetization 

 Free energy of the ion-electron system (eV)
  ---------------------------------------------------
  alpha Z        PSCENC =       863.64149189
  Ewald energy   TEWEN  =    162093.33834276
  -Hartree energ DENC   =   -196143.27592629
  -exchange      EXHF   =         0.00000000
  -V(xc)+E(xc)   XCENC  =       501.07967444
  PAW double counting   =     36439.53584631   -35644.76166107
  entropy T*S    EENTRO =         0.00000000
  eigenvalues    EBANDS =     -1300.31654218
  atomic energy  EATOM  =     33222.39337980
  Solvation  Ediel_sol  =         0.00000000
  ---------------------------------------------------
  free energy    TOTEN  =        31.63460566 eV

  energy without entropy =       31.63460566  energy(sigma->0) =       31.63460566


--------------------------------------------------------------------------------------------------------




--------------------------------------- Iteration      1(   3)  ---------------------------------------


     EDDAV:  cpu time    9.3738: real time    9.3739
 BZINTS: Fermi energy:    0.315382;  402.000000 electrons
         Band energy:-0.146216E+04;  BLOECHL correction:   -0.047640
       DOS:  cpu time    0.0103: real time    0.0103
    --------------------------------------------
      LOOP:  cpu time    9.3841: real time    9.3842

 eigenvalue-minimisations  :  5880
 total energy-change (2. order) :-0.1618402E+03  (-0.1566822E+03)
 number of electron     402.0000097 magnetization 
 augmentation part      402.0000097 magnetization 

 Free energy of the ion-electron system (eV)
  ---------------------------------------------------
  alpha Z        PSCENC =       863.64149189
  Ewald energy   TEWEN  =    162093.33834276
  -Hartree energ DENC   =   -196143.27592629
  -exchange      EXHF   =         0.00000000
  -V(xc)+E(xc)   XCENC  =       501.07967444
  PAW double counting   =     36439.53584631   -35644.76166107
  entropy T*S    EENTRO =         0.00000000
  eigenvalues    EBANDS =     -1462.15679031
  atomic energy  EATOM  =     33222.39337980
  Solvation  Ediel_sol  =         0.00000000
  ---------------------------------------------------
  free energy    TOTEN  =      -130.20564247 eV

  energy without entropy =     -130.20564247  energy(sigma->0) =     -130.20564247


--------------------------------------------------------------------------------------------------------




--------------------------------------- Iteration      1(   4)  ---------------------------------------


     EDDAV:  cpu time    9.2918: real time    9.2920
 BZINTS: Fermi energy:    0.292299;  402.000000 electrons
         Band energy:-0.146592E+04;  BLOECHL correction:   -0.051197
       DOS:  cpu time    0.0095: real time    0.0095
    --------------------------------------------
      LOOP:  cpu time    9.3013: real time    9.3016

 eigenvalue-minimisations  :  5824
 total energy-change (2. order) :-0.3765207E+01  (-0.3735852E+01)
 number of electron     402.0000097 magnetization 
 augmentation part      402.0000097 magnetization 

 Free energy of the ion-electron system (eV)
  ---------------------------------------------------
  alpha Z        PSCENC =       863.64149189
  Ewald energy   TEWEN  =    162093.33834276
  -Hartree energ DENC   =   -196143.27592629
  -exchange      EXHF   =         0.00000000
  -V(xc)+E(xc)   XCENC  =       501.07967444
  PAW double counting   =     36439.53584631   -35644.76166107
  entropy T*S    EENTRO =         0.00000000
  eigenvalues    EBANDS =     -1465.92199777
  atomic energy  EATOM  =     33222.39337980
  Solvation  Ediel_sol  =         0.00000000
  ---------------------------------------------------
  free energy    TOTEN  =      -133.97084993 eV

  energy without entropy =     -133.97084993  energy(sigma->0) =     -133.97084993


--------------------------------------------------------------------------------------------------------




--------------------------------------- Iteration      1(   5)  ---------------------------------------


     EDDAV:  cpu time    9.8171: real time    9.8173
 BZINTS: Fermi energy:    0.292162;  402.000000 electrons
         Band energy:-0.146603E+04;  BLOECHL correction:   -0.051201
       DOS:  cpu time    0.0104: real time    0.0104
    --------------------------------------------
      LOOP:  cpu time    9.8275: real time    9.8276

 eigenvalue-minimisations  :  6216
 total energy-change (2. order) :-0.1100662E+00  (-0.1099888E+00)
 number of electron     402.0000097 magnetization 
 augmentation part      402.0000097 magnetization 

 Free energy of the ion-electron system (eV)
  ---------------------------------------------------
  alpha Z        PSCENC =       863.64149189
  Ewald energy   TEWEN  =    162093.33834276
  -Hartree energ DENC   =   -196143.27592629
  -exchange      EXHF   =         0.00000000
  -V(xc)+E(xc)   XCENC  =       501.07967444
  PAW double counting   =     36439.53584631   -35644.76166107
  entropy T*S    EENTRO =         0.00000000
  eigenvalues    EBANDS =     -1466.03206399
  atomic energy  EATOM  =     33222.39337980
  Solvation  Ediel_sol  =         0.00000000
  ---------------------------------------------------
  free energy    TOTEN  =      -134.08091615 eV

  energy without entropy =     -134.08091615  energy(sigma->0) =     -134.08091615


--------------------------------------------------------------------------------------------------------




--------------------------------------- Iteration      1(   6)  ---------------------------------------


    EDDIAG:  cpu time    1.6495: real time    1.6531
  RMM-DIIS:  cpu time    4.9021: real time    4.9022
    ORTHCH:  cpu time    0.3041: real time    0.3041
 BZINTS: Fermi energy:    0.292162;  402.000000 electrons
         Band energy:-0.146603E+04;  BLOECHL correction:   -0.051202
       DOS:  cpu time    0.0097: real time    0.0097
    --------------------------------------------
      LOOP:  cpu time    6.8655: real time    6.8690

 eigenvalue-minimisations  :  5193
 total energy-change (2. order) :-0.2736758E-02  (-0.2736261E-02)
 number of electron     402.0000097 magnetization 
 augmentation part      402.0000097 magnetization 

 Free energy of the ion-electron system (eV)
  ---------------------------------------------------
  alpha Z        PSCENC =       863.64149189
  Ewald energy   TEWEN  =    162093.33834276
  -Hartree energ DENC   =   -196143.27592629
  -exchange      EXHF   =         0.00000000
  -V(xc)+E(xc)   XCENC  =       501.07967444
  PAW double counting   =     36439.53584631   -35644.76166107
  entropy T*S    EENTRO =         0.00000000
  eigenvalues    EBANDS =     -1466.03480075
  atomic energy  EATOM  =     33222.39337980
  Solvation  Ediel_sol  =         0.00000000
  ---------------------------------------------------
  free energy    TOTEN  =      -134.08365291 eV

  energy without entropy =     -134.08365291  energy(sigma->0) =     -134.08365291


--------------------------------------------------------------------------------------------------------




--------------------------------------- Iteration      1(   7)  ---------------------------------------


    EDDIAG:  cpu time    1.6467: real time    1.6468
  RMM-DIIS:  cpu time    6.6301: real time    6.6301
    ORTHCH:  cpu time    0.3041: real time    0.3041
 BZINTS: Fermi energy:    0.292162;  402.000000 electrons
         Band energy:-0.146604E+04;  BLOECHL correction:   -0.051202
       DOS:  cpu time    0.0099: real time    0.0099
    --------------------------------------------
      LOOP:  cpu time    8.5908: real time    8.5909

 eigenvalue-minimisations  :  7181
 total energy-change (2. order) :-0.9669741E-03  (-0.9644913E-03)
 number of electron     402.0000097 magnetization 
 augmentation part      402.0000097 magnetization 

 Free energy of the ion-electron system (eV)
  ---------------------------------------------------
  alpha Z        PSCENC =       863.64149189
  Ewald energy   TEWEN  =    162093.33834276
  -Hartree energ DENC   =   -196143.27592629
  -exchange      EXHF   =         0.00000000
  -V(xc)+E(xc)   XCENC  =       501.07967444
  PAW double counting   =     36439.53584631   -35644.76166107
  entropy T*S    EENTRO =         0.00000000
  eigenvalues    EBANDS =     -1466.03576773
  atomic energy  EATOM  =     33222.39337980
  Solvation  Ediel_sol  =         0.00000000
  ---------------------------------------------------
  free energy    TOTEN  =      -134.08461989 eV

  energy without entropy =     -134.08461989  energy(sigma->0) =     -134.08461989


--------------------------------------------------------------------------------------------------------




--------------------------------------- Iteration      1(   8)  ---------------------------------------


    EDDIAG:  cpu time    1.6470: real time    1.6472
  RMM-DIIS:  cpu time    5.2951: real time    5.2952
    ORTHCH:  cpu time    0.3041: real time    0.3041
 BZINTS: Fermi energy:    0.292161;  402.000000 electrons
         Band energy:-0.146604E+04;  BLOECHL correction:   -0.051202
       DOS:  cpu time    0.0101: real time    0.0101
    --------------------------------------------
      LOOP:  cpu time    7.2563: real time    7.2565

 eigenvalue-minimisations  :  5635
 total energy-change (2. order) :-0.4065642E-04  (-0.4059812E-04)
 number of electron     402.0000097 magnetization 
 augmentation part      402.0000097 magnetization 

 Free energy of the ion-electron system (eV)
  ---------------------------------------------------
  alpha Z        PSCENC =       863.64149189
  Ewald energy   TEWEN  =    162093.33834276
  -Hartree energ DENC   =   -196143.27592629
  -exchange      EXHF   =         0.00000000
  -V(xc)+E(xc)   XCENC  =       501.07967444
  PAW double counting   =     36439.53584631   -35644.76166107
  entropy T*S    EENTRO =         0.00000000
  eigenvalues    EBANDS =     -1466.03580838
  atomic energy  EATOM  =     33222.39337980
  Solvation  Ediel_sol  =         0.00000000
  ---------------------------------------------------
  free energy    TOTEN  =      -134.08466054 eV

  energy without entropy =     -134.08466054  energy(sigma->0) =     -134.08466054


--------------------------------------------------------------------------------------------------------




--------------------------------------- Iteration      1(   9)  ---------------------------------------


    EDDIAG:  cpu time    1.6478: real time    1.6479
  RMM-DIIS:  cpu time    4.6222: real time    4.6222
    ORTHCH:  cpu time    0.3042: real time    0.3042
 BZINTS: Fermi energy:    0.292161;  402.000000 electrons
         Band energy:-0.146604E+04;  BLOECHL correction:   -0.051202
       DOS:  cpu time    0.0101: real time    0.0101
    --------------------------------------------
      LOOP:  cpu time    6.5842: real time    6.5844

 eigenvalue-minimisations  :  4326
 total energy-change (2. order) :-0.7818075E-05  (-0.7797980E-05)
 number of electron     402.0000097 magnetization 
 augmentation part      402.0000097 magnetization 

 Free energy of the ion-electron system (eV)
  ---------------------------------------------------
  alpha Z        PSCENC =       863.64149189
  Ewald energy   TEWEN  =    162093.33834276
  -Hartree energ DENC   =   -196143.27592629
  -exchange      EXHF   =         0.00000000
  -V(xc)+E(xc)   XCENC  =       501.07967444
  PAW double counting   =     36439.53584631   -35644.76166107
  entropy T*S    EENTRO =         0.00000000
  eigenvalues    EBANDS =     -1466.03581620
  atomic energy  EATOM  =     33222.39337980
  Solvation  Ediel_sol  =         0.00000000
  ---------------------------------------------------
  free energy    TOTEN  =      -134.08466836 eV

  energy without entropy =     -134.08466836  energy(sigma->0) =     -134.08466836


--------------------------------------------------------------------------------------------------------




 average (electrostatic) potential at core
  the test charge radii are     1.2098  1.2296  0.6991  0.7215  0.5201
  (the norm of the test charge is              1.0000)
       1 -72.7799       2 -72.7455       3 -72.7454       4 -72.7455       5 -72.7530
       6 -72.7452       7 -72.7454       8 -72.7452       9 -72.7542      10 -73.1000
      11 -73.0410      12 -73.0997      13 -73.0410      14 -73.0405      15 -73.0752
      16 -73.0997      17 -73.0752      18 -73.0754      19 -73.0303      20 -73.2831
      21 -73.2825      22 -73.0527      23 -73.2825      24 -73.0521      25 -73.0303
      26 -73.0303      27 -73.0527      28 -72.7329      29 -72.8334      30 -72.8333
      31 -72.8334      32 -72.8330      33 -72.8333      34 -72.8330      35 -72.7202
      36 -43.3568      37 -56.8100      38 -78.8731      39 -43.2935
 
 
 
 E-fermi :   0.2922     XC(G=0):  -5.2290     alpha+bet : -4.8538

 Fermi energy:         0.2921614973

 k-point     1 :       0.0000    0.0000    0.0000
  band No.  band energies     occupation 
      1     -23.9575      2.00000
      2     -14.6295      2.00000
      3      -8.5475      2.00000
      4      -7.5230      2.00000
      5      -7.0403      2.00000
      6      -6.7315      2.00000
      7      -6.7314      2.00000
      8      -6.4217      2.00000
      9      -6.3990      2.00000
     10      -6.3990      2.00000
     11      -6.3699      2.00000
     12      -6.3467      2.00000
     13      -6.3268      2.00000
     14      -6.3268      2.00000
     15      -6.2707      2.00000
     16      -5.9135      2.00000
     17      -5.9135      2.00000
     18      -5.9134      2.00000
     19      -5.8496      2.00000
     20      -5.8495      2.00000
     21      -5.8114      2.00000
     22      -5.5315      2.00000
     23      -5.5315      2.00000
     24      -5.5182      2.00000
     25      -5.4978      2.00000
     26      -5.4805      2.00000
     27      -5.4805      2.00000
     28      -5.3373      2.00000
     29      -5.3373      2.00000
     30      -5.3353      2.00000
     31      -5.3303      2.00000
     32      -5.3303      2.00000
     33      -5.2566      2.00000
     34      -5.1895      2.00000
     35      -5.1724      2.00000
     36      -5.1723      2.00000
     37      -5.1654      2.00000
     38      -5.1653      2.00000
     39      -5.1551      2.00000
     40      -5.1551      2.00000
     41      -5.1170      2.00000
     42      -5.1162      2.00000
     43      -5.1042      2.00000
     44      -5.1041      2.00000
     45      -5.0628      2.00000
     46      -4.6611      2.00000
     47      -4.6610      2.00000
     48      -4.6504      2.00000
     49      -4.6504      2.00000
     50      -4.6304      2.00000
     51      -4.6052      2.00000
     52      -4.6052      2.00000
     53      -4.5960      2.00000
     54      -4.5720      2.00000
     55      -4.5720      2.00000
     56      -4.4961      2.00000
     57      -4.4879      2.00000
     58      -4.4273      2.00000
     59      -4.4067      2.00000
     60      -4.1185      2.00000
     61      -4.0974      2.00000
     62      -4.0974      2.00000
     63      -4.0950      2.00000
     64      -4.0936      2.00000
     65      -4.0935      2.00000
     66      -4.0826      2.00000
     67      -4.0115      2.00000
     68      -4.0115      2.00000
     69      -3.9525      2.00000
     70      -3.9525      2.00000
     71      -3.9449      2.00000
     72      -3.9155      2.00000
     73      -3.9155      2.00000
     74      -3.8801      2.00000
     75      -3.8660      2.00000
     76      -3.8660      2.00000
     77      -3.8251      2.00000
     78      -3.8243      2.00000
     79      -3.8243      2.00000
     80      -3.8120      2.00000
     81      -3.8120      2.00000
     82      -3.8114      2.00000
     83      -3.8043      2.00000
     84      -3.8043      2.00000
     85      -3.7539      2.00000
     86      -3.7539      2.00000
     87      -3.7215      2.00000
     88      -3.7117      2.00000
     89      -3.7116      2.00000
     90      -3.6668      2.00000
     91      -3.6546      2.00000
     92      -3.6545      2.00000
     93      -3.6235      2.00000
     94      -3.5930      2.00000
     95      -3.5930      2.00000
     96      -3.5470      2.00000
     97      -3.5470      2.00000
     98      -3.5393      2.00000
     99      -3.5393      2.00000
    100      -3.3941      2.00000
    101      -3.3941      2.00000
    102      -3.3870      2.00000
    103      -3.3870      2.00000
    104      -3.2507      2.00000
    105      -3.2380      2.00000
    106      -3.2380      2.00000
    107      -3.2138      2.00000
    108      -3.2138      2.00000
    109      -3.2022      2.00000
    110      -3.0987      2.00000
    111      -3.0986      2.00000
    112      -3.0287      2.00000
    113      -3.0000      2.00000
    114      -2.9999      2.00000
    115      -2.9801      2.00000
    116      -2.9800      2.00000
    117      -2.9636      2.00000
    118      -2.9330      2.00000
    119      -2.9045      2.00000
    120      -2.8774      2.00000
    121      -2.7933      2.00000
    122      -2.7933      2.00000
    123      -2.7550      2.00000
    124      -2.7184      2.00000
    125      -2.7184      2.00000
    126      -2.6928      2.00000
    127      -2.6756      2.00000
[...]
  0.000   0.000   0.000   0.000   0.000   0.000   0.000   0.000   0.000   0.000   1.000   0.000   0.000   0.000   0.000   0.000
  0.000   0.000   0.000   0.000   0.000   0.000   0.000   0.000   0.000   0.000   0.000   0.000   0.000   0.000   0.000   0.000
  0.000   0.000   0.000   0.000   0.000   0.000   0.000   0.000   0.000   0.000   0.000   0.000   0.000   0.000   0.000   0.000
  0.000   0.000   0.000   0.000   0.000   0.000   0.000   0.000   0.000   0.000   0.000   0.000   0.000   0.000   0.000   0.000
  0.000   0.000   0.000   0.000   0.000   0.000   0.000   0.000   0.000   0.000   0.000   0.000   0.000   0.000   0.000   0.000
  0.000   0.000   0.000   0.000   0.000   0.000   0.000   0.000   0.000   0.000   0.000   0.000   0.000   0.000   0.000   0.000
  0.000   0.000   0.000   0.000   0.000   0.000   0.000   0.000   0.000   0.000   0.000   0.000   0.000   0.000   0.000   0.000
  0.000   0.000   0.000   0.000   0.000   0.000   0.000   0.000   0.000   0.000   0.000   0.000   0.000   0.000   0.000   0.000


------------------------ aborting loop because EDIFF is reached ----------------------------------------





 total charge

# of ion       s       p       d       tot
------------------------------------------
    1        0.544   0.239   8.768   9.551
    2        0.546   0.241   8.763   9.551
    3        0.546   0.241   8.763   9.551
    4        0.546   0.241   8.763   9.551
    5        0.543   0.243   8.759   9.545
    6        0.546   0.241   8.763   9.551
    7        0.546   0.241   8.763   9.551
    8        0.546   0.241   8.763   9.551
    9        0.541   0.240   8.769   9.551
   10        0.521   0.308   8.770   9.598
   11        0.524   0.307   8.779   9.610
   12        0.521   0.308   8.770   9.598
   13        0.524   0.307   8.779   9.610
   14        0.524   0.307   8.779   9.610
   15        0.514   0.310   8.774   9.597
   16        0.521   0.308   8.770   9.598
   17        0.514   0.310   8.774   9.597
   18        0.514   0.310   8.774   9.597
   19        0.518   0.296   8.772   9.586
   20        0.559   0.332   8.747   9.639
   21        0.559   0.332   8.747   9.639
   22        0.507   0.308   8.775   9.589
   23        0.559   0.332   8.747   9.639
   24        0.507   0.308   8.775   9.589
   25        0.518   0.296   8.772   9.586
   26        0.518   0.296   8.772   9.586
   27        0.507   0.308   8.775   9.589
   28        0.542   0.229   8.760   9.531
   29        0.567   0.250   8.744   9.560
   30        0.567   0.250   8.744   9.560
   31        0.567   0.250   8.744   9.560
   32        0.567   0.250   8.744   9.560
   33        0.567   0.250   8.744   9.560
   34        0.567   0.250   8.744   9.560
   35        0.541   0.231   8.755   9.527
   36        0.443   0.521   4.362   5.326
   37        0.927   1.449   0.000   2.376
   38        1.523   3.772   0.000   5.295
   39        0.562   0.137   0.000   0.699
--------------------------------------------------
tot         22.270  15.585 311.070 348.925
 
    CHARGE:  cpu time    0.4386: real time    0.4386
    FORLOC:  cpu time    0.0142: real time    0.0142
    FORNL :  cpu time    1.7118: real time    1.7119
    STRESS:  cpu time    5.1296: real time    5.1298
    FORCOR:  cpu time    0.0558: real time    0.0559
    FORHAR:  cpu time    0.0224: real time    0.0224
    OFIELD:  cpu time    0.0003: real time    0.0003

  FORCE on cell =-STRESS in cart. coord.  units (eV):
  Direction    XX          YY          ZZ          XY          YZ          ZX
  --------------------------------------------------------------------------------------
  Alpha Z   863.64149   863.64149   863.64149
  Ewald  184413.16092184413.16134************    -0.00032    -0.00009    -0.00013
  Hartree192908.94590192908.94590************     0.00001    -0.00002    -0.00004
  E(xc)   -1802.82508 -1802.82522 -1810.56472     0.00012    -0.00001    -0.00002
  Local  ************************389373.75764     0.00216     0.00000    -0.00001
  n-local  -118.97784   -72.56652   -70.00692    23.11337    -1.67458     1.51683
  augment  2380.91846  2380.92001  2396.95168    -0.00134    -0.00001     0.00003
  Kinetic  5631.88339  5642.51684  5632.25555     6.77100     0.17083     0.37916
  Fock        0.00000     0.00000     0.00000     0.00000     0.00000     0.00000
  -------------------------------------------------------------------------------------
  Total     -21.00716   -21.00716     3.53567    -0.00000     0.00000     0.00000
  in kB     -18.70013   -18.70012     3.14737    -0.00000     0.00000     0.00000
  external pressure =      -11.42 kB  Pullay stress =        0.00 kB


 VOLUME and BASIS-vectors are now :
 -----------------------------------------------------------------------------
  energy-cutoff  :      500.00
  volume of cell :     1799.84
      direct lattice vectors                 reciprocal lattice vectors
     8.813512802  0.000000000  0.000000000     0.113462137 -0.065507406  0.000000000
     4.406756909  7.632725690  0.000000000     0.000000000  0.131014796  0.000000000
     0.000000000  0.000000000 26.754991198     0.000000000  0.000000000  0.037376204

  length of vectors
     8.813512802  8.813512802 26.754991198     0.131014796  0.131014796  0.037376204


 FORCES acting on ions
    electron-ion (+dipol)            ewald-force                    non-local-force                 convergence-correction
 -----------------------------------------------------------------------------------------------
   -.201E-04 -.165E-04 0.281E+04   0.519E-04 0.433E-04 -.281E+04   -.139E-16 -.128E-17 -.899E+00   -.280E-03 -.175E-03 -.389E+00
   0.521E+00 0.149E+00 0.282E+04   -.594E+00 -.189E+00 -.281E+04   0.389E-01 0.570E-01 -.230E+00   0.430E-01 0.118E-02 -.353E+00
   -.521E+00 0.149E+00 0.282E+04   0.594E+00 -.189E+00 -.281E+04   -.389E-01 0.570E-01 -.230E+00   -.426E-01 0.322E-02 -.352E+00
   0.389E+00 0.377E+00 0.282E+04   -.461E+00 -.420E+00 -.281E+04   0.688E-01 0.520E-02 -.230E+00   0.226E-01 0.366E-01 -.353E+00
   0.104E-04 -.222E-04 0.282E+04   0.951E-04 0.174E-05 -.282E+04   0.155E-17 -.106E-17 -.114E+00   0.440E-02 0.267E-02 -.311E+00
   -.389E+00 0.377E+00 0.282E+04   0.461E+00 -.420E+00 -.281E+04   -.688E-01 0.520E-02 -.230E+00   -.242E-01 0.375E-01 -.351E+00
   -.132E+00 -.526E+00 0.282E+04   0.133E+00 0.609E+00 -.281E+04   0.299E-01 -.622E-01 -.230E+00   -.185E-01 -.385E-01 -.352E+00
   0.131E+00 -.526E+00 0.282E+04   -.134E+00 0.609E+00 -.281E+04   -.299E-01 -.622E-01 -.230E+00   0.204E-01 -.397E-01 -.351E+00
   0.196E-04 -.415E-04 0.282E+04   0.166E-03 -.200E-04 -.282E+04   -.206E-17 0.814E-18 -.630E+00   -.466E-02 -.241E-02 -.402E+00
   0.555E+01 0.320E+01 0.961E+03   -.531E+01 -.307E+01 -.960E+03   -.328E+00 -.190E+00 -.606E+00   0.771E-01 0.444E-01 0.124E+00
   0.148E-04 0.298E+01 0.966E+03   0.148E-03 -.318E+01 -.966E+03   0.548E-08 0.824E-01 -.277E+00   0.426E-02 0.417E-01 0.163E+00
   -.555E+01 0.320E+01 0.961E+03   0.531E+01 -.307E+01 -.960E+03   0.328E+00 -.190E+00 -.606E+00   -.790E-01 0.464E-01 0.125E+00
   0.258E+01 -.149E+01 0.966E+03   -.275E+01 0.159E+01 -.966E+03   0.713E-01 -.412E-01 -.277E+00   0.386E-01 -.169E-01 0.163E+00
   -.258E+01 -.149E+01 0.966E+03   0.275E+01 0.159E+01 -.966E+03   -.713E-01 -.412E-01 -.277E+00   -.302E-01 -.176E-01 0.164E+00
   0.316E-04 0.440E+01 0.964E+03   0.236E-03 -.452E+01 -.964E+03   0.175E-08 0.262E-01 -.465E+00   -.297E-02 0.423E-01 0.156E+00
   -.205E-04 -.641E+01 0.961E+03   0.162E-03 0.613E+01 -.960E+03   0.252E-07 0.379E+00 -.606E+00   0.398E-03 -.916E-01 0.125E+00
   0.381E+01 -.220E+01 0.964E+03   -.391E+01 0.226E+01 -.964E+03   0.227E-01 -.131E-01 -.465E+00   0.354E-01 -.233E-01 0.156E+00
   -.381E+01 -.220E+01 0.964E+03   0.391E+01 0.226E+01 -.964E+03   -.227E-01 -.131E-01 -.465E+00   -.353E-01 -.207E-01 0.156E+00
   -.435E-04 0.627E+00 -.920E+03   0.546E-04 -.801E+00 0.919E+03   0.256E-08 0.385E-01 0.677E+00   -.593E-02 0.128E+00 0.610E+00
   0.136E+00 0.787E-01 -.887E+03   0.468E+00 0.270E+00 0.886E+03   -.112E+01 -.647E+00 -.109E+01   0.291E+00 0.168E+00 0.966E+00
   -.136E+00 0.787E-01 -.887E+03   -.468E+00 0.270E+00 0.886E+03   0.112E+01 -.647E+00 -.109E+01   -.282E+00 0.170E+00 0.966E+00
   -.831E+01 0.480E+01 -.901E+03   0.780E+01 -.451E+01 0.900E+03   0.450E+00 -.260E+00 0.701E+00   0.925E-01 -.563E-01 0.661E+00
   -.104E-04 -.158E+00 -.887E+03   0.139E-03 -.540E+00 0.886E+03   0.862E-07 0.129E+01 -.109E+01   0.583E-02 -.329E+00 0.966E+00
   0.831E+01 0.480E+01 -.901E+03   -.780E+01 -.451E+01 0.900E+03   -.450E+00 -.260E+00 0.701E+00   -.101E+00 -.581E-01 0.661E+00
   -.543E+00 -.314E+00 -.920E+03   0.694E+00 0.401E+00 0.919E+03   -.333E-01 -.192E-01 0.677E+00   -.113E+00 -.656E-01 0.610E+00
   0.543E+00 -.314E+00 -.920E+03   -.694E+00 0.401E+00 0.919E+03   0.333E-01 -.192E-01 0.677E+00   0.108E+00 -.693E-01 0.610E+00
   0.886E-05 -.959E+01 -.901E+03   0.198E-03 0.901E+01 0.900E+03   0.346E-07 0.519E+00 0.701E+00   -.308E-02 0.108E+00 0.661E+00
   -.143E-04 -.132E-04 -.271E+04   0.298E-04 0.339E-04 0.271E+04   -.421E-17 0.826E-18 0.372E+00   -.334E-03 -.210E-03 0.723E+00
   0.242E+02 0.399E+02 -.269E+04   -.235E+02 -.391E+02 0.269E+04   -.938E+00 -.138E+01 0.187E+00   0.232E+00 0.341E+00 0.463E+00
   -.242E+02 0.399E+02 -.269E+04   0.235E+02 -.391E+02 0.269E+04   0.938E+00 -.138E+01 0.187E+00   -.231E+00 0.343E+00 0.463E+00
   0.466E+02 0.958E+00 -.269E+04   -.456E+02 -.847E+00 0.269E+04   -.167E+01 -.121E+00 0.187E+00   0.411E+00 0.301E-01 0.463E+00
   -.466E+02 0.958E+00 -.269E+04   0.456E+02 -.847E+00 0.269E+04   0.167E+01 -.121E+00 0.187E+00   -.413E+00 0.308E-01 0.462E+00
   0.225E+02 -.409E+02 -.269E+04   -.221E+02 0.399E+02 0.269E+04   -.729E+00 0.150E+01 0.187E+00   0.182E+00 -.371E+00 0.463E+00
   -.225E+02 -.409E+02 -.269E+04   0.221E+02 0.399E+02 0.269E+04   0.729E+00 0.150E+01 0.187E+00   -.180E+00 -.373E+00 0.462E+00
   0.337E-04 -.285E-04 -.271E+04   0.141E-03 -.496E-04 0.271E+04   -.143E-16 -.137E-17 0.352E+00   -.478E-02 -.247E-02 0.533E+00
   -.306E-05 0.214E-05 -.127E+04   0.625E-04 0.565E-05 0.128E+04   -.544E-17 0.154E-17 -.755E+00   0.126E-02 0.749E-03 0.341E+00
   -.652E-05 -.794E-04 -.101E+04   0.152E-04 0.965E-06 0.989E+03   0.954E-18 -.127E-17 0.203E+02   0.118E-02 0.718E-03 -.236E+00
   0.244E-03 -.900E-04 -.172E+04   0.502E-05 0.504E-06 0.172E+04   0.432E-18 0.340E-18 -.567E+01   0.388E-02 0.237E-02 -.252E+00
   0.636E-05 -.145E-04 -.331E+03   0.216E-06 0.375E-07 0.339E+03   -.110E-19 -.578E-21 -.871E+01   0.205E-03 0.125E-03 -.309E-01
 -----------------------------------------------------------------------------------------------
   -.534E-03 -.943E-03 -.919E+01   -.256E-14 -.162E-13 -.307E-11   0.204E-15 0.221E-15 0.772E+00   0.379E-02 0.292E-02 0.868E+01
 
 
 POSITION                                       TOTAL-FORCE (eV/Angst)
 -----------------------------------------------------------------------------------
      0.00000      0.00000      5.28038        -0.000000      0.000000     -0.106853
      2.93784      0.00000      5.28038         0.008753      0.019136     -0.060521
      5.87568      0.00000      5.28038        -0.008753      0.019136     -0.060521
      1.46892      2.54424      5.28038         0.020949     -0.001988     -0.060521
      4.40676      2.54424      5.28038        -0.000000      0.000000     -0.091638
      7.34459      2.54424      5.28038        -0.020949     -0.001988     -0.060521
      2.93784      5.08848      5.28038         0.012196     -0.017148     -0.060521
      5.87568      5.08848      5.28038        -0.012196     -0.017148     -0.060521
      8.81351      5.08848      5.28038        -0.000000      0.000000     -0.057257
      1.46892      0.84808      7.67911        -0.012682     -0.007322      0.165316
      4.40676      0.84808      7.67911        -0.000000     -0.072084      0.079784
      7.34459      0.84808      7.67911         0.012682     -0.007322      0.165316
      2.93784      3.39232      7.67911        -0.062426      0.036042      0.079784
      5.87568      3.39232      7.67911         0.062426      0.036042      0.079784
      8.81351      3.39232      7.67911        -0.000000     -0.052084      0.160286
      4.40676      5.93656      7.67911         0.000000      0.014644      0.165316
      7.34459      5.93656      7.67911        -0.045106      0.026042      0.160286
     10.28243      5.93656      7.67911         0.045106      0.026042      0.160286
      8.81351      1.70181     10.09390        -0.000000     -0.005852      0.045500
      2.93906      1.69686     10.04479        -0.230086     -0.132840     -0.331631
      5.87446      1.69686     10.04479         0.230086     -0.132840     -0.331631
     10.26694      4.24935     10.06849         0.044201     -0.025519      0.016352
      4.40676      4.23900     10.04479         0.000000      0.265681     -0.331631
      7.36009      4.24935     10.06849        -0.044201     -0.025519      0.016352
     11.74646      6.78182     10.09390         0.005068      0.002926      0.045500
      5.88057      6.78182     10.09390        -0.005068      0.002926      0.045500
      8.81351      6.76675     10.06849         0.000000      0.051039      0.016352
      0.00000      0.00000     12.49934        -0.000000      0.000000     -0.149944
      2.98260      0.07565     12.53968        -0.089801     -0.195719     -0.175177
      5.83091      0.07565     12.53968         0.089801     -0.195719     -0.175177
      1.55682      2.54518     12.53968        -0.214398      0.020090     -0.175177
      7.25669      2.54518     12.53968         0.214398      0.020090     -0.175177
      2.98097      5.01189     12.53968        -0.124597      0.175629     -0.175177
      5.83254      5.01189     12.53968         0.124597      0.175629     -0.175177
      8.81351      5.08848     12.49853        -0.000000      0.000000     -0.071194
      4.40676      2.54424     12.23451        -0.000000      0.000000      1.423246
      4.40676      2.54424     14.07012        -0.000000      0.000000      0.077690
      4.40676      2.54424     15.32581        -0.000000      0.000000     -0.020912
      4.40676      2.54424     16.28278        -0.000000      0.000000      0.004229
 -----------------------------------------------------------------------------------
    total drift:                                0.003258      0.001979      0.265800


--------------------------------------------------------------------------------------------------------



  FREE ENERGIE OF THE ION-ELECTRON SYSTEM (eV)
  ---------------------------------------------------
  free  energy   TOTEN  =      -134.08466836 eV

  energy  without entropy=     -134.08466836  energy(sigma->0) =     -134.08466836
 


--------------------------------------------------------------------------------------------------------


    POTLOK:  cpu time    0.0527: real time    0.0527


--------------------------------------------------------------------------------------------------------


 stress matrix after NEB project (eV)
    -21.00716     -0.00000      0.00000
     -0.00000    -21.00716      0.00000
     -0.00000      0.00000      3.53567
  FORCES: max atom, RMS     0.077690    0.012901
  FORCE total and by dimension    0.080566    0.077690
  Stress total and by dimension   29.918269   21.007165
     LOOP+:  cpu time   82.7866: real time   82.7984
 -----------------------------------------------------------------------------
|                                                                             |
|           W    W    AA    RRRRR   N    N  II  N    N   GGGG   !!!           |
|           W    W   A  A   R    R  NN   N  II  NN   N  G    G  !!!           |
|           W    W  A    A  R    R  N N  N  II  N N  N  G       !!!           |
|           W WW W  AAAAAA  RRRRR   N  N N  II  N  N N  G  GGG   !            |
|           WW  WW  A    A  R   R   N   NN  II  N   NN  G    G                |
|           W    W  A    A  R    R  N    N  II  N    N   GGGG   !!!           |
|                                                                             |
|     Tetrahedron method does not include variations of the Fermi             |
|     occupations, so forces and stress will be inaccurate. We suggest        |
|     using a different smearing scheme ISMEAR = 1 or 2 for metals in         |
|     relaxations.                                                            |
|                                                                             |
 -----------------------------------------------------------------------------

    4ORBIT:  cpu time    0.0000: real time    0.0000



 total charge

# of ion       s       p       d       tot
------------------------------------------
    1        0.544   0.239   8.768   9.551
    2        0.546   0.241   8.763   9.551
    3        0.546   0.241   8.763   9.551
    4        0.546   0.241   8.763   9.551
    5        0.543   0.243   8.759   9.545
    6        0.546   0.241   8.763   9.551
    7        0.546   0.241   8.763   9.551
    8        0.546   0.241   8.763   9.551
    9        0.541   0.240   8.769   9.551
   10        0.521   0.308   8.770   9.598
   11        0.524   0.307   8.779   9.610
   12        0.521   0.308   8.770   9.598
   13        0.524   0.307   8.779   9.610
   14        0.524   0.307   8.779   9.610
   15        0.514   0.310   8.774   9.597
   16        0.521   0.308   8.770   9.598
   17        0.514   0.310   8.774   9.597
   18        0.514   0.310   8.774   9.597
   19        0.518   0.296   8.772   9.586
   20        0.559   0.332   8.747   9.639
   21        0.559   0.332   8.747   9.639
   22        0.507   0.308   8.775   9.589
   23        0.559   0.332   8.747   9.639
   24        0.507   0.308   8.775   9.589
   25        0.518   0.296   8.772   9.586
   26        0.518   0.296   8.772   9.586
   27        0.507   0.308   8.775   9.589
   28        0.542   0.229   8.760   9.531
   29        0.567   0.250   8.744   9.560
   30        0.567   0.250   8.744   9.560
   31        0.567   0.250   8.744   9.560
   32        0.567   0.250   8.744   9.560
   33        0.567   0.250   8.744   9.560
   34        0.567   0.250   8.744   9.560
   35        0.541   0.231   8.755   9.527
   36        0.443   0.521   4.362   5.326
   37        0.927   1.449   0.000   2.376
   38        1.523   3.772   0.000   5.295
   39        0.562   0.137   0.000   0.699
--------------------------------------------------
tot         22.270  15.585 311.070 348.925
 
 BZINTS: Fermi energy:    0.292161;  402.000000 electrons
         Band energy:-0.146604E+04;  BLOECHL correction:   -0.051202

 total amount of memory used by VASP MPI-rank0   140006. kBytes
=======================================================================

   base      :      30000. kBytes
   nonlr-proj:      14314. kBytes
   fftplans  :       5150. kBytes
   grid      :      23126. kBytes
   one-center:        606. kBytes
   wavefun   :      66810. kBytes
 
  
  
 General timing and accounting informations for this job:
 ========================================================
  
                  Total CPU time used (sec):       91.266
                            User time (sec):       87.930
                          System time (sec):        3.336
                         Elapsed time (sec):       91.716
  
                   Maximum memory used (kb):      416048.
                   Average memory used (kb):          N/A
  
                          Minor page faults:        80519
                          Major page faults:            0
                 Voluntary context switches:         5219
