PROCAR new format
# of k-points:   10         # of bands:  252         # of ions:   39

 k-point     1 :    0.00000000 0.00000000 0.00000000     weight = 0.01562500

band     1 # energy  -23.95752221 # occ.  2.00000000
 
ion      s      p      d    tot
    1  0.000  0.000  0.000  0.000
    2  0.000  0.000  0.000  0.000
    3  0.000  0.000  0.000  0.000
    4  0.000  0.000  0.000  0.000
    5  0.000  0.000  0.000  0.000
    6  0.000  0.000  0.000  0.000
    7  0.000  0.000  0.000  0.000
    8  0.000  0.000  0.000  0.000
    9  0.000  0.000  0.000  0.000
   10  0.000  0.000  0.000  0.000
   11  0.000  0.000  0.000  0.000
   12  0.000  0.000  0.000  0.000
   13  0.000  0.000  0.000  0.000
   14  0.000  0.000  0.000  0.000
   15  0.000  0.000  0.000  0.000
   16  0.000  0.000  0.000  0.000
   17  0.000  0.000  0.000  0.000
   18  0.000  0.000  0.000  0.000
   19  0.000  0.000  0.000  0.000
   20  0.000  0.000  0.000  0.000
   21  0.000  0.000  0.000  0.000
   22  0.000  0.000  0.000  0.000
   23  0.000  0.000  0.000  0.000
   24  0.000  0.000  0.000  0.000
   25  0.000  0.000  0.000  0.000
   26  0.000  0.000  0.000  0.000
   27  0.000  0.000  0.000  0.000
   28  0.000  0.000  0.000  0.000
   29  0.000  0.000  0.000  0.000
   30  0.000  0.000  0.000  0.000
   31  0.000  0.000  0.000  0.000
   32  0.000  0.000  0.000  0.000
   33  0.000  0.000  0.000  0.000
   34  0.000  0.000  0.000  0.000
   35  0.000  0.000  0.000  0.000
   36  0.000  0.000  0.000  0.000
   37  0.079  0.059  0.000  0.138
   38  0.725  0.008  0.000  0.733
   39  0.061  0.013  0.000  0.074
tot    0.866  0.080  0.000  0.946
 
band     2 # energy  -14.62953792 # occ.  2.00000000
 
ion      s      p      d    tot
    1  0.000  0.000  0.000  0.000
    2  0.000  0.000  0.000  0.000
    3  0.000  0.000  0.000  0.000
    4  0.000  0.000  0.000  0.000
    5  0.000  0.000  0.000  0.000
    6  0.000  0.000  0.000  0.000
    7  0.000  0.000  0.000  0.000
    8  0.000  0.000  0.000  0.000
    9  0.000  0.000  0.000  0.000
   10  0.000  0.000  0.000  0.000
   11  0.000  0.000  0.000  0.000
   12  0.000  0.000  0.000  0.000
   13  0.000  0.000  0.000  0.000
   14  0.000  0.000  0.000  0.000
   15  0.000  0.000  0.000  0.000
   16  0.000  0.000  0.000  0.000
   17  0.000  0.000  0.000  0.000
   18  0.000  0.000  0.000  0.000
   19  0.000  0.000  0.000  0.000
   20  0.000  0.000  0.000  0.000
   21  0.000  0.000  0.000  0.000
   22  0.000  0.000  0.000  0.000
   23  0.000  0.000  0.000  0.000
   24  0.000  0.000  0.000  0.000
   25  0.000  0.000  0.000  0.000
   26  0.000  0.000  0.000  0.000
   27  0.000  0.000  0.000  0.000
   28  0.000  0.000  0.000  0.000
   29  0.000  0.000  0.000  0.000
   30  0.000  0.000  0.000  0.000
   31  0.000  0.000  0.000  0.000
   32  0.000  0.000  0.000  0.000
   33  0.000  0.000  0.000  0.000
   34  0.000  0.000  0.000  0.000
   35  0.000  0.000  0.000  0.000
   36  0.002  0.002  0.003  0.007
   37  0.156  0.052  0.000  0.208
   38  0.018  0.528  0.000  0.546
   39  0.204  0.033  0.000  0.237
tot    0.379  0.614  0.003  0.997
 
band     3 # energy   -8.54750953 # occ.  2.00000000
 
ion      s      p      d    tot
    1  0.006  0.001  0.000  0.007
    2  0.006  0.000  0.000  0.007
    3  0.006  0.000  0.000  0.007
    4  0.006  0.001  0.000  0.007
    5  0.006  0.001  0.000  0.007
    6  0.006  0.000  0.000  0.007
    7  0.006  0.001  0.000  0.007
    8  0.006  0.001  0.000  0.007
    9  0.006  0.000  0.000  0.007
   10  0.025  0.000  0.000  0.025
   11  0.026  0.000  0.000  0.026
   12  0.025  0.000  0.000  0.025
   13  0.026  0.000  0.000  0.026
   14  0.026  0.000  0.000  0.026
   15  0.025  0.000  0.000  0.025
   16  0.025  0.000  0.000  0.025
   17  0.025  0.000  0.000  0.025
   18  0.025  0.000  0.000  0.025
   19  0.023  0.000  0.000  0.023
   20  0.028  0.000  0.000  0.029
   21  0.028  0.000  0.000  0.029
   22  0.024  0.000  0.000  0.024
   23  0.028  0.000  0.000  0.029
   24  0.024  0.000  0.000  0.024
   25  0.023  0.000  0.000  0.023
   26  0.023  0.000  0.000  0.023
   27  0.024  0.000  0.000  0.024
   28  0.005  0.000  0.000  0.005
   29  0.005  0.000  0.000  0.006
   30  0.005  0.000  0.000  0.006
   31  0.005  0.000  0.000  0.006
   32  0.005  0.000  0.000  0.006
   33  0.005  0.000  0.000  0.006
   34  0.005  0.000  0.000  0.006
   35  0.005  0.000  0.000  0.005
   36  0.013  0.000  0.004  0.016
   37  0.003  0.004  0.000  0.007
   38  0.000  0.001  0.000  0.002
   39  0.000  0.000  0.000  0.000
tot    0.565  0.015  0.007  0.587
 
band     4 # energy   -7.52301932 # occ.  2.00000000
 
ion      s      p      d    tot
    1  0.011  0.000  0.001  0.012
    2  0.011  0.000  0.001  0.012
    3  0.011  0.000  0.001  0.012
    4  0.011  0.000  0.001  0.012
    5  0.011  0.000  0.000  0.012
    6  0.011  0.000  0.001  0.012
    7  0.011  0.000  0.001  0.012
    8  0.011  0.000  0.001  0.012
    9  0.012  0.000  0.000  0.013
   10  0.009  0.001  0.002  0.012
   11  0.009  0.001  0.002  0.012
   12  0.009  0.001  0.002  0.012
   13  0.009  0.001  0.002  0.012
   14  0.009  0.001  0.002  0.012
   15  0.012  0.001  0.001  0.014
   16  0.009  0.001  0.002  0.012
   17  0.012  0.001  0.001  0.014
   18  0.012  0.001  0.001  0.014
   19  0.004  0.001  0.002  0.007
   20  0.011  0.002  0.005  0.018
   21  0.011  0.002  0.005  0.018
   22  0.003  0.001  0.001  0.006
   23  0.011  0.002  0.005  0.018
   24  0.003  0.001  0.001  0.006
   25  0.004  0.001  0.002  0.007
   26  0.004  0.001  0.002  0.007
   27  0.003  0.001  0.001  0.006
   28  0.007  0.000  0.001  0.008
   29  0.011  0.000  0.001  0.012
   30  0.011  0.000  0.001  0.012
   31  0.011  0.000  0.001  0.012
   32  0.011  0.000  0.001  0.012
   33  0.011  0.000  0.001  0.012
   34  0.011  0.000  0.001  0.012
   35  0.007  0.000  0.001  0.007
   36  0.072  0.011  0.063  0.146
   37  0.060  0.056  0.000  0.116
   38  0.005  0.017  0.000  0.022
   39  0.005  0.000  0.000  0.005
tot    0.470  0.108  0.115  0.692
 
band     5 # energy   -7.04027860 # occ.  2.00000000
 
ion      s      p      d    tot
    1  0.010  0.000  0.001  0.010
    2  0.007  0.000  0.001  0.008
    3  0.007  0.000  0.001  0.008
    4  0.007  0.000  0.001  0.008
    5  0.006  0.000  0.001  0.008
    6  0.007  0.000  0.001  0.008
    7  0.007  0.000  0.001  0.008
    8  0.007  0.000  0.001  0.008
    9  0.005  0.000  0.001  0.006
   10  0.003  0.001  0.001  0.005
   11  0.002  0.001  0.001  0.004
   12  0.003  0.001  0.001  0.005
   13  0.002  0.001  0.001  0.004
   14  0.002  0.001  0.001  0.004
   15  0.000  0.001  0.001  0.003
   16  0.003  0.001  0.001  0.005
   17  0.000  0.001  0.001  0.003
   18  0.000  0.001  0.001  0.003
   19  0.012  0.000  0.004  0.016
   20  0.001  0.001  0.015  0.017
   21  0.001  0.001  0.015  0.017
   22  0.020  0.000  0.003  0.022
   23  0.001  0.001  0.015  0.017
   24  0.020  0.000  0.003  0.022
   25  0.012  0.000  0.004  0.016
   26  0.012  0.000  0.004  0.016
   27  0.020  0.000  0.003  0.022
   28  0.007  0.000  0.000  0.007
   29  0.002  0.001  0.002  0.005
   30  0.002  0.001  0.002  0.005
   31  0.002  0.001  0.002  0.005
   32  0.002  0.001  0.002  0.005
   33  0.002  0.001  0.002  0.005
   34  0.002  0.001  0.002  0.005
   35  0.009  0.001  0.000  0.009
   36  0.047  0.029  0.148  0.223
   37  0.107  0.093  0.000  0.200
   38  0.007  0.025  0.000  0.033
   39  0.007  0.000  0.000  0.008
tot    0.371  0.168  0.245  0.784
 
band     6 # energy   -6.73151584 # occ.  2.00000000
 
ion      s      p      d    tot
    1  0.000  0.000  0.000  0.000
    2  0.000  0.000  0.000  0.000
    3  0.000  0.000  0.000  0.000
    4  0.000  0.000  0.000  0.000
    5  0.000  0.000  0.000  0.000
    6  0.000  0.000  0.000  0.000
    7  0.000  0.000  0.000  0.000
    8  0.000  0.000  0.000  0.000
    9  0.000  0.000  0.000  0.000
   10  0.000  0.000  0.000  0.000
   11  0.000  0.000  0.000  0.000
   12  0.000  0.000  0.000  0.000
   13  0.000  0.000  0.000  0.000
   14  0.000  0.000  0.000  0.000
   15  0.000  0.000  0.000  0.000
   16  0.000  0.000  0.000  0.000
   17  0.000  0.000  0.000  0.000
   18  0.000  0.000  0.000  0.000
   19  0.000  0.000  0.000  0.000
   20  0.000  0.000  0.001  0.001
   21  0.000  0.000  0.001  0.001
   22  0.000  0.000  0.000  0.000
   23  0.000  0.000  0.001  0.001
   24  0.000  0.000  0.000  0.000
   25  0.000  0.000  0.000  0.000
   26  0.000  0.000  0.000  0.000
   27  0.000  0.000  0.000  0.000
   28  0.000  0.000  0.000  0.000
   29  0.001  0.000  0.001  0.003
   30  0.000  0.000  0.001  0.001
   31  0.001  0.000  0.001  0.003
   32  0.001  0.000  0.002  0.003
   33  0.000  0.000  0.001  0.001
   34  0.001  0.000  0.002  0.003
   35  0.000  0.000  0.000  0.000
   36  0.000  0.002  0.020  0.022
   37  0.000  0.115  0.000  0.115
   38  0.000  0.517  0.000  0.517
   39  0.000  0.007  0.000  0.007
tot    0.006  0.643  0.032  0.681
 
band     7 # energy   -6.73135949 # occ.  2.00000000
 
ion      s      p      d    tot
    1  0.000  0.000  0.000  0.000
    2  0.000  0.000  0.000  0.000
    3  0.000  0.000  0.000  0.000
    4  0.000  0.000  0.000  0.000
    5  0.000  0.000  0.000  0.000
    6  0.000  0.000  0.000  0.000
    7  0.000  0.000  0.000  0.000
    8  0.000  0.000  0.000  0.000
    9  0.000  0.000  0.000  0.000
   10  0.000  0.000  0.000  0.000
   11  0.000  0.000  0.000  0.000
   12  0.000  0.000  0.000  0.000
   13  0.000  0.000  0.000  0.000
   14  0.000  0.000  0.000  0.000
   15  0.000  0.000  0.000  0.000
   16  0.000  0.000  0.000  0.000
   17  0.000  0.000  0.000  0.000
   18  0.000  0.000  0.000  0.000
   19  0.000  0.000  0.000  0.000
   20  0.000  0.000  0.001  0.001
   21  0.000  0.000  0.001  0.001
   22  0.000  0.000  0.000  0.000
   23  0.000  0.000  0.001  0.001
   24  0.000  0.000  0.000  0.000
   25  0.000  0.000  0.000  0.000
   26  0.000  0.000  0.000  0.000
   27  0.000  0.000  0.000  0.000
   28  0.000  0.000  0.000  0.000
   29  0.000  0.000  0.001  0.002
   30  0.001  0.000  0.002  0.004
   31  0.000  0.000  0.001  0.002
   32  0.000  0.000  0.001  0.001
   33  0.001  0.000  0.002  0.004
   34  0.000  0.000  0.001  0.001
   35  0.000  0.000  0.000  0.000
   36  0.000  0.002  0.020  0.022
   37  0.000  0.115  0.000  0.115
   38  0.000  0.517  0.000  0.517
   39  0.000  0.007  0.000  0.007
tot    0.006  0.643  0.032  0.681
 
band     8 # energy   -6.42168465 # occ.  2.00000000
 
ion      s      p      d    tot
    1  0.008  0.000  0.018  0.027
    2  0.015  0.000  0.014  0.029
    3  0.015  0.000  0.014  0.029
    4  0.015  0.000  0.014  0.029
    5  0.009  0.000  0.013  0.022
    6  0.015  0.000  0.014  0.029
    7  0.015  0.000  0.014  0.029
    8  0.015  0.000  0.014  0.029
    9  0.032  0.000  0.009  0.042
   10  0.010  0.001  0.015  0.025
   11  0.014  0.002  0.010  0.026
   12  0.010  0.001  0.015  0.025
   13  0.014  0.002  0.010  0.026
   14  0.013  0.002  0.010  0.025
   15  0.000  0.001  0.017  0.018
   16  0.010  0.001  0.015  0.025
   17  0.000  0.001  0.017  0.018
   18  0.000  0.001  0.017  0.018
   19  0.000  0.001  0.007  0.008
   20  0.012  0.002  0.005  0.018
   21  0.011  0.002  0.005  0.018
   22  0.002  0.001  0.002  0.005
   23  0.011  0.002  0.005  0.018
   24  0.002  0.001  0.002  0.005
   25  0.000  0.001  0.007  0.008
   26  0.000  0.001  0.007  0.008
   27  0.002  0.001  0.002  0.005
   28  0.011  0.000  0.002  0.014
   29  0.008  0.000  0.006  0.014
   30  0.008  0.000  0.006  0.014
   31  0.008  0.000  0.006  0.014
   32  0.008  0.000  0.006  0.014
   33  0.008  0.000  0.006  0.014
   34  0.008  0.000  0.006  0.014
   35  0.015  0.000  0.004  0.019
   36  0.001  0.002  0.003  0.006
   37  0.000  0.000  0.000  0.000
   38  0.000  0.000  0.000  0.000
   39  0.000  0.000  0.000  0.000
tot    0.328  0.025  0.335  0.689
 
band     9 # energy   -6.39900945 # occ.  2.00000000
 
ion      s      p      d    tot
    1  0.000  0.000  0.008  0.009
    2  0.003  0.001  0.003  0.006
    3  0.001  0.000  0.003  0.004
    4  0.003  0.001  0.003  0.006
    5  0.000  0.001  0.007  0.008
    6  0.006  0.001  0.003  0.011
    7  0.001  0.000  0.003  0.004
    8  0.006  0.001  0.003  0.011
    9  0.000  0.000  0.001  0.001
   10  0.035  0.002  0.005  0.042
   11  0.012  0.003  0.021  0.036
   12  0.009  0.001  0.027  0.037
   13  0.013  0.003  0.021  0.037
   14  0.051  0.001  0.011  0.063
   15  0.000  0.003  0.006  0.009
   16  0.009  0.001  0.027  0.037
   17  0.000  0.003  0.006  0.009
   18  0.001  0.000  0.012  0.014
   19  0.002  0.003  0.005  0.011
   20  0.063  0.001  0.010  0.075
   21  0.016  0.002  0.029  0.047
   22  0.004  0.001  0.022  0.027
   23  0.016  0.002  0.030  0.047
   24  0.017  0.002  0.005  0.023
   25  0.010  0.000  0.013  0.023
   26  0.002  0.003  0.005  0.011
   27  0.004  0.001  0.022  0.027
   28  0.000  0.000  0.001  0.001
   29  0.007  0.001  0.004  0.011
   30  0.002  0.001  0.003  0.005
   31  0.007  0.001  0.004  0.011
   32  0.002  0.000  0.002  0.004
   33  0.002  0.001  0.003  0.005
   34  0.002  0.000  0.002  0.004
   35  0.000  0.000  0.004  0.004
   36  0.000  0.003  0.006  0.009
   37  0.000  0.000  0.000  0.000
   38  0.000  0.002  0.000  0.002
   39  0.000  0.000  0.000  0.000
tot    0.306  0.045  0.343  0.693
 
band    10 # energy   -6.39898129 # occ.  2.00000000
 
ion      s      p      d    tot
    1  0.000  0.000  0.008  0.009
    2  0.004  0.001  0.004  0.008
    3  0.006  0.001  0.003  0.010
    4  0.004  0.001  0.004  0.008
    5  0.000  0.001  0.007  0.008
    6  0.000  0.000  0.003  0.003
    7  0.006  0.001  0.003  0.010
    8  0.000  0.000  0.003  0.003
    9  0.000  0.000  0.001  0.001
   10  0.000  0.000  0.035  0.035
   11  0.038  0.001  0.014  0.054
   12  0.026  0.002  0.012  0.040
   13  0.038  0.001  0.015  0.054
   14  0.000  0.004  0.024  0.028
   15  0.001  0.001  0.010  0.012
   16  0.027  0.002  0.012  0.040
   17  0.001  0.001  0.010  0.012
   18  0.000  0.003  0.004  0.008
   19  0.007  0.001  0.011  0.019
   20  0.000  0.002  0.036  0.038
   21  0.047  0.002  0.017  0.065
   22  0.013  0.001  0.011  0.024
   23  0.048  0.001  0.016  0.066
   24  0.000  0.000  0.027  0.028
   25  0.000  0.004  0.003  0.007
   26  0.007  0.001  0.011  0.019
   27  0.013  0.001  0.010  0.024
   28  0.000  0.000  0.001  0.001
   29  0.000  0.000  0.002  0.002
   30  0.005  0.001  0.003  0.009
   31  0.000  0.000  0.002  0.002
   32  0.005  0.001  0.004  0.010
   33  0.005  0.001  0.003  0.009
   34  0.005  0.001  0.004  0.010
   35  0.000  0.000  0.004  0.004
   36  0.000  0.003  0.006  0.009
   37  0.000  0.000  0.000  0.000
   38  0.000  0.002  0.000  0.002
   39  0.000  0.000  0.000  0.000
tot    0.306  0.045  0.343  0.693
 
band    11 # energy   -6.36987985 # occ.  2.00000000
 
ion      s      p      d    tot
    1  0.010  0.000  0.005  0.015
    2  0.005  0.000  0.008  0.013
    3  0.005  0.000  0.008  0.013
    4  0.005  0.000  0.008  0.013
    5  0.009  0.000  0.007  0.016
    6  0.005  0.000  0.008  0.013
    7  0.005  0.000  0.008  0.013
    8  0.005  0.000  0.008  0.013
    9  0.000  0.001  0.010  0.011
   10  0.001  0.000  0.026  0.027
   11  0.000  0.001  0.021  0.022
   12  0.001  0.000  0.026  0.027
   13  0.000  0.001  0.021  0.022
   14  0.000  0.001  0.021  0.022
   15  0.019  0.000  0.013  0.033
   16  0.001  0.000  0.026  0.027
   17  0.019  0.000  0.013  0.033
   18  0.019  0.000  0.013  0.033
   19  0.003  0.000  0.023  0.026
   20  0.018  0.000  0.021  0.039
   21  0.018  0.000  0.021  0.040
   22  0.000  0.001  0.020  0.021
   23  0.018  0.000  0.021  0.040
   24  0.000  0.001  0.020  0.021
   25  0.003  0.000  0.023  0.026
   26  0.003  0.000  0.023  0.026
   27  0.000  0.001  0.020  0.021
   28  0.007  0.000  0.004  0.011
   29  0.006  0.000  0.008  0.014
   30  0.006  0.000  0.008  0.014
   31  0.006  0.000  0.008  0.014
   32  0.006  0.000  0.008  0.014
   33  0.006  0.000  0.008  0.014
   34  0.006  0.000  0.008  0.014
   35  0.011  0.000  0.006  0.017
   36  0.002  0.004  0.002  0.008
   37  0.002  0.001  0.000  0.003
   38  0.000  0.001  0.000  0.001
   39  0.000  0.000  0.000  0.000
tot    0.236  0.015  0.496  0.747
 
band    12 # energy   -6.34665492 # occ.  2.00000000
 
ion      s      p      d    tot
    1  0.009  0.001  0.001  0.010
    2  0.000  0.001  0.006  0.007
    3  0.000  0.001  0.006  0.007
    4  0.000  0.001  0.006  0.007
    5  0.017  0.002  0.001  0.020
    6  0.000  0.001  0.006  0.007
    7  0.000  0.001  0.006  0.007
    8  0.000  0.001  0.006  0.007
    9  0.000  0.000  0.001  0.002
   10  0.023  0.003  0.002  0.028
   11  0.023  0.001  0.020  0.044
   12  0.022  0.003  0.002  0.028
   13  0.023  0.001  0.020  0.044
   14  0.023  0.001  0.020  0.044
   15  0.000  0.001  0.024  0.025
   16  0.022  0.003  0.002  0.028
   17  0.000  0.001  0.024  0.025
   18  0.000  0.001  0.024  0.025
   19  0.029  0.002  0.004  0.035
   20  0.003  0.002  0.019  0.024
   21  0.003  0.002  0.018  0.024
   22  0.006  0.000  0.028  0.034
   23  0.003  0.002  0.018  0.024
   24  0.006  0.000  0.028  0.034
   25  0.029  0.002  0.004  0.035
   26  0.029  0.002  0.004  0.035
   27  0.006  0.000  0.028  0.034
   28  0.008  0.001  0.002  0.012
   29  0.000  0.000  0.004  0.005
   30  0.000  0.000  0.004  0.005
   31  0.000  0.000  0.004  0.005
   32  0.000  0.000  0.004  0.005
   33  0.000  0.000  0.004  0.005
   34  0.000  0.000  0.004  0.005
   35  0.007  0.001  0.001  0.009
   36  0.002  0.000  0.000  0.002
   37  0.000  0.000  0.000  0.000
   38  0.000  0.000  0.000  0.000
   39  0.000  0.000  0.000  0.000
tot    0.299  0.040  0.355  0.694
 
band    13 # energy   -6.32681979 # occ.  2.00000000
 
ion      s      p      d    tot
    1  0.000  0.001  0.004  0.004
    2  0.003  0.001  0.004  0.008
    3  0.007  0.001  0.004  0.012
    4  0.006  0.001  0.004  0.011
    5  0.000  0.000  0.005  0.005
    6  0.001  0.001  0.003  0.005
    7  0.009  0.001  0.004  0.014
    8  0.000  0.000  0.003  0.004
    9  0.000  0.001  0.011  0.013
   10  0.025  0.000  0.016  0.042
   11  0.003  0.001  0.018  0.022
   12  0.004  0.004  0.006  0.013
   13  0.001  0.001  0.022  0.025
   14  0.008  0.001  0.008  0.017
   15  0.024  0.001  0.029  0.054
   16  0.010  0.003  0.009  0.021
   17  0.009  0.001  0.038  0.048
   18  0.062  0.002  0.006  0.069
   19  0.015  0.001  0.023  0.039
   20  0.000  0.001  0.013  0.014
   21  0.000  0.002  0.011  0.013
   22  0.005  0.003  0.015  0.023
   23  0.000  0.002  0.012  0.013
   24  0.034  0.001  0.012  0.046
   25  0.039  0.002  0.004  0.045
   26  0.006  0.000  0.031  0.037
   27  0.013  0.003  0.014  0.030
   28  0.000  0.000  0.006  0.007
   29  0.000  0.000  0.002  0.003
   30  0.003  0.001  0.002  0.005
   31  0.000  0.000  0.002  0.002
   32  0.004  0.001  0.002  0.007
   33  0.002  0.000  0.002  0.004
   34  0.003  0.001  0.003  0.007
   35  0.000  0.001  0.004  0.004
   36  0.000  0.000  0.001  0.001
   37  0.000  0.000  0.000  0.000
   38  0.000  0.003  0.000  0.003
   39  0.000  0.000  0.000  0.000
tot    0.296  0.045  0.352  0.692
 
band    14 # energy   -6.32681755 # occ.  2.00000000
 
ion      s      p      d    tot
    1  0.000  0.001  0.004  0.004
    2  0.005  0.001  0.003  0.010
    3  0.001  0.001  0.004  0.006
    4  0.003  0.001  0.003  0.007
    5  0.000  0.000  0.005  0.005
    6  0.008  0.001  0.004  0.013
    7  0.000  0.000  0.004  0.004
    8  0.009  0.001  0.004  0.014
    9  0.000  0.001  0.011  0.013
   10  0.000  0.005  0.004  0.009
   11  0.005  0.001  0.014  0.020
   12  0.022  0.001  0.015  0.038
   13  0.007  0.001  0.010  0.018
   14  0.000  0.001  0.024  0.026
   15  0.039  0.001  0.020  0.060
   16  0.016  0.002  0.012  0.030
   17  0.054  0.002  0.011  0.066
   18  0.001  0.001  0.042  0.045
   19  0.025  0.001  0.015  0.042
   20  0.000  0.002  0.011  0.013
   21  0.000  0.001  0.013  0.014
   22  0.030  0.001  0.012  0.043
   23  0.000  0.001  0.012  0.014
   24  0.001  0.004  0.016  0.020
   25  0.001  0.000  0.035  0.036
   26  0.034  0.002  0.008  0.044
   27  0.022  0.002  0.013  0.037
   28  0.000  0.000  0.006  0.007
   29  0.004  0.001  0.002  0.006
   30  0.001  0.000  0.002  0.004
   31  0.004  0.001  0.002  0.007
   32  0.000  0.000  0.002  0.002
   33  0.002  0.001  0.003  0.005
   34  0.001  0.000  0.001  0.003
   35  0.000  0.001  0.004  0.004
   36  0.000  0.000  0.001  0.001
   37  0.000  0.000  0.000  0.000
   38  0.000  0.003  0.000  0.003
   39  0.000  0.000  0.000  0.000
tot    0.296  0.045  0.352  0.692
 
band    15 # energy   -6.27066024 # occ.  2.00000000
 
ion      s      p      d    tot
    1  0.008  0.001  0.000  0.009
    2  0.001  0.000  0.005  0.006
    3  0.001  0.000  0.005  0.006
    4  0.001  0.000  0.005  0.006
    5  0.004  0.000  0.001  0.005
    6  0.001  0.000  0.005  0.006
    7  0.001  0.000  0.005  0.006
    8  0.001  0.000  0.005  0.006
    9  0.006  0.001  0.003  0.010
   10  0.005  0.000  0.022  0.026
   11  0.003  0.002  0.008  0.013
   12  0.005  0.000  0.021  0.026
   13  0.003  0.002  0.008  0.013
   14  0.003  0.002  0.008  0.013
   15  0.023  0.002  0.005  0.031
   16  0.005  0.000  0.021  0.026
   17  0.023  0.002  0.005  0.031
   18  0.023  0.002  0.005  0.031
   19  0.000  0.001  0.011  0.013
   20  0.001  0.000  0.024  0.025
   21  0.001  0.000  0.024  0.025
   22  0.018  0.003  0.007  0.027
   23  0.001  0.000  0.024  0.025
   24  0.018  0.003  0.007  0.027
   25  0.000  0.001  0.011  0.013
   26  0.000  0.001  0.011  0.013
   27  0.018  0.003  0.007  0.027
   28  0.016  0.000  0.012  0.028
   29  0.013  0.000  0.011  0.024
   30  0.013  0.000  0.011  0.024
   31  0.013  0.000  0.011  0.024
   32  0.013  0.000  0.011  0.024
   33  0.013  0.000  0.011  0.024
   34  0.013  0.000  0.011  0.024
   35  0.006  0.000  0.012  0.018
   36  0.001  0.004  0.039  0.045
   37  0.012  0.010  0.000  0.022
   38  0.001  0.002  0.000  0.003
   39  0.001  0.000  0.000  0.001
tot    0.286  0.047  0.390  0.722
 
band    16 # energy   -5.91352022 # occ.  2.00000000
 
ion      s      p      d    tot
    1  0.000  0.001  0.004  0.005
    2  0.001  0.001  0.005  0.006
    3  0.009  0.001  0.004  0.015
    4  0.001  0.001  0.005  0.006
    5  0.000  0.001  0.010  0.012
    6  0.005  0.001  0.004  0.009
    7  0.009  0.001  0.004  0.015
    8  0.005  0.001  0.004  0.009
    9  0.000  0.000  0.009  0.009
   10  0.000  0.001  0.050  0.051
   11  0.016  0.001  0.020  0.038
   12  0.007  0.002  0.019  0.027
   13  0.017  0.001  0.020  0.038
   14  0.000  0.000  0.049  0.049
   15  0.002  0.000  0.019  0.022
   16  0.007  0.002  0.019  0.027
   17  0.002  0.000  0.019  0.021
   18  0.000  0.001  0.011  0.012
   19  0.005  0.000  0.018  0.023
   20  0.000  0.000  0.079  0.079
   21  0.016  0.001  0.024  0.042
   22  0.003  0.001  0.019  0.023
   23  0.016  0.001  0.025  0.042
   24  0.000  0.001  0.033  0.034
   25  0.000  0.001  0.011  0.012
   26  0.005  0.000  0.018  0.023
   27  0.003  0.001  0.019  0.023
   28  0.000  0.000  0.008  0.008
   29  0.003  0.001  0.005  0.008
   30  0.009  0.001  0.005  0.015
   31  0.003  0.001  0.005  0.008
   32  0.002  0.001  0.004  0.006
   33  0.009  0.001  0.005  0.015
   34  0.002  0.001  0.004  0.006
   35  0.000  0.000  0.003  0.003
   36  0.000  0.003  0.006  0.009
   37  0.000  0.000  0.000  0.000
   38  0.000  0.000  0.000  0.000
   39  0.000  0.000  0.000  0.000
tot    0.154  0.031  0.566  0.750
 
band    17 # energy   -5.91349484 # occ.  2.00000000
 
ion      s      p      d    tot
    1  0.001  0.001  0.004  0.005
    2  0.009  0.001  0.005  0.014
    3  0.001  0.001  0.005  0.006
    4  0.008  0.001  0.005  0.014
    5  0.000  0.001  0.010  0.011
    6  0.005  0.001  0.004  0.010
    7  0.001  0.001  0.005  0.006
    8  0.005  0.001  0.004  0.010
    9  0.001  0.000  0.008  0.009
   10  0.005  0.002  0.009  0.016
   11  0.007  0.000  0.037  0.044
   12  0.005  0.001  0.038  0.044
   13  0.007  0.000  0.037  0.045
   14  0.017  0.001  0.018  0.036
   15  0.000  0.001  0.010  0.011
   16  0.005  0.001  0.038  0.044
   17  0.000  0.001  0.010  0.011
   18  0.003  0.000  0.031  0.034
   19  0.001  0.001  0.011  0.012
   20  0.019  0.002  0.012  0.032
   21  0.006  0.000  0.059  0.065
   22  0.003  0.001  0.030  0.034
   23  0.006  0.000  0.059  0.065
   24  0.002  0.001  0.010  0.013
   25  0.009  0.000  0.025  0.033
   26  0.001  0.001  0.011  0.012
   27  0.003  0.001  0.030  0.034
   28  0.001  0.000  0.008  0.009
   29  0.006  0.001  0.003  0.010
   30  0.000  0.001  0.005  0.005
   31  0.006  0.001  0.003  0.010
   32  0.007  0.001  0.005  0.013
   33  0.000  0.001  0.005  0.005
   34  0.007  0.001  0.005  0.013
   35  0.000  0.000  0.003  0.003
   36  0.000  0.003  0.006  0.009
   37  0.000  0.000  0.000  0.000
   38  0.000  0.000  0.000  0.000
   39  0.000  0.000  0.000  0.000
tot    0.154  0.030  0.566  0.750
 
band    18 # energy   -5.91340378 # occ.  2.00000000
 
ion      s      p      d    tot
    1  0.016  0.002  0.002  0.020
    2  0.000  0.001  0.007  0.008
    3  0.000  0.000  0.007  0.008
    4  0.000  0.001  0.007  0.008
    5  0.000  0.000  0.002  0.002
    6  0.000  0.001  0.009  0.010
    7  0.000  0.000  0.007  0.008
    8  0.000  0.001  0.009  0.010
    9  0.014  0.001  0.000  0.015
   10  0.014  0.002  0.011  0.026
   11  0.002  0.000  0.044  0.046
   12  0.007  0.001  0.014  0.022
   13  0.002  0.000  0.044  0.046
   14  0.008  0.000  0.034  0.042
   15  0.003  0.001  0.029  0.032
   16  0.007  0.001  0.014  0.022
   17  0.003  0.001  0.029  0.032
   18  0.001  0.001  0.016  0.018
   19  0.006  0.001  0.012  0.019
   20  0.003  0.000  0.046  0.049
   21  0.000  0.000  0.054  0.054
   22  0.009  0.001  0.020  0.031
   23  0.000  0.000  0.054  0.054
   24  0.014  0.001  0.026  0.041
   25  0.003  0.001  0.006  0.010
   26  0.006  0.001  0.012  0.019
   27  0.009  0.001  0.020  0.031
   28  0.013  0.001  0.001  0.015
   29  0.000  0.001  0.007  0.008
   30  0.000  0.000  0.006  0.006
   31  0.000  0.001  0.007  0.008
   32  0.000  0.001  0.006  0.007
   33  0.000  0.000  0.006  0.006
   34  0.000  0.001  0.006  0.007
   35  0.006  0.001  0.003  0.010
   36  0.001  0.000  0.001  0.002
   37  0.000  0.000  0.000  0.000
   38  0.000  0.000  0.000  0.000
   39  0.000  0.000  0.000  0.000
tot    0.150  0.028  0.576  0.754
 
band    19 # energy   -5.84956792 # occ.  2.00000000
 
ion      s      p      d    tot
    1  0.000  0.001  0.015  0.016
    2  0.010  0.001  0.004  0.015
    3  0.001  0.000  0.005  0.007
    4  0.010  0.001  0.004  0.015
    5  0.000  0.000  0.006  0.006
    6  0.004  0.001  0.005  0.010
    7  0.001  0.000  0.005  0.007
    8  0.004  0.001  0.005  0.010
    9  0.000  0.001  0.006  0.008
   10  0.000  0.001  0.031  0.032
   11  0.000  0.001  0.019  0.021
   12  0.008  0.000  0.022  0.030
   13  0.000  0.001  0.019  0.021
   14  0.000  0.001  0.017  0.019
   15  0.010  0.002  0.020  0.032
   16  0.008  0.000  0.022  0.030
   17  0.010  0.002  0.020  0.032
   18  0.000  0.000  0.062  0.062
   19  0.014  0.001  0.019  0.034
   20  0.000  0.002  0.020  0.022
   21  0.000  0.001  0.024  0.024
   22  0.017  0.001  0.020  0.038
   23  0.000  0.001  0.024  0.024
   24  0.000  0.001  0.031  0.032
   25  0.000  0.000  0.066  0.067
   26  0.014  0.001  0.019  0.034
   27  0.017  0.001  0.020  0.038
   28  0.000  0.001  0.005  0.006
   29  0.006  0.001  0.004  0.010
   30  0.000  0.000  0.005  0.006
   31  0.006  0.001  0.004  0.010
   32  0.004  0.001  0.003  0.008
   33  0.000  0.000  0.005  0.006
   34  0.004  0.001  0.003  0.008
   35  0.000  0.001  0.008  0.009
   36  0.000  0.000  0.002  0.002
   37  0.000  0.000  0.000  0.000
   38  0.000  0.000  0.000  0.000
   39  0.000  0.000  0.000  0.000
tot    0.149  0.029  0.572  0.750
 
band    20 # energy   -5.84953118 # occ.  2.00000000
 
ion      s      p      d    tot
    1  0.000  0.001  0.015  0.016
    2  0.000  0.000  0.005  0.006
    3  0.009  0.001  0.005  0.015
    4  0.000  0.000  0.005  0.006
    5  0.000  0.000  0.006  0.006
    6  0.006  0.001  0.005  0.011
    7  0.009  0.001  0.005  0.015
    8  0.006  0.001  0.005  0.011
    9  0.000  0.001  0.006  0.008
   10  0.010  0.000  0.019  0.029
   11  0.000  0.001  0.018  0.019
   12  0.003  0.001  0.028  0.031
   13  0.000  0.001  0.018  0.019
   14  0.001  0.001  0.020  0.022
   15  0.003  0.001  0.048  0.052
   16  0.003  0.001  0.028  0.031
   17  0.003  0.001  0.048  0.052
   18  0.014  0.002  0.006  0.022
   19  0.005  0.001  0.051  0.056
   20  0.000  0.000  0.025  0.025
   21  0.000  0.001  0.021  0.023
   22  0.006  0.001  0.028  0.034
   23  0.000  0.001  0.021  0.023
   24  0.023  0.001  0.017  0.040
   25  0.019  0.001  0.004  0.024
   26  0.005  0.001  0.051  0.056
   27  0.006  0.001  0.028  0.034
   28  0.000  0.001  0.005  0.006
   29  0.001  0.000  0.004  0.005
   30  0.007  0.001  0.003  0.010
   31  0.001  0.000  0.004  0.005
   32  0.002  0.001  0.005  0.008
   33  0.007  0.001  0.003  0.010
   34  0.002  0.001  0.005  0.008
   35  0.000  0.001  0.008  0.009
   36  0.000  0.000  0.002  0.002
   37  0.000  0.000  0.000  0.000
   38  0.000  0.000  0.000  0.000
   39  0.000  0.000  0.000  0.000