PROCAR new format
# of k-points:   10         # of bands:  252         # of ions:   36

 k-point     1 :    0.00000000 0.00000000 0.00000000     weight = 0.01562500

band     1 # energy   -8.11178948 # occ.  2.00000000
 
ion      s      p      d    tot
    1  0.007  0.001  0.000  0.007
    2  0.007  0.001  0.000  0.007
    3  0.007  0.001  0.000  0.007
    4  0.007  0.001  0.000  0.007
    5  0.007  0.001  0.000  0.007
    6  0.007  0.001  0.000  0.007
    7  0.007  0.001  0.000  0.007
    8  0.007  0.001  0.000  0.007
    9  0.007  0.001  0.000  0.007
   10  0.027  0.000  0.000  0.027
   11  0.027  0.000  0.000  0.027
   12  0.027  0.000  0.000  0.027
   13  0.027  0.000  0.000  0.027
   14  0.027  0.000  0.000  0.027
   15  0.026  0.000  0.000  0.027
   16  0.027  0.000  0.000  0.027
   17  0.026  0.000  0.000  0.027
   18  0.026  0.000  0.000  0.027
   19  0.023  0.000  0.000  0.024
   20  0.026  0.000  0.000  0.027
   21  0.026  0.000  0.000  0.027
   22  0.024  0.000  0.000  0.025
   23  0.026  0.000  0.000  0.027
   24  0.024  0.000  0.000  0.025
   25  0.023  0.000  0.000  0.024
   26  0.023  0.000  0.000  0.024
   27  0.024  0.000  0.000  0.025
   28  0.005  0.000  0.000  0.005
   29  0.005  0.000  0.000  0.005
   30  0.005  0.000  0.000  0.005
   31  0.005  0.000  0.000  0.005
   32  0.005  0.000  0.000  0.005
   33  0.005  0.000  0.000  0.005
   34  0.005  0.000  0.000  0.005
   35  0.005  0.000  0.000  0.005
   36  0.006  0.001  0.000  0.007
tot    0.566  0.012  0.003  0.581
 
band     2 # energy   -6.93696757 # occ.  2.00000000
 
ion      s      p      d    tot
    1  0.017  0.000  0.001  0.019
    2  0.017  0.000  0.001  0.018
    3  0.017  0.000  0.001  0.018
    4  0.017  0.000  0.001  0.018
    5  0.016  0.000  0.001  0.018
    6  0.017  0.000  0.001  0.018
    7  0.017  0.000  0.001  0.018
    8  0.017  0.000  0.001  0.018
    9  0.017  0.000  0.001  0.018
   10  0.010  0.001  0.002  0.014
   11  0.010  0.002  0.003  0.014
   12  0.010  0.001  0.002  0.014
   13  0.010  0.002  0.003  0.014
   14  0.010  0.002  0.003  0.014
   15  0.010  0.001  0.002  0.014
   16  0.010  0.001  0.002  0.014
   17  0.010  0.001  0.002  0.014
   18  0.010  0.001  0.002  0.014
   19  0.014  0.001  0.004  0.018
   20  0.016  0.001  0.004  0.021
   21  0.016  0.001  0.004  0.021
   22  0.014  0.001  0.003  0.019
   23  0.016  0.001  0.004  0.021
   24  0.014  0.001  0.003  0.019
   25  0.014  0.001  0.004  0.018
   26  0.014  0.001  0.004  0.018
   27  0.014  0.001  0.003  0.019
   28  0.014  0.000  0.000  0.015
   29  0.014  0.001  0.001  0.015
   30  0.014  0.001  0.001  0.015
   31  0.014  0.001  0.001  0.015
   32  0.014  0.001  0.001  0.015
   33  0.014  0.001  0.001  0.015
   34  0.014  0.001  0.001  0.015
   35  0.014  0.000  0.000  0.015
   36  0.012  0.001  0.000  0.013
tot    0.497  0.032  0.070  0.598
 
band     3 # energy   -5.99148364 # occ.  2.00000000
 
ion      s      p      d    tot
    1  0.009  0.000  0.021  0.031
    2  0.017  0.000  0.017  0.034
    3  0.017  0.000  0.017  0.034
    4  0.017  0.000  0.017  0.034
    5  0.012  0.000  0.015  0.027
    6  0.017  0.000  0.017  0.034
    7  0.017  0.000  0.017  0.034
    8  0.017  0.000  0.017  0.034
    9  0.034  0.000  0.012  0.046
   10  0.013  0.001  0.019  0.033
   11  0.015  0.002  0.017  0.033
   12  0.013  0.001  0.019  0.033
   13  0.015  0.002  0.017  0.033
   14  0.015  0.002  0.017  0.033
   15  0.000  0.001  0.023  0.024
   16  0.013  0.001  0.019  0.033
   17  0.000  0.001  0.023  0.024
   18  0.000  0.001  0.023  0.024
   19  0.000  0.001  0.006  0.006
   20  0.006  0.001  0.006  0.013
   21  0.006  0.001  0.006  0.013
   22  0.004  0.001  0.001  0.006
   23  0.006  0.001  0.006  0.013
   24  0.004  0.001  0.001  0.006
   25  0.000  0.001  0.006  0.006
   26  0.000  0.001  0.006  0.006
   27  0.004  0.001  0.001  0.006
   28  0.005  0.000  0.000  0.006
   29  0.003  0.000  0.003  0.006
   30  0.003  0.000  0.003  0.006
   31  0.003  0.000  0.003  0.006
   32  0.003  0.000  0.003  0.006
   33  0.003  0.000  0.003  0.006
   34  0.003  0.000  0.003  0.006
   35  0.008  0.000  0.001  0.010
   36  0.000  0.001  0.001  0.002
tot    0.303  0.020  0.382  0.705
 
band     4 # energy   -5.97308977 # occ.  2.00000000
 
ion      s      p      d    tot
    1  0.021  0.001  0.001  0.022
    2  0.005  0.000  0.009  0.014
    3  0.005  0.000  0.009  0.014
    4  0.005  0.000  0.009  0.014
    5  0.009  0.000  0.006  0.015
    6  0.005  0.000  0.009  0.014
    7  0.005  0.000  0.009  0.014
    8  0.005  0.000  0.009  0.014
    9  0.001  0.002  0.009  0.012
   10  0.002  0.000  0.033  0.034
   11  0.000  0.002  0.018  0.020
   12  0.002  0.000  0.033  0.034
   13  0.000  0.002  0.018  0.020
   14  0.000  0.002  0.018  0.019
   15  0.037  0.002  0.005  0.045
   16  0.002  0.000  0.033  0.034
   17  0.037  0.002  0.005  0.045
   18  0.037  0.002  0.005  0.045
   19  0.000  0.001  0.019  0.021
   20  0.020  0.000  0.018  0.039
   21  0.020  0.000  0.018  0.039
   22  0.013  0.003  0.006  0.022
   23  0.020  0.000  0.018  0.039
   24  0.013  0.003  0.006  0.022
   25  0.000  0.001  0.019  0.020
   26  0.000  0.001  0.019  0.021
   27  0.013  0.003  0.006  0.022
   28  0.000  0.000  0.000  0.000
   29  0.000  0.000  0.003  0.004
   30  0.000  0.000  0.003  0.004
   31  0.000  0.000  0.003  0.004
   32  0.000  0.000  0.003  0.004
   33  0.000  0.000  0.003  0.004
   34  0.000  0.000  0.003  0.004
   35  0.005  0.001  0.000  0.006
   36  0.007  0.003  0.001  0.011
tot    0.290  0.034  0.389  0.714
 
band     5 # energy   -5.96725965 # occ.  2.00000000
 
ion      s      p      d    tot
    1  0.000  0.000  0.008  0.008
    2  0.004  0.001  0.004  0.009
    3  0.006  0.001  0.003  0.010
    4  0.005  0.001  0.004  0.010
    5  0.000  0.001  0.008  0.009
    6  0.000  0.000  0.003  0.003
    7  0.006  0.001  0.003  0.011
    8  0.000  0.000  0.003  0.003
    9  0.000  0.000  0.001  0.001
   10  0.000  0.000  0.035  0.035
   11  0.037  0.002  0.016  0.055
   12  0.025  0.002  0.010  0.037
   13  0.045  0.001  0.013  0.060
   14  0.000  0.003  0.028  0.031
   15  0.002  0.001  0.010  0.014
   16  0.021  0.001  0.014  0.036
   17  0.003  0.001  0.012  0.015
   18  0.000  0.004  0.003  0.007
   19  0.004  0.001  0.010  0.015
   20  0.000  0.003  0.032  0.035
   21  0.048  0.001  0.014  0.064
   22  0.018  0.001  0.009  0.028
   23  0.040  0.002  0.017  0.059
   24  0.000  0.000  0.030  0.030
   25  0.000  0.004  0.003  0.007
   26  0.005  0.001  0.011  0.017
   27  0.015  0.001  0.012  0.029
   28  0.000  0.000  0.001  0.001
   29  0.000  0.000  0.002  0.003
   30  0.006  0.001  0.003  0.010
   31  0.000  0.000  0.002  0.003
   32  0.005  0.001  0.004  0.010
   33  0.005  0.001  0.003  0.009
   34  0.004  0.001  0.004  0.008
   35  0.000  0.000  0.005  0.005
   36  0.000  0.003  0.003  0.007
tot    0.306  0.044  0.343  0.693
 
band     6 # energy   -5.96725761 # occ.  2.00000000
 
ion      s      p      d    tot
    1  0.000  0.000  0.008  0.008
    2  0.003  0.001  0.003  0.007
    3  0.002  0.001  0.003  0.005
    4  0.002  0.001  0.003  0.005
    5  0.000  0.001  0.008  0.009
    6  0.007  0.001  0.004  0.012
    7  0.001  0.000  0.003  0.004
    8  0.007  0.001  0.003  0.012
    9  0.000  0.000  0.001  0.001
   10  0.030  0.002  0.005  0.037
   11  0.018  0.002  0.022  0.042
   12  0.006  0.000  0.030  0.036
   13  0.010  0.003  0.024  0.037
   14  0.055  0.001  0.010  0.066
   15  0.001  0.003  0.006  0.010
   16  0.010  0.001  0.025  0.036
   17  0.001  0.003  0.005  0.009
   18  0.004  0.000  0.014  0.017
   19  0.002  0.003  0.006  0.011
   20  0.058  0.001  0.010  0.070
   21  0.011  0.002  0.028  0.042
   22  0.004  0.000  0.025  0.030
   23  0.019  0.002  0.025  0.046
   24  0.021  0.002  0.004  0.028
   25  0.006  0.000  0.013  0.020
   26  0.001  0.003  0.005  0.009
   27  0.007  0.001  0.022  0.029
   28  0.000  0.000  0.001  0.001
   29  0.007  0.001  0.003  0.011
   30  0.001  0.000  0.003  0.004
   31  0.007  0.001  0.004  0.011
   32  0.002  0.000  0.002  0.004
   33  0.002  0.001  0.003  0.005
   34  0.003  0.001  0.002  0.006
   35  0.000  0.000  0.005  0.005
   36  0.000  0.003  0.003  0.007
tot    0.306  0.044  0.343  0.693
 
band     7 # energy   -5.94404781 # occ.  2.00000000
 
ion      s      p      d    tot
    1  0.007  0.001  0.001  0.009
    2  0.000  0.001  0.006  0.007
    3  0.000  0.001  0.006  0.007
    4  0.000  0.001  0.006  0.007
    5  0.017  0.002  0.001  0.020
    6  0.000  0.001  0.006  0.007
    7  0.000  0.001  0.006  0.007
    8  0.000  0.001  0.006  0.007
    9  0.000  0.000  0.002  0.002
   10  0.022  0.003  0.002  0.028
   11  0.023  0.001  0.020  0.044
   12  0.022  0.003  0.002  0.028
   13  0.023  0.001  0.020  0.044
   14  0.023  0.001  0.020  0.044
   15  0.001  0.001  0.025  0.027
   16  0.022  0.003  0.002  0.028
   17  0.001  0.001  0.025  0.027
   18  0.001  0.001  0.025  0.027
   19  0.026  0.002  0.007  0.034
   20  0.007  0.003  0.015  0.025
   21  0.007  0.003  0.015  0.025
   22  0.007  0.000  0.027  0.034
   23  0.007  0.003  0.015  0.025
   24  0.007  0.000  0.027  0.034
   25  0.026  0.002  0.007  0.034
   26  0.026  0.002  0.007  0.034
   27  0.007  0.000  0.027  0.034
   28  0.012  0.001  0.001  0.014
   29  0.000  0.000  0.004  0.005
   30  0.000  0.000  0.004  0.005
   31  0.000  0.000  0.004  0.005
   32  0.000  0.000  0.004  0.005
   33  0.000  0.000  0.004  0.005
   34  0.000  0.000  0.004  0.005
   35  0.004  0.001  0.002  0.006
   36  0.001  0.000  0.000  0.001
tot    0.299  0.040  0.355  0.695
 
band     8 # energy   -5.92017209 # occ.  2.00000000
 
ion      s      p      d    tot
    1  0.000  0.001  0.004  0.005
    2  0.005  0.001  0.004  0.010
    3  0.007  0.001  0.004  0.012
    4  0.006  0.001  0.004  0.011
    5  0.000  0.000  0.004  0.004
    6  0.000  0.000  0.003  0.004
    7  0.008  0.001  0.004  0.013
    8  0.000  0.000  0.003  0.004
    9  0.000  0.001  0.011  0.012
   10  0.032  0.000  0.016  0.049
   11  0.001  0.002  0.017  0.020
   12  0.007  0.004  0.009  0.020
   13  0.001  0.002  0.018  0.021
   14  0.004  0.001  0.009  0.015
   15  0.017  0.001  0.034  0.052
   16  0.009  0.003  0.009  0.022
   17  0.014  0.001  0.036  0.051
   18  0.061  0.002  0.004  0.067
   19  0.012  0.001  0.027  0.040
   20  0.002  0.001  0.011  0.014
   21  0.000  0.001  0.013  0.015
   22  0.007  0.003  0.013  0.023
   23  0.000  0.001  0.013  0.015
   24  0.030  0.000  0.012  0.043
   25  0.044  0.002  0.003  0.049
   26  0.010  0.001  0.029  0.040
   27  0.008  0.003  0.013  0.024
   28  0.000  0.001  0.007  0.007
   29  0.000  0.000  0.002  0.002
   30  0.003  0.001  0.002  0.005
   31  0.000  0.000  0.002  0.002
   32  0.004  0.001  0.003  0.007
   33  0.003  0.001  0.002  0.005
   34  0.003  0.001  0.003  0.007
   35  0.000  0.001  0.003  0.004
   36  0.000  0.000  0.001  0.001
tot    0.298  0.041  0.353  0.693
 
band     9 # energy   -5.92016130 # occ.  2.00000000
 
ion      s      p      d    tot
    1  0.000  0.001  0.004  0.005
    2  0.004  0.001  0.003  0.008
    3  0.001  0.001  0.004  0.006
    4  0.003  0.001  0.003  0.007
    5  0.000  0.000  0.004  0.004
    6  0.008  0.001  0.004  0.014
    7  0.001  0.000  0.004  0.005
    8  0.009  0.001  0.004  0.014
    9  0.000  0.001  0.011  0.012
   10  0.000  0.005  0.006  0.011
   11  0.003  0.001  0.012  0.017
   12  0.025  0.001  0.014  0.040
   13  0.003  0.001  0.012  0.016
   14  0.000  0.002  0.020  0.022
   15  0.044  0.001  0.016  0.061
   16  0.024  0.001  0.014  0.039
   17  0.047  0.002  0.014  0.062
   18  0.000  0.001  0.045  0.046
   19  0.032  0.002  0.013  0.046
   20  0.000  0.002  0.014  0.016
   21  0.001  0.001  0.012  0.014
   22  0.023  0.001  0.013  0.037
   23  0.001  0.001  0.012  0.014
   24  0.000  0.004  0.013  0.017
   25  0.000  0.000  0.036  0.037
   26  0.034  0.002  0.011  0.046
   27  0.022  0.001  0.013  0.036
   28  0.000  0.001  0.007  0.007
   29  0.004  0.001  0.002  0.007
   30  0.001  0.000  0.002  0.004
   31  0.004  0.001  0.002  0.007
   32  0.001  0.000  0.001  0.002
   33  0.002  0.000  0.002  0.004
   34  0.001  0.000  0.001  0.002
   35  0.000  0.001  0.003  0.004
   36  0.000  0.000  0.001  0.001
tot    0.298  0.041  0.353  0.693
 
band    10 # energy   -5.87857888 # occ.  2.00000000
 
ion      s      p      d    tot
    1  0.001  0.000  0.000  0.001
    2  0.000  0.000  0.000  0.001
    3  0.000  0.000  0.000  0.001
    4  0.000  0.000  0.000  0.001
    5  0.001  0.000  0.000  0.001
    6  0.000  0.000  0.000  0.001
    7  0.000  0.000  0.000  0.001
    8  0.000  0.000  0.000  0.001
    9  0.000  0.000  0.000  0.001
   10  0.001  0.000  0.005  0.006
   11  0.002  0.000  0.004  0.006
   12  0.001  0.000  0.005  0.006
   13  0.002  0.000  0.004  0.006
   14  0.002  0.000  0.004  0.006
   15  0.001  0.000  0.005  0.006
   16  0.001  0.000  0.005  0.006
   17  0.001  0.000  0.005  0.006
   18  0.001  0.000  0.005  0.006
   19  0.006  0.001  0.020  0.027
   20  0.003  0.000  0.032  0.035
   21  0.003  0.000  0.032  0.035
   22  0.010  0.001  0.024  0.035
   23  0.003  0.000  0.032  0.035
   24  0.010  0.001  0.024  0.035
   25  0.006  0.001  0.020  0.027
   26  0.006  0.001  0.020  0.027
   27  0.010  0.001  0.024  0.035
   28  0.022  0.000  0.021  0.043
   29  0.024  0.000  0.020  0.045
   30  0.024  0.000  0.020  0.045
   31  0.024  0.000  0.020  0.045
   32  0.024  0.000  0.020  0.045
   33  0.024  0.000  0.020  0.045
   34  0.024  0.000  0.020  0.045
   35  0.024  0.000  0.022  0.045
   36  0.014  0.000  0.006  0.021
tot    0.275  0.010  0.443  0.728
 
band    11 # energy   -5.49288364 # occ.  2.00000000
 
ion      s      p      d    tot
    1  0.015  0.002  0.002  0.019
    2  0.000  0.001  0.008  0.009
    3  0.000  0.001  0.008  0.009
    4  0.000  0.001  0.008  0.009
    5  0.000  0.000  0.002  0.002
    6  0.000  0.001  0.008  0.009
    7  0.000  0.001  0.008  0.009
    8  0.000  0.001  0.008  0.009
    9  0.016  0.001  0.000  0.017
   10  0.010  0.002  0.012  0.024
   11  0.003  0.000  0.042  0.045
   12  0.010  0.002  0.012  0.024
   13  0.003  0.000  0.042  0.045
   14  0.003  0.000  0.042  0.046
   15  0.003  0.001  0.024  0.028
   16  0.010  0.002  0.012  0.024
   17  0.003  0.001  0.024  0.028
   18  0.003  0.001  0.024  0.028
   19  0.004  0.001  0.012  0.018
   20  0.001  0.000  0.051  0.053
   21  0.001  0.000  0.051  0.052
   22  0.011  0.001  0.019  0.031
   23  0.001  0.000  0.051  0.052
   24  0.011  0.001  0.019  0.031
   25  0.004  0.001  0.013  0.018
   26  0.004  0.001  0.012  0.018
   27  0.011  0.001  0.019  0.031
   28  0.012  0.001  0.000  0.014
   29  0.000  0.000  0.006  0.007
   30  0.000  0.000  0.006  0.007
   31  0.000  0.000  0.006  0.007
   32  0.000  0.000  0.006  0.007
   33  0.000  0.000  0.006  0.007
   34  0.000  0.000  0.006  0.007
   35  0.008  0.001  0.002  0.011
   36  0.001  0.000  0.001  0.001
tot    0.150  0.028  0.575  0.754
 
band    12 # energy   -5.49049968 # occ.  2.00000000
 
ion      s      p      d    tot
    1  0.000  0.001  0.004  0.005
    2  0.000  0.001  0.005  0.006
    3  0.009  0.001  0.004  0.015
    4  0.000  0.001  0.005  0.006
    5  0.000  0.001  0.011  0.012
    6  0.005  0.001  0.004  0.010
    7  0.009  0.001  0.004  0.015
    8  0.005  0.001  0.004  0.010
    9  0.000  0.000  0.008  0.008
   10  0.000  0.001  0.051  0.051
   11  0.016  0.001  0.020  0.037
   12  0.007  0.002  0.019  0.028
   13  0.016  0.001  0.020  0.037
   14  0.000  0.000  0.048  0.048
   15  0.001  0.000  0.019  0.021
   16  0.007  0.002  0.019  0.028
   17  0.001  0.000  0.019  0.021
   18  0.000  0.001  0.011  0.012
   19  0.006  0.000  0.019  0.025
   20  0.000  0.000  0.076  0.076
   21  0.017  0.001  0.023  0.041
   22  0.002  0.001  0.019  0.022
   23  0.017  0.001  0.023  0.041
   24  0.000  0.001  0.031  0.032
   25  0.000  0.001  0.013  0.014
   26  0.006  0.000  0.019  0.025
   27  0.002  0.001  0.019  0.022
   28  0.000  0.000  0.009  0.009
   29  0.002  0.001  0.005  0.008
   30  0.010  0.001  0.004  0.016
   31  0.002  0.001  0.005  0.008
   32  0.003  0.001  0.004  0.008
   33  0.010  0.001  0.004  0.016
   34  0.003  0.001  0.004  0.008
   35  0.000  0.000  0.004  0.004
   36  0.000  0.004  0.003  0.007
tot    0.159  0.033  0.557  0.749
 
band    13 # energy   -5.49048808 # occ.  2.00000000
 
ion      s      p      d    tot
    1  0.000  0.001  0.004  0.005
    2  0.009  0.001  0.004  0.014
    3  0.001  0.000  0.004  0.005
    4  0.009  0.001  0.004  0.014
    5  0.000  0.001  0.011  0.012
    6  0.004  0.001  0.005  0.010
    7  0.001  0.000  0.004  0.005
    8  0.004  0.001  0.005  0.010
    9  0.000  0.000  0.008  0.008
   10  0.010  0.002  0.008  0.020
   11  0.005  0.000  0.039  0.045
   12  0.002  0.001  0.040  0.043
   13  0.005  0.000  0.039  0.045
   14  0.021  0.001  0.011  0.033
   15  0.000  0.001  0.014  0.015
   16  0.002  0.001  0.040  0.043
   17  0.000  0.001  0.014  0.015
   18  0.002  0.000  0.022  0.024
   19  0.002  0.001  0.015  0.018
   20  0.023  0.002  0.005  0.030
   21  0.006  0.000  0.059  0.065
   22  0.001  0.001  0.027  0.029
   23  0.006  0.000  0.059  0.065
   24  0.003  0.001  0.014  0.019
   25  0.008  0.000  0.021  0.029
   26  0.002  0.001  0.015  0.018
   27  0.001  0.001  0.027  0.029
   28  0.000  0.000  0.009  0.009
   29  0.008  0.001  0.004  0.013
   30  0.000  0.000  0.004  0.005
   31  0.008  0.001  0.004  0.013
   32  0.007  0.001  0.004  0.013
   33  0.000  0.000  0.004  0.005
   34  0.007  0.001  0.004  0.013
   35  0.000  0.000  0.004  0.004
   36  0.000  0.004  0.003  0.007
tot    0.159  0.033  0.557  0.749
 
band    14 # energy   -5.44981926 # occ.  2.00000000
 
ion      s      p      d    tot
    1  0.007  0.000  0.001  0.008
    2  0.000  0.001  0.009  0.009
    3  0.000  0.001  0.009  0.009
    4  0.000  0.001  0.009  0.009
    5  0.018  0.002  0.000  0.021
    6  0.000  0.001  0.009  0.009
    7  0.000  0.001  0.009  0.009
    8  0.000  0.001  0.009  0.009
    9  0.003  0.001  0.002  0.006
   10  0.000  0.000  0.044  0.044
   11  0.006  0.002  0.010  0.018
   12  0.000  0.000  0.044  0.044
   13  0.006  0.002  0.010  0.018
   14  0.006  0.002  0.010  0.018
   15  0.008  0.001  0.025  0.034
   16  0.000  0.000  0.044  0.044
   17  0.008  0.001  0.025  0.034
   18  0.008  0.001  0.025  0.034
   19  0.010  0.001  0.040  0.051
   20  0.010  0.002  0.010  0.021
   21  0.010  0.002  0.010  0.021
   22  0.000  0.000  0.034  0.035
   23  0.010  0.002  0.010  0.021
   24  0.000  0.000  0.034  0.035
   25  0.010  0.001  0.041  0.051
   26  0.010  0.001  0.040  0.051
   27  0.000  0.000  0.034  0.035
   28  0.001  0.001  0.005  0.007
   29  0.000  0.000  0.005  0.006
   30  0.000  0.000  0.005  0.006
   31  0.000  0.000  0.005  0.006
   32  0.000  0.000  0.005  0.006
   33  0.000  0.000  0.005  0.006
   34  0.000  0.000  0.005  0.006
   35  0.003  0.000  0.000  0.003
   36  0.014  0.004  0.000  0.018
tot    0.151  0.031  0.582  0.764
 
band    15 # energy   -5.42929967 # occ.  2.00000000
 
ion      s      p      d    tot
    1  0.000  0.001  0.015  0.016
    2  0.010  0.001  0.005  0.016
    3  0.002  0.000  0.005  0.008
    4  0.010  0.001  0.005  0.016
    5  0.000  0.000  0.005  0.005
    6  0.003  0.001  0.006  0.010
    7  0.002  0.000  0.005  0.008
    8  0.003  0.001  0.006  0.010
    9  0.000  0.001  0.007  0.009
   10  0.000  0.001  0.029  0.029
   11  0.001  0.001  0.020  0.022
   12  0.007  0.000  0.023  0.030
   13  0.001  0.001  0.020  0.022
   14  0.000  0.001  0.020  0.021
   15  0.011  0.002  0.021  0.034
   16  0.007  0.000  0.023  0.030
   17  0.011  0.002  0.021  0.033
   18  0.000  0.000  0.064  0.064
   19  0.013  0.001  0.020  0.034
   20  0.000  0.002  0.018  0.020
   21  0.000  0.001  0.023  0.023
   22  0.018  0.001  0.020  0.039
   23  0.000  0.001  0.023  0.023
   24  0.000  0.000  0.033  0.034
   25  0.000  0.000  0.067  0.067
   26  0.013  0.001  0.019  0.033
   27  0.018  0.001  0.021  0.039
   28  0.000  0.001  0.005  0.006
   29  0.005  0.001  0.004  0.010
   30  0.000  0.000  0.004  0.005
   31  0.005  0.001  0.004  0.010
   32  0.003  0.001  0.002  0.006
   33  0.000  0.000  0.004  0.005
   34  0.003  0.001  0.002  0.006
   35  0.000  0.001  0.008  0.009
   36  0.000  0.000  0.001  0.001
tot    0.147  0.028  0.576  0.751
 
band    16 # energy   -5.42928726 # occ.  2.00000000
 
ion      s      p      d    tot
    1  0.000  0.001  0.015  0.016
    2  0.000  0.000  0.006  0.006
    3  0.008  0.001  0.005  0.015
    4  0.000  0.000  0.006  0.006
    5  0.000  0.000  0.005  0.005
    6  0.007  0.001  0.005  0.013
    7  0.008  0.001  0.005  0.015
    8  0.007  0.001  0.005  0.013
    9  0.000  0.001  0.007  0.009
   10  0.009  0.000  0.021  0.030
   11  0.000  0.001  0.020  0.021
   12  0.002  0.001  0.027  0.029
   13  0.000  0.001  0.020  0.021
   14  0.001  0.001  0.020  0.022
   15  0.004  0.001  0.050  0.054
   16  0.002  0.001  0.027  0.029
   17  0.004  0.001  0.050  0.054
   18  0.015  0.002  0.006  0.023
   19  0.004  0.001  0.051  0.056
   20  0.000  0.000  0.024  0.024
   21  0.000  0.001  0.020  0.021
   22  0.006  0.001  0.029  0.035
   23  0.000  0.001  0.020  0.021
   24  0.024  0.001  0.016  0.041
   25  0.017  0.001  0.004  0.022
   26  0.004  0.001  0.051  0.056
   27  0.006  0.001  0.029  0.036
   28  0.000  0.001  0.005  0.006
   29  0.001  0.000  0.003  0.004
   30  0.006  0.001  0.002  0.009
   31  0.001  0.000  0.003  0.004
   32  0.003  0.001  0.005  0.008
   33  0.006  0.001  0.002  0.009
   34  0.003  0.001  0.005  0.008
   35  0.000  0.001  0.008  0.009
   36  0.000  0.000  0.001  0.001
tot    0.147  0.028  0.576  0.751
 
band    17 # energy   -5.10848853 # occ.  2.00000000
 
ion      s      p      d    tot
    1  0.000  0.000  0.017  0.017
    2  0.000  0.000  0.010  0.011
    3  0.006  0.000  0.014  0.021
    4  0.000  0.000  0.011  0.011
    5  0.000  0.000  0.028  0.029
    6  0.008  0.001  0.009  0.018
    7  0.006  0.000  0.014  0.020
    8  0.007  0.001  0.009  0.017
    9  0.000  0.001  0.005  0.007
   10  0.000  0.000  0.016  0.016
   11  0.000  0.000  0.045  0.045
   12  0.000  0.000  0.010  0.010
   13  0.000  0.000  0.045  0.045
   14  0.000  0.000  0.044  0.044
   15  0.000  0.000  0.023  0.023
   16  0.000  0.000  0.011  0.011
   17  0.000  0.000  0.022  0.022
   18  0.000  0.000  0.038  0.039
   19  0.000  0.000  0.010  0.011
   20  0.001  0.000  0.059  0.060
   21  0.000  0.000  0.040  0.041
   22  0.000  0.000  0.033  0.033
   23  0.000  0.000  0.041  0.041
   24  0.000  0.000  0.030  0.031
   25  0.000  0.000  0.012  0.013
   26  0.000  0.000  0.010  0.011
   27  0.000  0.000  0.032  0.033
   28  0.000  0.000  0.013  0.014
   29  0.009  0.001  0.015  0.025
   30  0.000  0.001  0.010  0.011
   31  0.009  0.001  0.015  0.025
   32  0.009  0.001  0.007  0.017
   33  0.000  0.001  0.010  0.011
   34  0.009  0.001  0.008  0.018
   35  0.000  0.000  0.023  0.023
   36  0.000  0.004  0.002  0.006
tot    0.067  0.017  0.743  0.827
 
band    18 # energy   -5.10848689 # occ.  2.00000000
 
ion      s      p      d    tot
    1  0.000  0.000  0.017  0.017
    2  0.009  0.000  0.012  0.022
    3  0.003  0.001  0.008  0.012
    4  0.009  0.000  0.012  0.022
    5  0.000  0.000  0.028  0.029
    6  0.001  0.000  0.013  0.015
    7  0.003  0.001  0.008  0.012
    8  0.002  0.000  0.013  0.015
    9  0.000  0.001  0.005  0.007
   10  0.000  0.000  0.009  0.009
   11  0.000  0.000  0.044  0.044
   12  0.000  0.000  0.014  0.015
   13  0.000  0.000  0.044  0.044
   14  0.000  0.000  0.045  0.046
   15  0.000  0.000  0.033  0.033
   16  0.000  0.000  0.014  0.014
   17  0.000  0.000  0.033  0.034
   18  0.000  0.000  0.017  0.017
   19  0.000  0.000  0.012  0.012
   20  0.000  0.000  0.034  0.035
   21  0.001  0.000  0.053  0.054
   22  0.000  0.000  0.031  0.031
   23  0.001  0.000  0.052  0.053
   24  0.000  0.000  0.033  0.034
   25  0.000  0.000  0.010  0.010
   26  0.000  0.000  0.012  0.012
   27  0.000  0.000  0.031  0.031
   28  0.000  0.000  0.013  0.014
   29  0.003  0.001  0.007  0.010
   30  0.012  0.001  0.012  0.025
   31  0.003  0.001  0.007  0.011
   32  0.003  0.001  0.014  0.018
   33  0.012  0.001  0.011  0.024
   34  0.003  0.001  0.014  0.018
   35  0.000  0.000  0.023  0.023
   36  0.000  0.004  0.002  0.006
tot    0.067  0.017  0.743  0.827
 
band    19 # energy   -5.09597902 # occ.  2.00000000
 
ion      s      p      d    tot
    1  0.014  0.000  0.003  0.017
    2  0.000  0.001  0.012  0.013
    3  0.000  0.001  0.012  0.013
    4  0.000  0.001  0.012  0.013
    5  0.004  0.000  0.013  0.017
    6  0.000  0.001  0.012  0.013
    7  0.000  0.001  0.012  0.013
    8  0.000  0.001  0.012  0.013
    9  0.003  0.001  0.003  0.006
   10  0.000  0.000  0.024  0.025
   11  0.000  0.000  0.039  0.040
   12  0.000  0.000  0.024  0.025
   13  0.000  0.000  0.039  0.040
   14  0.000  0.000  0.039  0.040
   15  0.000  0.000  0.030  0.030
   16  0.000  0.000  0.024  0.025
   17  0.000  0.000  0.030  0.030
   18  0.000  0.000  0.030  0.030
   19  0.000  0.000  0.024  0.024
   20  0.001  0.000  0.035  0.036
   21  0.001  0.000  0.035  0.036
   22  0.001  0.000  0.030  0.031
   23  0.001  0.000  0.035  0.036
   24  0.001  0.000  0.030  0.031
   25  0.000  0.000  0.024  0.024
   26  0.000  0.000  0.024  0.024
   27  0.001  0.000  0.030  0.031
   28  0.014  0.001  0.000  0.015
   29  0.000  0.001  0.018  0.018
   30  0.000  0.001  0.018  0.018
   31  0.000  0.001  0.018  0.018
   32  0.000  0.001  0.018  0.018
   33  0.000  0.001  0.018  0.018
   34  0.000  0.001  0.018  0.018
   35  0.017  0.000  0.005  0.022
   36  0.000  0.000  0.003  0.004
tot    0.058  0.013  0.755  0.827
 
band    20 # energy   -5.08613024 # occ.  2.00000000
 
ion      s      p      d    tot
    1  0.000  0.000  0.008  0.008
    2  0.000  0.001  0.020  0.021
    3  0.000  0.001  0.020  0.021
    4  0.000  0.001  0.020  0.021
    5  0.022  0.001  0.000  0.024
    6  0.000  0.001  0.020  0.021
    7  0.000  0.001  0.020  0.021
    8  0.000  0.001  0.020  0.021
    9  0.022  0.000  0.009  0.031
   10  0.000  0.000  0.038  0.038
   11  0.000  0.001  0.032  0.033
   12  0.000  0.000  0.038  0.038
   13  0.000  0.001  0.032  0.033
   14  0.000  0.001  0.032  0.033
   15  0.000  0.000  0.031  0.031
   16  0.000  0.000  0.038  0.038
   17  0.000  0.000  0.031  0.031
   18  0.000  0.000  0.031  0.031
   19  0.001  0.000  0.024  0.025
   20  0.000  0.000  0.032  0.033
   21  0.000  0.000  0.032  0.033
   22  0.000  0.000  0.016  0.016
   23  0.000  0.000  0.032  0.033
   24  0.000  0.000  0.016  0.016
   25  0.001  0.000  0.024  0.025
   26  0.001  0.000  0.024  0.025
   27  0.000  0.000  0.016  0.016
   28  0.006  0.000  0.008  0.014
   29  0.000  0.000  0.014  0.014
   30  0.000  0.000  0.014  0.014
   31  0.000  0.000  0.014  0.014
   32  0.000  0.000  0.014  0.014
   33  0.000  0.000  0.014  0.014
   34  0.000  0.000  0.014  0.014
   35  0.000  0.000  0.003  0.003
   36  0.008  0.000  0.001  0.010
tot    0.064  0.017  0.746  0.827
 
band    21 # energy   -5.05207372 # occ.  2.00000000
 
ion      s      p      d    tot
    1  0.000  0.002  0.014  0.016
    2  0.014  0.001  0.017  0.032
    3  0.009  0.001  0.012  0.022
    4  0.014  0.001  0.017  0.032
    5  0.000  0.001  0.016  0.018
    6  0.000  0.001  0.018  0.019
    7  0.009  0.001  0.012  0.022
    8  0.000  0.001  0.018  0.019
    9  0.000  0.000  0.039  0.040
   10  0.000  0.001  0.054  0.055
   11  0.000  0.000  0.025  0.025
   12  0.000  0.000  0.058  0.058
   13  0.000  0.000  0.025  0.025
   14  0.000  0.000  0.031  0.031
   15  0.000  0.001  0.029  0.030
   16  0.000  0.000  0.058  0.058
   17  0.000  0.001  0.029  0.030
   18  0.000  0.001  0.026  0.028
   19  0.000  0.000  0.023  0.024
   20  0.000  0.000  0.022  0.022
   21  0.000  0.000  0.017  0.017
   22  0.001  0.000  0.008  0.009
   23  0.000  0.000  0.017  0.017
   24  0.004  0.000  0.019  0.023
   25  0.001  0.000  0.036  0.037
   26  0.000  0.000  0.023  0.024
   27  0.001  0.000  0.008  0.009
   28  0.000  0.000  0.013  0.014
   29  0.000  0.000  0.006  0.007
   30  0.005  0.000  0.003  0.008
   31  0.000  0.000  0.006  0.007
   32  0.002  0.000  0.009  0.012
   33  0.005  0.000  0.003  0.008
   34  0.002  0.000  0.009  0.012
   35  0.000  0.001  0.005  0.006
   36  0.000  0.000  0.003  0.003
tot    0.070  0.018  0.731  0.819
 
band    22 # energy   -5.05206788 # occ.  2.00000000
 
ion      s      p      d    tot
    1  0.000  0.002  0.014  0.016
    2  0.002  0.001  0.014  0.017
    3  0.007  0.001  0.019  0.026
    4  0.002  0.001  0.014  0.017
    5  0.000  0.001  0.016  0.018
    6  0.016  0.001  0.013  0.029
    7  0.007  0.001  0.019  0.026
    8  0.016  0.001  0.013  0.029
    9  0.000  0.000  0.039  0.040
   10  0.000  0.000  0.059  0.059
   11  0.000  0.000  0.029  0.029
   12  0.000  0.001  0.055  0.056
   13  0.000  0.000  0.029  0.029
   14  0.000  0.000  0.023  0.023
   15  0.000  0.001  0.027  0.029
   16  0.000  0.001  0.055  0.056