PROCAR new format
# of k-points:   10         # of bands:  252         # of ions:   37

 k-point     1 :    0.00000000 0.00000000 0.00000000     weight = 0.01562500

band     1 # energy   -9.03872803 # occ.  2.00000000
 
ion      s      p      d    tot
    1  0.000  0.000  0.000  0.000
    2  0.000  0.000  0.000  0.000
    3  0.000  0.000  0.000  0.000
    4  0.000  0.000  0.000  0.000
    5  0.000  0.000  0.000  0.000
    6  0.000  0.000  0.000  0.000
    7  0.000  0.000  0.000  0.000
    8  0.000  0.000  0.000  0.000
    9  0.000  0.000  0.000  0.000
   10  0.000  0.000  0.000  0.000
   11  0.000  0.000  0.000  0.000
   12  0.000  0.000  0.000  0.000
   13  0.000  0.000  0.000  0.000
   14  0.000  0.000  0.000  0.000
   15  0.000  0.000  0.000  0.000
   16  0.000  0.000  0.000  0.000
   17  0.000  0.000  0.000  0.000
   18  0.000  0.000  0.000  0.000
   19  0.000  0.000  0.000  0.000
   20  0.001  0.000  0.001  0.002
   21  0.001  0.000  0.001  0.002
   22  0.000  0.000  0.000  0.000
   23  0.001  0.000  0.001  0.002
   24  0.000  0.000  0.000  0.000
   25  0.000  0.000  0.000  0.000
   26  0.000  0.000  0.000  0.000
   27  0.000  0.000  0.000  0.000
   28  0.000  0.000  0.000  0.000
   29  0.002  0.001  0.002  0.004
   30  0.002  0.001  0.002  0.004
   31  0.002  0.001  0.002  0.004
   32  0.002  0.001  0.002  0.004
   33  0.002  0.001  0.002  0.004
   34  0.002  0.001  0.002  0.004
   35  0.000  0.000  0.000  0.000
   36  0.111  0.070  0.129  0.310
   37  0.437  0.019  0.000  0.456
tot    0.560  0.093  0.140  0.794
 
band     2 # energy   -6.80118479 # occ.  2.00000000
 
ion      s      p      d    tot
    1  0.006  0.001  0.000  0.007
    2  0.006  0.001  0.000  0.007
    3  0.006  0.001  0.000  0.007
    4  0.006  0.001  0.000  0.007
    5  0.006  0.001  0.000  0.007
    6  0.006  0.001  0.000  0.007
    7  0.006  0.001  0.000  0.007
    8  0.006  0.001  0.000  0.007
    9  0.006  0.001  0.000  0.007
   10  0.024  0.000  0.000  0.025
   11  0.025  0.000  0.000  0.025
   12  0.024  0.000  0.000  0.025
   13  0.025  0.000  0.000  0.025
   14  0.025  0.000  0.000  0.025
   15  0.024  0.000  0.000  0.025
   16  0.024  0.000  0.000  0.025
   17  0.024  0.000  0.000  0.025
   18  0.024  0.000  0.000  0.025
   19  0.022  0.000  0.000  0.023
   20  0.023  0.000  0.000  0.024
   21  0.023  0.000  0.000  0.024
   22  0.023  0.000  0.000  0.023
   23  0.023  0.000  0.000  0.024
   24  0.023  0.000  0.000  0.023
   25  0.022  0.000  0.000  0.023
   26  0.022  0.000  0.000  0.023
   27  0.023  0.000  0.000  0.023
   28  0.005  0.001  0.000  0.005
   29  0.004  0.001  0.000  0.005
   30  0.004  0.001  0.000  0.005
   31  0.004  0.001  0.000  0.005
   32  0.004  0.001  0.000  0.005
   33  0.004  0.001  0.000  0.005
   34  0.004  0.001  0.000  0.005
   35  0.005  0.001  0.000  0.005
   36  0.001  0.003  0.001  0.006
   37  0.005  0.000  0.000  0.005
tot    0.520  0.016  0.010  0.547
 
band     3 # energy   -5.93577086 # occ.  2.00000000
 
ion      s      p      d    tot
    1  0.007  0.000  0.000  0.008
    2  0.007  0.000  0.000  0.007
    3  0.007  0.000  0.000  0.007
    4  0.007  0.000  0.000  0.007
    5  0.007  0.000  0.000  0.007
    6  0.007  0.000  0.000  0.007
    7  0.007  0.000  0.000  0.007
    8  0.007  0.000  0.000  0.007
    9  0.007  0.000  0.000  0.007
   10  0.011  0.001  0.016  0.028
   11  0.010  0.001  0.017  0.028
   12  0.011  0.001  0.016  0.028
   13  0.010  0.001  0.017  0.028
   14  0.010  0.001  0.017  0.028
   15  0.009  0.001  0.015  0.026
   16  0.011  0.001  0.016  0.028
   17  0.009  0.001  0.015  0.026
   18  0.009  0.001  0.015  0.026
   19  0.013  0.001  0.020  0.034
   20  0.014  0.001  0.025  0.040
   21  0.014  0.001  0.025  0.039
   22  0.013  0.001  0.019  0.033
   23  0.014  0.001  0.025  0.039
   24  0.013  0.001  0.019  0.033
   25  0.013  0.001  0.020  0.034
   26  0.013  0.001  0.020  0.034
   27  0.013  0.001  0.019  0.033
   28  0.005  0.000  0.000  0.006
   29  0.004  0.000  0.001  0.005
   30  0.004  0.000  0.001  0.005
   31  0.004  0.000  0.001  0.005
   32  0.004  0.000  0.001  0.005
   33  0.004  0.000  0.001  0.005
   34  0.004  0.000  0.001  0.005
   35  0.005  0.000  0.000  0.005
   36  0.001  0.002  0.000  0.004
   37  0.002  0.000  0.000  0.002
tot    0.308  0.024  0.346  0.678
 
band     4 # energy   -5.64567227 # occ.  2.00000000
 
ion      s      p      d    tot
    1  0.020  0.000  0.028  0.048
    2  0.018  0.000  0.029  0.047
    3  0.018  0.000  0.029  0.047
    4  0.018  0.000  0.029  0.047
    5  0.017  0.000  0.030  0.048
    6  0.018  0.000  0.029  0.047
    7  0.018  0.000  0.029  0.047
    8  0.018  0.000  0.029  0.047
    9  0.018  0.000  0.028  0.045
   10  0.000  0.001  0.022  0.023
   11  0.001  0.001  0.022  0.024
   12  0.000  0.001  0.022  0.023
   13  0.001  0.001  0.022  0.024
   14  0.001  0.001  0.022  0.024
   15  0.001  0.001  0.020  0.022
   16  0.000  0.001  0.022  0.023
   17  0.001  0.001  0.020  0.022
   18  0.001  0.001  0.020  0.022
   19  0.000  0.000  0.004  0.004
   20  0.000  0.000  0.006  0.006
   21  0.000  0.000  0.006  0.006
   22  0.000  0.000  0.007  0.008
   23  0.000  0.000  0.006  0.006
   24  0.000  0.000  0.007  0.008
   25  0.000  0.000  0.004  0.004
   26  0.000  0.000  0.004  0.004
   27  0.000  0.000  0.007  0.008
   28  0.005  0.000  0.004  0.009
   29  0.004  0.000  0.004  0.009
   30  0.004  0.000  0.004  0.009
   31  0.004  0.000  0.004  0.009
   32  0.004  0.000  0.004  0.009
   33  0.004  0.000  0.004  0.009
   34  0.004  0.000  0.004  0.009
   35  0.006  0.000  0.004  0.010
   36  0.001  0.000  0.003  0.003
   37  0.001  0.000  0.000  0.001
tot    0.206  0.008  0.540  0.754
 
band     5 # energy   -5.57109049 # occ.  2.00000000
 
ion      s      p      d    tot
    1  0.002  0.000  0.002  0.005
    2  0.000  0.000  0.004  0.004
    3  0.000  0.000  0.004  0.004
    4  0.000  0.000  0.004  0.004
    5  0.001  0.000  0.000  0.001
    6  0.000  0.000  0.004  0.004
    7  0.000  0.000  0.004  0.004
    8  0.000  0.000  0.004  0.004
    9  0.001  0.000  0.001  0.002
   10  0.003  0.000  0.029  0.032
   11  0.001  0.001  0.020  0.022
   12  0.003  0.000  0.029  0.032
   13  0.001  0.001  0.020  0.022
   14  0.001  0.001  0.020  0.022
   15  0.006  0.001  0.014  0.021
   16  0.003  0.000  0.029  0.032
   17  0.006  0.001  0.014  0.021
   18  0.006  0.001  0.014  0.021
   19  0.001  0.001  0.035  0.036
   20  0.009  0.000  0.095  0.104
   21  0.009  0.000  0.095  0.104
   22  0.015  0.001  0.012  0.028
   23  0.009  0.000  0.095  0.104
   24  0.014  0.001  0.012  0.028
   25  0.001  0.001  0.035  0.036
   26  0.001  0.001  0.035  0.036
   27  0.015  0.001  0.012  0.028
   28  0.000  0.000  0.001  0.001
   29  0.000  0.000  0.005  0.005
   30  0.000  0.000  0.005  0.005
   31  0.000  0.000  0.005  0.005
   32  0.000  0.000  0.005  0.005
   33  0.000  0.000  0.005  0.005
   34  0.000  0.000  0.005  0.005
   35  0.003  0.001  0.003  0.007
   36  0.002  0.003  0.002  0.007
   37  0.001  0.000  0.000  0.002
tot    0.115  0.017  0.680  0.811
 
band     6 # energy   -5.54377294 # occ.  2.00000000
 
ion      s      p      d    tot
    1  0.000  0.000  0.001  0.002
    2  0.000  0.000  0.005  0.006
    3  0.000  0.000  0.006  0.006
    4  0.000  0.000  0.005  0.006
    5  0.005  0.001  0.003  0.009
    6  0.000  0.000  0.005  0.006
    7  0.000  0.000  0.006  0.006
    8  0.000  0.000  0.005  0.006
    9  0.001  0.000  0.003  0.004
   10  0.007  0.001  0.005  0.013
   11  0.012  0.000  0.041  0.053
   12  0.009  0.001  0.004  0.014
   13  0.012  0.000  0.040  0.053
   14  0.010  0.000  0.043  0.054
   15  0.000  0.000  0.043  0.044
   16  0.009  0.001  0.004  0.014
   17  0.000  0.000  0.043  0.044
   18  0.001  0.000  0.044  0.045
   19  0.013  0.001  0.031  0.045
   20  0.007  0.001  0.015  0.023
   21  0.004  0.001  0.016  0.021
   22  0.001  0.000  0.061  0.062
   23  0.004  0.001  0.016  0.021
   24  0.001  0.000  0.055  0.056
   25  0.015  0.001  0.026  0.042
   26  0.013  0.001  0.031  0.045
   27  0.001  0.000  0.061  0.062
   28  0.004  0.001  0.006  0.010
   29  0.000  0.000  0.004  0.004
   30  0.000  0.000  0.003  0.004
   31  0.000  0.000  0.004  0.004
   32  0.000  0.000  0.003  0.003
   33  0.000  0.000  0.004  0.004
   34  0.000  0.000  0.003  0.003
   35  0.002  0.000  0.005  0.007
   36  0.000  0.000  0.000  0.000
   37  0.000  0.000  0.000  0.000
tot    0.132  0.017  0.650  0.799
 
band     7 # energy   -5.54362061 # occ.  2.00000000
 
ion      s      p      d    tot
    1  0.000  0.000  0.009  0.009
    2  0.001  0.000  0.003  0.004
    3  0.002  0.000  0.003  0.005
    4  0.001  0.000  0.003  0.004
    5  0.000  0.000  0.005  0.005
    6  0.000  0.000  0.003  0.003
    7  0.001  0.000  0.003  0.005
    8  0.000  0.000  0.003  0.003
    9  0.000  0.000  0.001  0.001
   10  0.000  0.001  0.032  0.032
   11  0.004  0.000  0.029  0.033
   12  0.012  0.001  0.017  0.030
   13  0.004  0.000  0.028  0.033
   14  0.000  0.001  0.016  0.017
   15  0.003  0.000  0.017  0.020
   16  0.013  0.001  0.016  0.030
   17  0.003  0.000  0.018  0.021
   18  0.000  0.000  0.039  0.039
   19  0.013  0.001  0.031  0.045
   20  0.000  0.000  0.127  0.127
   21  0.020  0.001  0.037  0.058
   22  0.001  0.000  0.035  0.036
   23  0.020  0.001  0.035  0.056
   24  0.000  0.001  0.059  0.060
   25  0.000  0.002  0.013  0.015
   26  0.013  0.001  0.030  0.044
   27  0.001  0.000  0.035  0.036
   28  0.000  0.000  0.003  0.004
   29  0.001  0.000  0.005  0.006
   30  0.000  0.000  0.002  0.002
   31  0.001  0.000  0.005  0.006
   32  0.001  0.001  0.006  0.008
   33  0.000  0.000  0.002  0.002
   34  0.001  0.001  0.006  0.008
   35  0.000  0.000  0.001  0.001
   36  0.000  0.000  0.002  0.002
   37  0.000  0.000  0.000  0.000
tot    0.115  0.015  0.679  0.810
 
band     8 # energy   -5.54360129 # occ.  2.00000000
 
ion      s      p      d    tot
    1  0.000  0.000  0.009  0.009
    2  0.001  0.000  0.003  0.004
    3  0.000  0.000  0.002  0.002
    4  0.001  0.000  0.003  0.004
    5  0.000  0.000  0.005  0.005
    6  0.002  0.000  0.003  0.005
    7  0.000  0.000  0.002  0.002
    8  0.002  0.000  0.003  0.005
    9  0.000  0.000  0.001  0.001
   10  0.018  0.001  0.011  0.030
   11  0.001  0.001  0.021  0.023
   12  0.004  0.001  0.027  0.031
   13  0.001  0.001  0.021  0.023
   14  0.006  0.000  0.031  0.038
   15  0.001  0.000  0.033  0.034
   16  0.003  0.001  0.027  0.031
   17  0.001  0.000  0.032  0.033
   18  0.004  0.000  0.010  0.014
   19  0.005  0.001  0.017  0.023
   20  0.025  0.001  0.006  0.032
   21  0.008  0.000  0.095  0.103
   22  0.000  0.001  0.049  0.050
   23  0.007  0.000  0.097  0.105
   24  0.001  0.000  0.030  0.032
   25  0.016  0.000  0.040  0.056
   26  0.005  0.001  0.017  0.024
   27  0.000  0.001  0.050  0.051
   28  0.000  0.000  0.003  0.004
   29  0.001  0.000  0.003  0.004
   30  0.001  0.001  0.007  0.008
   31  0.001  0.000  0.003  0.004
   32  0.000  0.000  0.003  0.003
   33  0.001  0.001  0.007  0.008
   34  0.000  0.000  0.003  0.003
   35  0.000  0.000  0.001  0.001
   36  0.000  0.000  0.002  0.002
   37  0.000  0.000  0.000  0.000
tot    0.115  0.015  0.679  0.810
 
band     9 # energy   -5.53919944 # occ.  2.00000000
 
ion      s      p      d    tot
    1  0.000  0.000  0.001  0.001
    2  0.000  0.000  0.003  0.004
    3  0.002  0.001  0.006  0.008
    4  0.000  0.000  0.003  0.004
    5  0.000  0.000  0.009  0.009
    6  0.001  0.000  0.003  0.004
    7  0.002  0.001  0.006  0.008
    8  0.001  0.000  0.003  0.004
    9  0.000  0.000  0.006  0.006
   10  0.000  0.000  0.027  0.028
   11  0.006  0.000  0.077  0.083
   12  0.000  0.001  0.042  0.043
   13  0.006  0.000  0.077  0.083
   14  0.025  0.001  0.004  0.029
   15  0.005  0.001  0.022  0.028
   16  0.000  0.001  0.042  0.043
   17  0.005  0.001  0.022  0.028
   18  0.020  0.000  0.032  0.053
   19  0.001  0.000  0.041  0.043
   20  0.005  0.000  0.034  0.039
   21  0.001  0.001  0.023  0.025
   22  0.005  0.001  0.034  0.040
   23  0.001  0.001  0.023  0.025
   24  0.021  0.001  0.013  0.034
   25  0.006  0.001  0.009  0.016
   26  0.001  0.000  0.041  0.043
   27  0.005  0.001  0.034  0.040
   28  0.000  0.000  0.003  0.003
   29  0.001  0.000  0.003  0.005
   30  0.000  0.000  0.002  0.002
   31  0.001  0.000  0.003  0.005
   32  0.001  0.000  0.003  0.004
   33  0.000  0.000  0.002  0.002
   34  0.001  0.000  0.003  0.004
   35  0.000  0.000  0.007  0.008
   36  0.000  0.000  0.000  0.000
   37  0.000  0.000  0.000  0.000
tot    0.124  0.017  0.663  0.803
 
band    10 # energy   -5.53919240 # occ.  2.00000000
 
ion      s      p      d    tot
    1  0.000  0.000  0.001  0.001
    2  0.002  0.001  0.005  0.007
    3  0.000  0.000  0.002  0.003
    4  0.002  0.001  0.005  0.007
    5  0.000  0.000  0.009  0.009
    6  0.001  0.000  0.005  0.006
    7  0.000  0.000  0.002  0.003
    8  0.001  0.000  0.005  0.006
    9  0.000  0.000  0.005  0.006
   10  0.000  0.001  0.048  0.049
   11  0.018  0.001  0.028  0.047
   12  0.000  0.000  0.032  0.033
   13  0.018  0.001  0.028  0.047
   14  0.000  0.000  0.101  0.101
   15  0.015  0.001  0.029  0.045
   16  0.000  0.000  0.032  0.033
   17  0.015  0.001  0.029  0.045
   18  0.000  0.002  0.018  0.019
   19  0.005  0.000  0.020  0.025
   20  0.000  0.001  0.019  0.020
   21  0.004  0.001  0.030  0.035
   22  0.016  0.001  0.020  0.036
   23  0.004  0.001  0.030  0.034
   24  0.000  0.001  0.041  0.042
   25  0.000  0.000  0.051  0.051
   26  0.005  0.000  0.020  0.025
   27  0.016  0.001  0.020  0.036
   28  0.000  0.000  0.003  0.003
   29  0.000  0.000  0.002  0.002
   30  0.002  0.000  0.003  0.005
   31  0.000  0.000  0.002  0.002
   32  0.001  0.000  0.003  0.003
   33  0.002  0.000  0.003  0.005
   34  0.001  0.000  0.003  0.003
   35  0.000  0.000  0.007  0.008
   36  0.000  0.000  0.000  0.000
   37  0.000  0.000  0.000  0.000
tot    0.124  0.017  0.663  0.803
 
band    11 # energy   -5.52179423 # occ.  2.00000000
 
ion      s      p      d    tot
    1  0.001  0.001  0.017  0.018
    2  0.000  0.000  0.009  0.009
    3  0.000  0.000  0.009  0.009
    4  0.000  0.000  0.009  0.009
    5  0.000  0.000  0.002  0.003
    6  0.000  0.000  0.009  0.009
    7  0.000  0.000  0.009  0.009
    8  0.000  0.000  0.009  0.009
    9  0.009  0.001  0.000  0.010
   10  0.007  0.000  0.049  0.055
   11  0.000  0.000  0.062  0.063
   12  0.007  0.000  0.049  0.056
   13  0.000  0.000  0.062  0.063
   14  0.000  0.000  0.062  0.063
   15  0.005  0.000  0.007  0.013
   16  0.007  0.000  0.049  0.056
   17  0.005  0.000  0.007  0.013
   18  0.005  0.000  0.007  0.013
   19  0.002  0.000  0.010  0.012
   20  0.003  0.000  0.033  0.036
   21  0.003  0.000  0.033  0.036
   22  0.000  0.000  0.038  0.039
   23  0.003  0.000  0.033  0.036
   24  0.000  0.000  0.038  0.039
   25  0.002  0.000  0.010  0.012
   26  0.002  0.000  0.010  0.012
   27  0.000  0.000  0.038  0.039
   28  0.007  0.001  0.000  0.008
   29  0.001  0.000  0.010  0.011
   30  0.001  0.000  0.010  0.011
   31  0.001  0.000  0.010  0.011
   32  0.001  0.000  0.010  0.011
   33  0.001  0.000  0.010  0.011
   34  0.001  0.000  0.010  0.011
   35  0.001  0.000  0.011  0.012
   36  0.002  0.001  0.000  0.003
   37  0.000  0.000  0.000  0.000
tot    0.079  0.009  0.744  0.832
 
band    12 # energy   -5.50074356 # occ.  2.00000000
 
ion      s      p      d    tot
    1  0.003  0.000  0.003  0.005
    2  0.000  0.000  0.009  0.010
    3  0.000  0.000  0.009  0.010
    4  0.000  0.000  0.010  0.010
    5  0.003  0.001  0.001  0.005
    6  0.000  0.000  0.010  0.010
    7  0.000  0.000  0.009  0.010
    8  0.000  0.000  0.010  0.010
    9  0.000  0.000  0.012  0.013
   10  0.001  0.000  0.054  0.055
   11  0.005  0.000  0.003  0.008
   12  0.001  0.000  0.054  0.054
   13  0.005  0.000  0.003  0.008
   14  0.005  0.000  0.003  0.008
   15  0.004  0.000  0.067  0.070
   16  0.001  0.000  0.054  0.054
   17  0.004  0.000  0.067  0.070
   18  0.004  0.000  0.066  0.070
   19  0.001  0.000  0.048  0.049
   20  0.002  0.000  0.021  0.023
   21  0.002  0.000  0.021  0.023
   22  0.001  0.000  0.032  0.032
   23  0.002  0.000  0.021  0.023
   24  0.001  0.000  0.032  0.032
   25  0.001  0.000  0.048  0.049
   26  0.001  0.000  0.048  0.049
   27  0.001  0.000  0.031  0.032
   28  0.000  0.000  0.005  0.005
   29  0.000  0.000  0.007  0.007
   30  0.000  0.000  0.007  0.007
   31  0.000  0.000  0.007  0.007
   32  0.000  0.000  0.007  0.007
   33  0.000  0.000  0.007  0.007
   34  0.000  0.000  0.007  0.007
   35  0.004  0.000  0.001  0.005
   36  0.001  0.001  0.001  0.003
   37  0.000  0.000  0.000  0.000
tot    0.048  0.008  0.791  0.848
 
band    13 # energy   -5.50010826 # occ.  2.00000000
 
ion      s      p      d    tot
    1  0.000  0.000  0.016  0.017
    2  0.002  0.000  0.006  0.008
    3  0.000  0.000  0.011  0.011
    4  0.002  0.000  0.006  0.008
    5  0.000  0.000  0.006  0.006
    6  0.002  0.001  0.007  0.009
    7  0.000  0.000  0.011  0.011
    8  0.002  0.001  0.007  0.009
    9  0.000  0.000  0.007  0.007
   10  0.000  0.000  0.066  0.066
   11  0.000  0.000  0.038  0.038
   12  0.010  0.000  0.040  0.050
   13  0.000  0.000  0.039  0.039
   14  0.000  0.001  0.013  0.013
   15  0.008  0.000  0.033  0.041
   16  0.010  0.000  0.041  0.051
   17  0.008  0.000  0.031  0.040
   18  0.000  0.000  0.110  0.110
   19  0.001  0.000  0.029  0.031
   20  0.000  0.000  0.049  0.049
   21  0.002  0.000  0.019  0.021
   22  0.000  0.000  0.026  0.026
   23  0.002  0.000  0.019  0.021
   24  0.000  0.000  0.011  0.011
   25  0.000  0.000  0.040  0.040
   26  0.001  0.000  0.029  0.030
   27  0.000  0.000  0.026  0.026
   28  0.000  0.000  0.012  0.012
   29  0.000  0.000  0.005  0.006
   30  0.002  0.000  0.004  0.006
   31  0.000  0.000  0.005  0.006
   32  0.001  0.000  0.004  0.005
   33  0.002  0.000  0.004  0.006
   34  0.001  0.000  0.004  0.005
   35  0.000  0.000  0.005  0.005
   36  0.000  0.000  0.000  0.001
   37  0.000  0.000  0.000  0.000
tot    0.057  0.008  0.777  0.843
 
band    14 # energy   -5.50007996 # occ.  2.00000000
 
ion      s      p      d    tot
    1  0.000  0.000  0.016  0.017
    2  0.001  0.001  0.010  0.011
    3  0.003  0.001  0.005  0.008
    4  0.001  0.001  0.010  0.011
    5  0.000  0.000  0.006  0.006
    6  0.001  0.000  0.009  0.010
    7  0.003  0.001  0.005  0.008
    8  0.001  0.000  0.009  0.010
    9  0.000  0.000  0.007  0.007
   10  0.013  0.000  0.032  0.045
   11  0.000  0.000  0.021  0.022
   12  0.003  0.000  0.057  0.061
   13  0.000  0.000  0.021  0.021
   14  0.000  0.000  0.047  0.047
   15  0.003  0.000  0.084  0.086
   16  0.003  0.000  0.057  0.061
   17  0.003  0.000  0.085  0.087
   18  0.011  0.000  0.006  0.017
   19  0.000  0.000  0.037  0.037
   20  0.003  0.000  0.009  0.012
   21  0.001  0.000  0.039  0.040
   22  0.000  0.000  0.016  0.016
   23  0.001  0.000  0.039  0.040
   24  0.000  0.000  0.030  0.031
   25  0.001  0.000  0.025  0.027
   26  0.000  0.000  0.037  0.037
   27  0.000  0.000  0.016  0.016
   28  0.000  0.000  0.012  0.012
   29  0.002  0.000  0.003  0.005
   30  0.000  0.000  0.005  0.005
   31  0.002  0.000  0.003  0.005
   32  0.001  0.000  0.005  0.006
   33  0.000  0.000  0.005  0.005
   34  0.001  0.000  0.005  0.006
   35  0.000  0.000  0.005  0.005
   36  0.000  0.000  0.000  0.001
   37  0.000  0.000  0.000  0.000
tot    0.057  0.008  0.777  0.843
 
band    15 # energy   -5.48486120 # occ.  2.00000000
 
ion      s      p      d    tot
    1  0.000  0.000  0.006  0.006
    2  0.004  0.000  0.006  0.010
    3  0.000  0.000  0.010  0.010
    4  0.004  0.000  0.006  0.010
    5  0.000  0.000  0.012  0.012
    6  0.002  0.001  0.008  0.010
    7  0.000  0.000  0.010  0.010
    8  0.002  0.001  0.008  0.010
    9  0.000  0.000  0.019  0.019
   10  0.006  0.000  0.018  0.024
   11  0.002  0.000  0.048  0.050
   12  0.001  0.000  0.035  0.037
   13  0.002  0.000  0.047  0.049
   14  0.007  0.000  0.012  0.020
   15  0.000  0.000  0.025  0.025
   16  0.001  0.000  0.036  0.037
   17  0.000  0.000  0.026  0.026
   18  0.000  0.000  0.043  0.043
   19  0.002  0.000  0.059  0.061
   20  0.000  0.000  0.047  0.047
   21  0.000  0.000  0.022  0.022
   22  0.003  0.000  0.057  0.060
   23  0.000  0.000  0.022  0.022
   24  0.012  0.000  0.019  0.031
   25  0.007  0.000  0.009  0.016
   26  0.002  0.000  0.058  0.060
   27  0.003  0.000  0.057  0.061
   28  0.000  0.000  0.004  0.004
   29  0.000  0.000  0.007  0.007
   30  0.001  0.000  0.002  0.003
   31  0.000  0.000  0.007  0.007
   32  0.001  0.001  0.007  0.009
   33  0.001  0.000  0.002  0.003
   34  0.001  0.001  0.007  0.009
   35  0.000  0.000  0.008  0.008
   36  0.000  0.000  0.001  0.001
   37  0.000  0.000  0.000  0.000
tot    0.066  0.008  0.767  0.841
 
band    16 # energy   -5.48481838 # occ.  2.00000000
 
ion      s      p      d    tot
    1  0.000  0.000  0.006  0.006
    2  0.000  0.000  0.010  0.010
    3  0.003  0.001  0.006  0.010
    4  0.000  0.000  0.010  0.010
    5  0.000  0.000  0.012  0.012
    6  0.002  0.000  0.008  0.011
    7  0.003  0.001  0.006  0.010
    8  0.002  0.000  0.008  0.011
    9  0.000  0.000  0.019  0.019
   10  0.000  0.000  0.041  0.041
   11  0.006  0.000  0.024  0.029
   12  0.004  0.000  0.024  0.029
   13  0.006  0.000  0.024  0.030
   14  0.000  0.000  0.060  0.060
   15  0.000  0.000  0.037  0.038
   16  0.004  0.000  0.024  0.028
   17  0.000  0.000  0.037  0.037
   18  0.000  0.000  0.019  0.020
   19  0.006  0.000  0.025  0.030
   20  0.000  0.000  0.013  0.014
   21  0.000  0.000  0.038  0.039
   22  0.009  0.000  0.032  0.041
   23  0.000  0.000  0.039  0.039
   24  0.000  0.000  0.070  0.070
   25  0.000  0.000  0.076  0.076
   26  0.005  0.000  0.026  0.031
   27  0.009  0.000  0.031  0.041
   28  0.000  0.000  0.004  0.004
   29  0.002  0.001  0.003  0.006
   30  0.000  0.000  0.009  0.009
   31  0.002  0.001  0.003  0.006
   32  0.001  0.000  0.003  0.004
   33  0.000  0.000  0.009  0.009
   34  0.001  0.000  0.003  0.004
   35  0.000  0.000  0.008  0.008
   36  0.000  0.000  0.001  0.001
   37  0.000  0.000  0.000  0.000
tot    0.066  0.008  0.767  0.841
 
band    17 # energy   -5.42061507 # occ.  2.00000000
 
ion      s      p      d    tot
    1  0.004  0.000  0.002  0.006
    2  0.001  0.000  0.008  0.009
    3  0.001  0.000  0.008  0.009
    4  0.001  0.000  0.008  0.009
    5  0.002  0.000  0.013  0.014
    6  0.001  0.000  0.008  0.009
    7  0.001  0.000  0.008  0.009
    8  0.001  0.000  0.008  0.009
    9  0.000  0.000  0.007  0.007
   10  0.000  0.000  0.008  0.008
   11  0.002  0.000  0.013  0.015
   12  0.000  0.000  0.008  0.008
   13  0.002  0.000  0.013  0.015
   14  0.002  0.000  0.013  0.015
   15  0.003  0.000  0.008  0.011
   16  0.000  0.000  0.008  0.008
   17  0.003  0.000  0.008  0.011
   18  0.003  0.000  0.008  0.011
   19  0.001  0.001  0.014  0.015
   20  0.000  0.001  0.021  0.022
   21  0.000  0.001  0.021  0.022
   22  0.000  0.001  0.020  0.021
   23  0.000  0.001  0.021  0.022
   24  0.000  0.001  0.020  0.021
   25  0.001  0.001  0.014  0.015
   26  0.001  0.001  0.014  0.015
   27  0.000  0.001  0.020  0.021
   28  0.016  0.000  0.040  0.056
   29  0.015  0.000  0.033  0.049
   30  0.015  0.000  0.033  0.049
   31  0.015  0.000  0.033  0.049
   32  0.015  0.000  0.033  0.049
   33  0.015  0.000  0.033  0.049
   34  0.015  0.000  0.033  0.049
   35  0.020  0.000  0.034  0.054
   36  0.004  0.001  0.011  0.017
   37  0.004  0.000  0.000  0.004
tot    0.169  0.010  0.603  0.782
 
band    18 # energy   -5.35173391 # occ.  2.00000000
 
ion      s      p      d    tot
    1  0.001  0.000  0.000  0.001
    2  0.000  0.000  0.006  0.007
    3  0.000  0.000  0.006  0.007
    4  0.000  0.000  0.006  0.007
    5  0.000  0.000  0.014  0.014
    6  0.000  0.000  0.006  0.007
    7  0.000  0.000  0.006  0.007
    8  0.000  0.000  0.006  0.007
    9  0.001  0.001  0.008  0.010
   10  0.000  0.000  0.015  0.015
   11  0.000  0.000  0.066  0.067
   12  0.000  0.000  0.014  0.015
   13  0.000  0.000  0.066  0.067
   14  0.000  0.000  0.066  0.066
   15  0.000  0.001  0.044  0.045
   16  0.000  0.000  0.014  0.015
   17  0.000  0.001  0.044  0.045
   18  0.000  0.001  0.044  0.045
   19  0.000  0.000  0.020  0.021
   20  0.001  0.000  0.070  0.071
   21  0.001  0.001  0.070  0.071
   22  0.002  0.000  0.023  0.025
   23  0.001  0.001  0.070  0.071
   24  0.002  0.000  0.023  0.025
   25  0.000  0.000  0.020  0.021
   26  0.000  0.000  0.020  0.021
   27  0.002  0.000  0.023  0.025
   28  0.005  0.001  0.000  0.006
   29  0.000  0.000  0.010  0.010
   30  0.000  0.000  0.010  0.010
   31  0.000  0.000  0.010  0.010
   32  0.000  0.000  0.010  0.010
   33  0.000  0.000  0.010  0.010
   34  0.000  0.000  0.010  0.010
   35  0.000  0.000  0.001  0.001
   36  0.001  0.002  0.002  0.004
   37  0.001  0.000  0.000  0.001
tot    0.021  0.014  0.834  0.870
 
band    19 # energy   -5.33455680 # occ.  2.00000000
 
ion      s      p      d    tot
    1  0.000  0.000  0.001  0.001
    2  0.000  0.000  0.007  0.008
    3  0.001  0.001  0.005  0.007
    4  0.000  0.000  0.008  0.008
    5  0.000  0.001  0.015  0.016
    6  0.001  0.000  0.010  0.011
    7  0.001  0.001  0.005  0.007
    8  0.001  0.001  0.009  0.011
    9  0.000  0.000  0.012  0.012
   10  0.000  0.000  0.032  0.032
   11  0.001  0.000  0.051  0.053
   12  0.000  0.001  0.025  0.027
   13  0.001  0.000  0.057  0.058
   14  0.000  0.000  0.097  0.097
   15  0.002  0.001  0.036  0.038
   16  0.000  0.001  0.024  0.026
   17  0.002  0.001  0.033  0.035
   18  0.000  0.000  0.013  0.013
   19  0.002  0.001  0.028  0.031
   20  0.000  0.000  0.086  0.086
   21  0.002  0.000  0.056  0.059
   22  0.000  0.001  0.025  0.026
   23  0.003  0.000  0.052  0.055
   24  0.000  0.000  0.037  0.037
   25  0.000  0.000  0.004  0.004
   26  0.002  0.001  0.025  0.027
   27  0.000  0.001  0.023  0.024
   28  0.000  0.000  0.008  0.009
   29  0.001  0.001  0.007  0.009
   30  0.002  0.001  0.004  0.007
   31  0.001  0.001  0.007  0.009
   32  0.000  0.000  0.006  0.007
   33  0.002  0.001  0.004  0.007
   34  0.000  0.000  0.006  0.006
   35  0.000  0.000  0.001  0.001
   36  0.000  0.001  0.003  0.004
   37  0.000  0.000  0.000  0.000
tot    0.026  0.016  0.822  0.863
 
band    20 # energy   -5.33455189 # occ.  2.00000000
 
ion      s      p      d    tot
    1  0.000  0.000  0.001  0.001
    2  0.001  0.001  0.008  0.010
    3  0.000  0.000  0.010  0.010
    4  0.001  0.001  0.007  0.009
    5  0.000  0.001  0.015  0.016
    6  0.001  0.000  0.005  0.006
    7  0.000  0.000  0.009  0.010
    8  0.001  0.000  0.006  0.007
    9  0.000  0.000  0.012  0.012
   10  0.000  0.001  0.023  0.025
   11  0.000  0.000  0.086  0.086
   12  0.000  0.001  0.028  0.029
   13  0.000  0.000  0.080  0.080
   14  0.002  0.000  0.040  0.041
   15  0.000  0.000  0.019  0.019
   16  0.000  0.000  0.029  0.030
   17  0.001  0.000  0.022  0.023
   18  0.002  0.001  0.042  0.045
   19  0.001  0.000  0.010  0.011
   20  0.003  0.000  0.044  0.047
   21  0.001  0.000  0.073  0.074
   22  0.000  0.000  0.032  0.033
   23  0.001  0.000  0.077  0.078
   24  0.000  0.001  0.019  0.020
   25  0.003  0.001  0.033  0.037
   26  0.001  0.000  0.013  0.014
   27  0.000  0.000  0.034  0.034
   28  0.000  0.000  0.008  0.009
   29  0.001  0.000  0.005  0.006
   30  0.000  0.000  0.007  0.008
   31  0.001  0.000  0.005  0.006
   32  0.002  0.001  0.005  0.008
   33  0.000  0.000  0.007  0.008
   34  0.002  0.001  0.005  0.008
   35  0.000  0.000  0.001  0.001
   36  0.000  0.001  0.003  0.004
   37  0.000  0.000  0.000  0.000
tot    0.026  0.016  0.822  0.863
 
band    21 # energy   -5.32952197 # occ.  2.00000000
 
ion      s      p      d    tot
    1  0.000  0.000  0.007  0.008
    2  0.000  0.000  0.011  0.011
    3  0.000  0.000  0.011  0.012
    4  0.000  0.000  0.011  0.011
    5  0.004  0.001  0.001  0.006
    6  0.000  0.000  0.011  0.011
    7  0.000  0.000  0.011  0.012
    8  0.000  0.000  0.011  0.011
    9  0.002  0.000  0.003  0.005
   10  0.002  0.001  0.054  0.056
   11  0.000  0.000  0.028  0.028
   12  0.002  0.001  0.055  0.057
   13  0.000  0.000  0.028  0.028
   14  0.000  0.000  0.028  0.028
   15  0.002  0.000  0.026  0.028
   16  0.002  0.001  0.055  0.057
   17  0.002  0.000  0.026  0.028
   18  0.002  0.000  0.027  0.029
   19  0.002  0.001  0.051  0.053
   20  0.001  0.000  0.016  0.017
   21  0.001  0.000  0.017  0.018
   22  0.000  0.001  0.044  0.045
   23  0.001  0.000  0.017  0.018
   24  0.000  0.001  0.045  0.046
   25  0.002  0.001  0.052  0.054
   26  0.002  0.001  0.051  0.053
   27  0.000  0.001  0.044  0.045
   28  0.000  0.000  0.011  0.011
   29  0.000  0.000  0.009  0.010
   30  0.000  0.000  0.009  0.010
   31  0.000  0.000  0.009  0.010
   32  0.000  0.000  0.009  0.010
   33  0.000  0.000  0.009  0.010
   34  0.000  0.000  0.009  0.010
   35  0.003  0.001  0.004  0.008
   36  0.002  0.000  0.000  0.003