 vasp.6.2.0 18Jan21 (build Jun 12 2021 23:27:24) complex                        
  
 executed on             LinuxIFC date 2022.05.28  00:42:57
 running on   28 total cores
 distrk:  each k-point on   28 cores,    1 groups
 distr:  one band on NCORE=   1 cores,   28 groups


--------------------------------------------------------------------------------------------------------


 INCAR:
   ISMEAR = -5
   SIGMA = 0.1
   ISPIN = 1
   EDIFF = 1.d-5
   EDIFFG = -0.01
   NSW = 0
   NELM = 150
   ENCUT = 500
   ISIF = 2
   IBRION = 2
   LREAL = Auto
   ALGO = Fast
   ICHARG = 11
   LORBIT = 10
   LCHARG = .F.
   LWAVE = .F.

 POTCAR:    PAW_PBE Au 04Oct2007                  
 POTCAR:    PAW_PBE Fe 06Sep2000                  
 POTCAR:    PAW_PBE H 15Jun2001                   
 POTCAR:    PAW_PBE O 08Apr2002                   
 -----------------------------------------------------------------------------
|                                                                             |
|           W    W    AA    RRRRR   N    N  II  N    N   GGGG   !!!           |
|           W    W   A  A   R    R  NN   N  II  NN   N  G    G  !!!           |
|           W    W  A    A  R    R  N N  N  II  N N  N  G       !!!           |
|           W WW W  AAAAAA  RRRRR   N  N N  II  N  N N  G  GGG   !            |
|           WW  WW  A    A  R   R   N   NN  II  N   NN  G    G                |
|           W    W  A    A  R    R  N    N  II  N    N   GGGG   !!!           |
|                                                                             |
|     For optimal performance we recommend to set                             |
|       NCORE = 2 up to number-of-cores-per-socket                            |
|     NCORE specifies how many cores store one orbital (NPAR=cpu/NCORE).      |
|     This setting can greatly improve the performance of VASP for DFT.       |
|     The default, NCORE=1 might be grossly inefficient on modern             |
|     multi-core architectures or massively parallel machines. Do your        |
|     own testing! More info at https://www.vasp.at/wiki/index.php/NCORE      |
|     Unfortunately you need to use the default for GW and RPA                |
|     calculations (for HF NCORE is supported but not extensively tested      |
|     yet).                                                                   |
|                                                                             |
 -----------------------------------------------------------------------------

 POTCAR:    PAW_PBE Au 04Oct2007                  
   VRHFIN =Au: s1d10                                                                                
   LEXCH  = PE                                                                                      
   EATOM  =   926.0867 eV,   68.0654 Ry                                                             
                                                                                                    
   TITEL  = PAW_PBE Au 04Oct2007                                                                    
   LULTRA =        F    use ultrasoft PP ?                                                          
   IUNSCR =        1    unscreen: 0-lin 1-nonlin 2-no                                               
   RPACOR =    2.330    partial core radius                                                         
   POMASS =  196.966; ZVAL   =   11.000    mass and valenz                                          
   RCORE  =    2.500    outmost cutoff radius                                                       
   RWIGS  =    2.840; RWIGS  =    1.503    wigner-seitz radius (au A)                               
   ENMAX  =  229.943; ENMIN  =  172.457 eV                                                          
   ICORE  =        3    local potential                                                             
   LCOR   =        T    correct aug charges                                                         
   LPAW   =        T    paw PP                                                                      
   EAUG   =  356.670                                                                                
   DEXC   =    0.000                                                                                
   RMAX   =    2.562    core radius for proj-oper                                                   
   RAUG   =    1.300    factor for augmentation sphere                                              
   RDEP   =    2.598    radius for radial grids                                                     
   RDEPT  =    2.193    core radius for aug-charge                                                  
                                                                                                    
   Atomic configuration                                                                             
   16 entries                                                                                       
     n  l   j            E        occ.                                                              
     1  0  0.50    -80748.5001   2.0000                                                             
     2  0  0.50    -14244.7466   2.0000                                                             
     2  1  1.50    -12310.9591   6.0000                                                             
     3  0  0.50     -3362.1768   2.0000                                                             
     3  1  1.50     -2801.5463   6.0000                                                             
     3  2  2.50     -2203.8206  10.0000                                                             
     4  0  0.50      -729.8168   2.0000                                                             
     4  1  1.50      -546.0527   6.0000                                                             
     4  2  2.50      -325.7302  10.0000                                                             
     4  3  3.50       -81.1472  14.0000                                                             
     5  0  0.50      -108.3201   2.0000                                                             
     5  1  1.50       -59.7479   6.0000                                                             
     5  2  2.50        -6.8783  10.0000                                                             
     6  0  0.50        -5.7602   1.0000                                                             
     6  1  1.50        -6.8029   0.0000                                                             
     5  3  2.50        -1.3606   0.0000                                                             
   Description                                                                                      
     l       E           TYP  RCUT    TYP  RCUT                                                     
     2     -6.8782861     23  2.500                                                                 
     2     -8.2388687     23  2.500                                                                 
     0     -5.7601759     23  2.500                                                                 
     0     -0.8493231     23  2.500                                                                 
     1     -2.7211652     23  2.500                                                                 
     1     27.2116520     23  2.500                                                                 
     3     -1.3605826     23  2.500                                                                 
  local pseudopotential read in
  partial core-charges read in
  partial kinetic energy density read in
  atomic valenz-charges read in
  non local Contribution for L=           2  read in
    real space projection operators read in
  non local Contribution for L=           2  read in
    real space projection operators read in
  non local Contribution for L=           0  read in
    real space projection operators read in
  non local Contribution for L=           0  read in
    real space projection operators read in
  non local Contribution for L=           1  read in
    real space projection operators read in
  non local Contribution for L=           1  read in
    real space projection operators read in
    PAW grid and wavefunctions read in
 
   number of l-projection  operators is LMAX  =           6
   number of lm-projection operators is LMMAX =          18
 
 POTCAR:    PAW_PBE Fe 06Sep2000                  
   VRHFIN =Fe:  d7 s1                                                                               
   LEXCH  = PE                                                                                      
   EATOM  =   594.3153 eV,   43.6809 Ry                                                             
                                                                                                    
   TITEL  = PAW_PBE Fe 06Sep2000                                                                    
   LULTRA =        F    use ultrasoft PP ?                                                          
   IUNSCR =        1    unscreen: 0-lin 1-nonlin 2-no                                               
   RPACOR =    2.000    partial core radius                                                         
   POMASS =   55.847; ZVAL   =    8.000    mass and valenz                                          
   RCORE  =    2.300    outmost cutoff radius                                                       
   RWIGS  =    2.460; RWIGS  =    1.302    wigner-seitz radius (au A)                               
   ENMAX  =  267.882; ENMIN  =  200.911 eV                                                          
   RCLOC  =    1.701    cutoff for local pot                                                        
   LCOR   =        T    correct aug charges                                                         
   LPAW   =        T    paw PP                                                                      
   EAUG   =  511.368                                                                                
   DEXC   =    0.000                                                                                
   RMAX   =    2.356    core radius for proj-oper                                                   
   RAUG   =    1.300    factor for augmentation sphere                                              
   RDEP   =    2.442    radius for radial grids                                                     
   RDEPT  =    1.890    core radius for aug-charge                                                  
                                                                                                    
   Atomic configuration                                                                             
    9 entries                                                                                       
     n  l   j            E        occ.                                                              
     1  0  0.50     -6993.8440   2.0000                                                             
     2  0  0.50      -814.6047   2.0000                                                             
     2  1  1.50      -693.3689   6.0000                                                             
     3  0  0.50       -89.4732   2.0000                                                             
     3  1  1.50       -55.6373   6.0000                                                             
     3  2  2.50        -3.8151   7.0000                                                             
     4  0  0.50        -4.2551   1.0000                                                             
     4  1  1.50        -3.4015   0.0000                                                             
     4  3  2.50        -1.3606   0.0000                                                             
   Description                                                                                      
     l       E           TYP  RCUT    TYP  RCUT                                                     
     2     -3.8151135     23  2.300                                                                 
     2     -5.1756961     23  2.300                                                                 
     0     -4.2550963     23  2.300                                                                 
     0      7.2035603     23  2.300                                                                 
     1     -2.7211652     23  2.300                                                                 
     1     18.4316424     23  2.300                                                                 
  local pseudopotential read in
  partial core-charges read in
  partial kinetic energy density read in
  atomic valenz-charges read in
  non local Contribution for L=           2  read in
    real space projection operators read in
  non local Contribution for L=           2  read in
    real space projection operators read in
  non local Contribution for L=           0  read in
    real space projection operators read in
  non local Contribution for L=           0  read in
    real space projection operators read in
  non local Contribution for L=           1  read in
    real space projection operators read in
  non local Contribution for L=           1  read in
    real space projection operators read in
    PAW grid and wavefunctions read in
 
   number of l-projection  operators is LMAX  =           6
   number of lm-projection operators is LMMAX =          18
 
 POTCAR:    PAW_PBE H 15Jun2001                   
   VRHFIN =H: ultrasoft test                                                                        
   LEXCH  = PE                                                                                      
   EATOM  =    12.4884 eV,    0.9179 Ry                                                             
                                                                                                    
   TITEL  = PAW_PBE H 15Jun2001                                                                     
   LULTRA =        F    use ultrasoft PP ?                                                          
   IUNSCR =        0    unscreen: 0-lin 1-nonlin 2-no                                               
   RPACOR =    0.000    partial core radius                                                         
   POMASS =    1.000; ZVAL   =    1.000    mass and valenz                                          
   RCORE  =    1.100    outmost cutoff radius                                                       
   RWIGS  =    0.700; RWIGS  =    0.370    wigner-seitz radius (au A)                               
   ENMAX  =  250.000; ENMIN  =  200.000 eV                                                          
   RCLOC  =    0.701    cutoff for local pot                                                        
   LCOR   =        T    correct aug charges                                                         
   LPAW   =        T    paw PP                                                                      
   EAUG   =  400.000                                                                                
   RMAX   =    1.123    core radius for proj-oper                                                   
   RAUG   =    1.200    factor for augmentation sphere                                              
   RDEP   =    1.112    radius for radial grids                                                     
   RDEPT  =    0.926    core radius for aug-charge                                                  
                                                                                                    
   Atomic configuration                                                                             
    2 entries                                                                                       
     n  l   j            E        occ.                                                              
     1  0  0.50        -6.4927   1.0000                                                             
     2  1  0.50        -3.4015   0.0000                                                             
   Description                                                                                      
     l       E           TYP  RCUT    TYP  RCUT                                                     
     0     -6.4927494     23  1.100                                                                 
     0      6.8029130     23  1.100                                                                 
     1     -4.0817478     23  1.100                                                                 
  local pseudopotential read in
  atomic valenz-charges read in
  non local Contribution for L=           0  read in
    real space projection operators read in
  non local Contribution for L=           0  read in
    real space projection operators read in
  non local Contribution for L=           1  read in
    real space projection operators read in
    PAW grid and wavefunctions read in
 
   number of l-projection  operators is LMAX  =           3
   number of lm-projection operators is LMMAX =           5
 
 POTCAR:    PAW_PBE O 08Apr2002                   
   VRHFIN =O: s2p4                                                                                  
   LEXCH  = PE                                                                                      
   EATOM  =   432.3788 eV,   31.7789 Ry                                                             
                                                                                                    
   TITEL  = PAW_PBE O 08Apr2002                                                                     
   LULTRA =        F    use ultrasoft PP ?                                                          
   IUNSCR =        1    unscreen: 0-lin 1-nonlin 2-no                                               
   RPACOR =    1.200    partial core radius                                                         
   POMASS =   16.000; ZVAL   =    6.000    mass and valenz                                          
   RCORE  =    1.520    outmost cutoff radius                                                       
   RWIGS  =    1.550; RWIGS  =    0.820    wigner-seitz radius (au A)                               
   ENMAX  =  400.000; ENMIN  =  300.000 eV                                                          
   ICORE  =        2    local potential                                                             
   LCOR   =        T    correct aug charges                                                         
   LPAW   =        T    paw PP                                                                      
   EAUG   =  605.392                                                                                
   DEXC   =    0.000                                                                                
   RMAX   =    1.553    core radius for proj-oper                                                   
   RAUG   =    1.300    factor for augmentation sphere                                              
   RDEP   =    1.550    radius for radial grids                                                     
   RDEPT  =    1.329    core radius for aug-charge                                                  
                                                                                                    
   Atomic configuration                                                                             
    4 entries                                                                                       
     n  l   j            E        occ.                                                              
     1  0  0.50      -514.6923   2.0000                                                             
     2  0  0.50       -23.9615   2.0000                                                             
     2  1  0.50        -9.0305   4.0000                                                             
     3  2  1.50        -9.5241   0.0000                                                             
   Description                                                                                      
     l       E           TYP  RCUT    TYP  RCUT                                                     
     0    -23.9615318     23  1.200                                                                 
     0     -9.5240782     23  1.200                                                                 
     1     -9.0304911     23  1.520                                                                 
     1      8.1634956     23  1.520                                                                 
     2     -9.5240782      7  1.500                                                                 
  local pseudopotential read in
  partial core-charges read in
  partial kinetic energy density read in
  kinetic energy density of atom read in
  atomic valenz-charges read in
  non local Contribution for L=           0  read in
    real space projection operators read in
  non local Contribution for L=           0  read in
    real space projection operators read in
  non local Contribution for L=           1  read in
    real space projection operators read in
  non local Contribution for L=           1  read in
    real space projection operators read in
    PAW grid and wavefunctions read in
 
   number of l-projection  operators is LMAX  =           4
   number of lm-projection operators is LMMAX =           8
 
 Optimization of the real space projectors (new method)

 maximal supplied QI-value         = 15.12
 optimisation between [QCUT,QGAM] = [ 11.34, 22.83] = [ 36.00,145.93] Ry 
 Optimized for a Real-space Cutoff    1.39 Angstroem

   l    n(q)    QCUT    max X(q) W(low)/X(q) W(high)/X(q)  e(spline) 
   2      9    11.338    60.898    0.39E-03    0.42E-03    0.21E-06
   2      9    11.338    58.894    0.40E-03    0.42E-03    0.22E-06
   0      9    11.338   109.617    0.13E-03    0.20E-04    0.13E-06
   0      9    11.338    75.026    0.13E-03    0.20E-04    0.13E-06
   1      9    11.338    16.344    0.33E-04    0.24E-03    0.18E-06
   1      9    11.338    10.160    0.26E-04    0.19E-03    0.15E-06
 Optimization of the real space projectors (new method)

 maximal supplied QI-value         = 16.25
 optimisation between [QCUT,QGAM] = [ 11.38, 22.75] = [ 36.24,144.96] Ry 
 Optimized for a Real-space Cutoff    1.39 Angstroem

   l    n(q)    QCUT    max X(q) W(low)/X(q) W(high)/X(q)  e(spline) 
   2      8    11.376    80.901    0.45E-03    0.44E-04    0.21E-06
   2      8    11.376    75.754    0.45E-03    0.45E-04    0.22E-06
   0      9    11.376    58.752    0.65E-04    0.95E-04    0.17E-06
   0      9    11.376    30.679    0.59E-04    0.87E-04    0.16E-06
   1      9    11.376    17.977    0.38E-03    0.10E-03    0.14E-06
   1      9    11.376    13.559    0.31E-03    0.90E-04    0.12E-06
 Optimization of the real space projectors (new method)

 maximal supplied QI-value         = 34.20
 optimisation between [QCUT,QGAM] = [ 11.29, 22.57] = [ 35.68,142.71] Ry 
 Optimized for a Real-space Cutoff    1.16 Angstroem

   l    n(q)    QCUT    max X(q) W(low)/X(q) W(high)/X(q)  e(spline) 
   0      8    11.287    19.460    0.40E-03    0.73E-03    0.16E-06
   0      8    11.287    12.209    0.38E-03    0.70E-03    0.15E-06
   1      7    11.287     4.655    0.22E-03    0.25E-04    0.22E-06
 Optimization of the real space projectors (new method)

 maximal supplied QI-value         = 24.76
 optimisation between [QCUT,QGAM] = [ 11.39, 22.77] = [ 36.31,145.25] Ry 
 Optimized for a Real-space Cutoff    1.00 Angstroem

   l    n(q)    QCUT    max X(q) W(low)/X(q) W(high)/X(q)  e(spline) 
   0      7    11.387    20.381    0.39E-03    0.13E-02    0.15E-06
   0      7    11.387    15.268    0.42E-03    0.14E-02    0.17E-06
   1      6    11.387     5.964    0.41E-03    0.11E-02    0.17E-06
   1      6    11.387     5.382    0.39E-03    0.87E-03    0.15E-06
  PAW_PBE Au 04Oct2007                  :
 energy of atom  1       EATOM= -926.0867
 kinetic energy error for atom=    0.0042 (will be added to EATOM!!)
  PAW_PBE Fe 06Sep2000                  :
 energy of atom  2       EATOM= -594.3153
 kinetic energy error for atom=    0.0026 (will be added to EATOM!!)
  PAW_PBE H 15Jun2001                   :
 energy of atom  3       EATOM=  -12.4884
 kinetic energy error for atom=    0.0020 (will be added to EATOM!!)
  PAW_PBE O 08Apr2002                   :
 energy of atom  4       EATOM= -432.3788
 kinetic energy error for atom=    0.0224 (will be added to EATOM!!)
 
 
 POSCAR: Au-Fe-H2O
  positions in direct lattice
  velocities in cartesian coordinates
 exchange correlation table for  LEXCH =        8
   RHO(1)=    0.500       N(1)  =     2000
   RHO(2)=  100.500       N(2)  =     4000

 VTST: version 3.2, (02/03/18)

 CHAIN: initializing optimizer
 
 OPT: Using VASP Conjugate-Gradient optimizer
 CHAIN: Read ICHAIN            0
 
 POSCAR: Au-Fe-H2O
  positions in direct lattice
  velocities in cartesian coordinates
 


--------------------------------------------------------------------------------------------------------


 ion  position               nearest neighbor table
   1  0.000  0.000  0.213-  16 2.94  12 2.94   6 2.94   8 2.94   7 2.94   3 2.94  10 2.94   4 2.94
                             2 2.94
   2  0.333  0.000  0.213-   9 2.94  11 2.94  17 2.94  10 2.94   8 2.94   4 2.94   5 2.94   1 2.94
                             3 2.94
   3  0.667  0.000  0.213-   7 2.94  18 2.94  12 2.94   1 2.94  11 2.94   5 2.94   6 2.94   9 2.94
                             2 2.94
   4  0.000  0.333  0.213-  10 2.94   6 2.94   5 2.94  13 2.94   2 2.94  15 2.94   9 2.94   1 2.94
                             7 2.94
   5  0.333  0.333  0.213-  13 2.94   7 2.94  11 2.94   4 2.94   2 2.94  14 2.94   3 2.94   8 2.94
                             6 2.94
   6  0.667  0.333  0.213-  15 2.94  14 2.94   1 2.94  12 2.94   4 2.94   9 2.94   8 2.94   3 2.94
                             5 2.94
   7  0.000  0.667  0.213-  18 2.94   3 2.94  16 2.94   5 2.94   1 2.94  13 2.94   8 2.94   4 2.94
                             9 2.94
   8  0.333  0.667  0.213-   9 2.94  17 2.94   1 2.94   2 2.94  14 2.94  16 2.94   6 2.94   7 2.94
                             5 2.94
   9  0.667  0.667  0.213-   2 2.94   8 2.94  17 2.94   6 2.94  15 2.94   4 2.94   3 2.94  18 2.94
                             7 2.94
  10  0.111  0.111  0.310-  20 2.93  26 2.94  19 2.94  11 2.94  17 2.94   2 2.94   4 2.94   1 2.94
                            12 2.94  16 2.94  13 2.94  15 2.94
  11  0.444  0.111  0.310-  20 2.91  21 2.91  27 2.93  13 2.94   2 2.94  10 2.94  17 2.94   5 2.94
                             3 2.94  18 2.94  14 2.94  12 2.94
  12  0.778  0.111  0.310-  21 2.93  25 2.94  19 2.94  16 2.94  18 2.94   1 2.94  14 2.94  15 2.94
                             3 2.94   6 2.94  10 2.94  11 2.94
  13  0.111  0.444  0.310-  23 2.91  20 2.91  22 2.93   5 2.94  18 2.94  11 2.94   7 2.94   4 2.94
                            16 2.94  10 2.94  14 2.94  15 2.94
  14  0.444  0.444  0.310-  21 2.91  23 2.91  24 2.93  15 2.94   6 2.94  12 2.94   8 2.94  17 2.94
                             5 2.94  16 2.94  13 2.94  11 2.94
  15  0.778  0.444  0.310-  24 2.92  22 2.92  19 2.94  14 2.94   6 2.94  17 2.94  12 2.94   9 2.94
                             4 2.94  10 2.94  13 2.94  18 2.94
  16  0.111  0.778  0.310-  23 2.93  25 2.94  26 2.94  18 2.94  12 2.94   7 2.94   1 2.94   8 2.94
                            13 2.94  10 2.94  14 2.94  17 2.94
  17  0.444  0.778  0.310-  27 2.92  24 2.92  26 2.94   9 2.94  15 2.94   2 2.94  10 2.94  11 2.94
                             8 2.94  14 2.94  16 2.94  18 2.94
  18  0.778  0.778  0.310-  22 2.92  27 2.92  25 2.94  16 2.94   7 2.94  13 2.94  12 2.94   3 2.94
                            11 2.94   9 2.94  15 2.94  17 2.94
  19  0.889  0.222  0.407-  10 2.94  12 2.94  15 2.94  26 2.94  25 2.94  24 2.94  22 2.94  28 2.95
                            21 2.95  20 2.95  32 2.98  31 2.98
  20  0.223  0.223  0.406-  36 2.70  23 2.91  21 2.91  11 2.91  13 2.91  29 2.92  31 2.92  10 2.93
                            27 2.95  22 2.95  26 2.95  19 2.95
  21  0.553  0.223  0.406-  36 2.70  20 2.91  23 2.91  14 2.91  11 2.91  30 2.92  32 2.92  12 2.93
                            27 2.95  24 2.95  25 2.95  19 2.95
  22  0.887  0.557  0.407-  24 2.91  27 2.91  18 2.92  15 2.92  13 2.93  25 2.94  19 2.94  33 2.95
                            31 2.95  23 2.95  20 2.95  35 2.95
  23  0.223  0.553  0.406-  36 2.70  20 2.91  21 2.91  13 2.91  14 2.91  33 2.92  34 2.92  16 2.93
                            22 2.95  24 2.95  25 2.95  26 2.95
  24  0.557  0.557  0.407-  27 2.91  22 2.91  15 2.92  17 2.92  14 2.93  26 2.94  19 2.94  32 2.95
                            34 2.95  21 2.95  23 2.95  35 2.95
  25  0.889  0.889  0.407-  16 2.94  12 2.94  18 2.94  19 2.94  26 2.94  22 2.94  27 2.94  28 2.95
                            23 2.95  21 2.95  33 2.98  30 2.98
  26  0.222  0.889  0.407-  10 2.94  16 2.94  17 2.94  19 2.94  25 2.94  27 2.94  24 2.94  28 2.95
                            20 2.95  23 2.95  29 2.98  34 2.98
  27  0.557  0.887  0.407-  24 2.91  22 2.91  17 2.92  18 2.92  11 2.93  26 2.94  25 2.94  29 2.95
                            30 2.95  20 2.95  21 2.95  35 2.95
  28  0.000  0.000  0.505-  25 2.95  19 2.95  26 2.95  34 2.98  32 2.98  33 2.98  30 2.98  31 2.98
                            29 2.98
  29  0.333  0.010  0.504-  30 2.85  31 2.85  36 2.87  20 2.92  27 2.95  26 2.98  35 2.98  28 2.98
                            34 3.11
  30  0.657  0.010  0.504-  29 2.85  32 2.85  36 2.87  21 2.92  27 2.95  25 2.98  35 2.98  28 2.98
                            33 3.11
  31  0.010  0.333  0.504-  33 2.85  29 2.85  36 2.87  20 2.92  22 2.95  19 2.98  35 2.98  28 2.98
                            32 3.11
  32  0.657  0.333  0.504-  34 2.85  30 2.85  36 2.87  21 2.92  24 2.95  19 2.98  35 2.98  28 2.98
                            31 3.11
  33  0.010  0.657  0.504-  31 2.85  34 2.85  36 2.87  23 2.92  22 2.95  25 2.98  35 2.98  28 2.98
                            30 3.11
  34  0.333  0.657  0.504-  32 2.85  33 2.85  36 2.87  23 2.92  24 2.95  26 2.98  35 2.98  28 2.98
                            29 3.11
  35  0.667  0.667  0.505-  24 2.95  27 2.95  22 2.95  29 2.98  34 2.98  32 2.98  31 2.98  30 2.98
                            33 2.98
  36  0.333  0.333  0.491-  39 2.10  20 2.70  23 2.70  21 2.70  33 2.87  31 2.87  29 2.87  30 2.87
                            34 2.87  32 2.87
  37  0.280  0.261  0.585-  39 0.98
  38  0.458  0.261  0.585-  39 0.98
  39  0.333  0.334  0.576-  38 0.98  37 0.98  36 2.10
 
  LATTYP: Found a hexagonal cell.
 ALAT       =     8.8135128021
 C/A-ratio  =     2.8075332270
  
  Lattice vectors:
  
 A1 = (  -4.4067569092,  -7.6327256898,   0.0000000000)
 A2 = (   8.8135128021,   0.0000000000,   0.0000000000)
 A3 = (   0.0000000000,   0.0000000000,  24.7442300386)


Analysis of symmetry for initial positions (statically):
=====================================================================
 Subroutine PRICEL returns:
 Original cell was already a primitive cell.
 

 Routine SETGRP: Setting up the symmetry group for a 
 hexagonal supercell.


 Subroutine GETGRP returns: Found  1 space group operations
 (whereof  1 operations were pure point group operations)
 out of a pool of 24 trial point group operations.


The static configuration has the point symmetry C_1 .


Analysis of symmetry for dynamics (positions and initial velocities):
=====================================================================
 Subroutine PRICEL returns:
 Original cell was already a primitive cell.
 

 Routine SETGRP: Setting up the symmetry group for a 
 hexagonal supercell.


 Subroutine GETGRP returns: Found  1 space group operations
 (whereof  1 operations were pure point group operations)
 out of a pool of 24 trial point group operations.


The dynamic configuration has the point symmetry C_1 .


Analysis of constrained symmetry for selective dynamics:
=====================================================================
 Subroutine PRICEL returns:
 Original cell was already a primitive cell.
 

 Routine SETGRP: Setting up the symmetry group for a 
 hexagonal supercell.


 Subroutine GETGRP returns: Found  1 space group operations
 (whereof  1 operations were pure point group operations)
 out of a pool of 24 trial point group operations.


The constrained configuration has the point symmetry C_1 .


 Subroutine INISYM returns: Found  1 space group operations
 (whereof  1 operations are pure point group operations),
 and found     1 'primitive' translations


----------------------------------------------------------------------------------------

                                     Primitive cell                                     

  volume of cell :    1664.5722

  direct lattice vectors                    reciprocal lattice vectors
     8.813512802  0.000000000  0.000000000     0.113462137 -0.065507406  0.000000000
     4.406756909  7.632725690  0.000000000     0.000000000  0.131014796  0.000000000
     0.000000000  0.000000000 24.744230039     0.000000000  0.000000000  0.040413462

  length of vectors
     8.813512802  8.813512802 24.744230039     0.131014796  0.131014796  0.040413462

  position of ions in fractional coordinates (direct lattice)
     0.000000000  0.000000000  0.213398434
     0.333333343  0.000000000  0.213398434
     0.666666687  0.000000000  0.213398434
     1.000000000  0.333333343  0.213398434
     0.333333313  0.333333343  0.213398434
     0.666666687  0.333333343  0.213398434
     1.000000000  0.666666687  0.213398434
     0.333333343  0.666666687  0.213398434
     0.666666627  0.666666687  0.213398434
     0.111111119  0.111111112  0.310339584
     0.444444418  0.111111112  0.310339584
     0.777777791  0.111111112  0.310339584
     0.111111127  0.444444448  0.310339584
     0.444444478  0.444444448  0.310339584
     0.777777731  0.444444448  0.310339584
     0.111111090  0.777777791  0.310339584
     0.444444448  0.777777791  0.310339584
     0.777777851  0.777777791  0.310339584
     0.888897724  0.222204568  0.407173466
     0.223341676  0.223341661  0.406182823
     0.553316708  0.223341661  0.406182823
     0.886702705  0.556648677  0.406606498
     0.223341631  0.553316708  0.406182823
     0.556648677  0.556648677  0.406606498
     0.888897724  0.888897724  0.407173466
     0.222204598  0.888897724  0.407173466
     0.556648617  0.886702705  0.406606498
     0.000000000  0.000000000  0.504642073
     0.333409010  0.009749430  0.503923841
     0.656841590  0.009749430  0.503923841
     0.009749430  0.333409010  0.503923841
     0.656841590  0.333409010  0.503923841
     0.009749430  0.656841590  0.503923841
     0.333409010  0.656841590  0.503923841
     0.666666627  0.666666687  0.504837634
     0.333333313  0.333333343  0.491446507
     0.279990888  0.261334262  0.584562275
     0.457873585  0.261341659  0.584737241
     0.332746570  0.333856471  0.576332323

  ion indices of the primitive-cell ions
   primitive index   ion index
                 1           1
                 2           2
                 3           3
                 4           4
                 5           5
                 6           6
                 7           7
                 8           8
                 9           9
                10          10
                11          11
                12          12
                13          13
                14          14
                15          15
                16          16
                17          17
                18          18
                19          19
                20          20
                21          21
                22          22
                23          23
                24          24
                25          25
                26          26
                27          27
                28          28
                29          29
                30          30
                31          31
                32          32
                33          33
                34          34
                35          35
                36          36
                37          37
                38          38
                39          39

----------------------------------------------------------------------------------------

 
 
 KPOINTS: Automatic mesh                          

Automatic generation of k-mesh.
 Grid dimensions read from file:
 generate k-points for:    8    8    1

 Generating k-lattice:

  Cartesian coordinates                     Fractional coordinates (reciprocal lattice)
     0.014182767 -0.008188426  0.000000000     0.125000000 -0.000000000  0.000000000
     0.000000000  0.016376850  0.000000000     0.000000000  0.125000000  0.000000000
     0.000000000  0.000000000  0.040413462     0.000000000  0.000000000  1.000000000

  Length of vectors
     0.016376850  0.016376850  0.040413462

  Shift w.r.t. Gamma in fractional coordinates (k-lattice)
     0.000000000  0.000000000  0.000000000

 TETIRR: Found    192 inequivalent tetrahedra from      384
 
 Subroutine IBZKPT returns following result:
 ===========================================
 
 Found     34 irreducible k-points:
 
 Following reciprocal coordinates:
            Coordinates               Weight
  0.000000  0.000000  0.000000      1.000000
  0.125000 -0.000000  0.000000      2.000000
  0.125000  0.125000  0.000000      2.000000
  0.000000  0.125000  0.000000      2.000000
  0.250000 -0.000000  0.000000      2.000000
  0.250000  0.250000  0.000000      2.000000
  0.000000  0.250000  0.000000      2.000000
  0.375000  0.000000  0.000000      2.000000
  0.375000  0.375000  0.000000      2.000000
  0.000000  0.375000  0.000000      2.000000
  0.500000 -0.000000  0.000000      1.000000
  0.500000  0.500000  0.000000      1.000000
  0.000000  0.500000  0.000000      1.000000
  0.250000  0.125000  0.000000      2.000000
  0.125000  0.250000  0.000000      2.000000
 -0.125000  0.125000  0.000000      2.000000
  0.375000  0.125000  0.000000      2.000000
  0.250000  0.375000  0.000000      2.000000
 -0.125000  0.250000  0.000000      2.000000
  0.250000 -0.125000  0.000000      2.000000
 -0.125000 -0.375000  0.000000      2.000000
 -0.375000 -0.250000  0.000000      2.000000
  0.500000  0.125000  0.000000      2.000000
  0.375000  0.500000  0.000000      2.000000
 -0.125000  0.375000  0.000000      2.000000
  0.375000 -0.125000  0.000000      2.000000
 -0.125000  0.500000  0.000000      2.000000
  0.500000 -0.375000  0.000000      2.000000
  0.500000  0.250000  0.000000      2.000000
  0.250000  0.500000  0.000000      2.000000
 -0.250000  0.250000  0.000000      2.000000
 -0.375000  0.250000  0.000000      2.000000
  0.375000 -0.375000  0.000000      2.000000
 -0.250000  0.375000  0.000000      2.000000
 
 Following cartesian coordinates:
            Coordinates               Weight
  0.000000  0.000000  0.000000      1.000000
  0.014183 -0.008188  0.000000      2.000000
  0.014183  0.008188  0.000000      2.000000
  0.000000  0.016377  0.000000      2.000000
  0.028366 -0.016377  0.000000      2.000000
  0.028366  0.016377  0.000000      2.000000
  0.000000  0.032754  0.000000      2.000000
  0.042548 -0.024565  0.000000      2.000000
  0.042548  0.024565  0.000000      2.000000
  0.000000  0.049131  0.000000      2.000000
  0.056731 -0.032754  0.000000      1.000000
  0.056731  0.032754  0.000000      1.000000
  0.000000  0.065507  0.000000      1.000000
  0.028366 -0.000000  0.000000      2.000000
  0.014183  0.024565  0.000000      2.000000
 -0.014183  0.024565  0.000000      2.000000
  0.042548 -0.008188  0.000000      2.000000
  0.028366  0.032754  0.000000      2.000000
 -0.014183  0.040942  0.000000      2.000000
  0.028366 -0.032754  0.000000      2.000000
 -0.014183 -0.040942  0.000000      2.000000
 -0.042548 -0.008188  0.000000      2.000000
  0.056731 -0.016377  0.000000      2.000000
  0.042548  0.040942  0.000000      2.000000
 -0.014183  0.057319  0.000000      2.000000
  0.042548 -0.040942  0.000000      2.000000
 -0.014183  0.073696  0.000000      2.000000
  0.056731 -0.081884  0.000000      2.000000
  0.056731 -0.000000  0.000000      2.000000
  0.028366  0.049131  0.000000      2.000000
 -0.028366  0.049131  0.000000      2.000000
 -0.042548  0.057319  0.000000      2.000000
  0.042548 -0.073696  0.000000      2.000000
 -0.028366  0.065507  0.000000      2.000000
 


--------------------------------------------------------------------------------------------------------




 Dimension of arrays:
   k-points           NKPTS =     34   k-points in BZ     NKDIM =     34   number of bands    NBANDS=    252
   number of dos      NEDOS =    301   number of ions     NIONS =     39
   non local maximal  LDIM  =      6   non local SUM 2l+1 LMDIM =     18
   total plane-waves  NPLWV = 322560
   max r-space proj   IRMAX =   2228   max aug-charges    IRDMAX=  12048
   dimension x,y,z NGX =    48 NGY =   48 NGZ =  140
   dimension x,y,z NGXF=    96 NGYF=   96 NGZF=  280
   support grid    NGXF=    96 NGYF=   96 NGZF=  280
   ions per type =              35   1   2   1
   NGX,Y,Z   is equivalent  to a cutoff of   9.05,  9.05,  9.41 a.u.
   NGXF,Y,Z  is equivalent  to a cutoff of  18.11, 18.11, 18.81 a.u.

 SYSTEM =  unknown system                          
 POSCAR =  Au-Fe-H2O                               

 Startparameter for this run:
   NWRITE =      2    write-flag & timer
   PREC   = normal    normal or accurate (medium, high low for compatibility)
   ISTART =      0    job   : 0-new  1-cont  2-samecut
   ICHARG =     11    charge: 1-file 2-atom 10-const
   ISPIN  =      1    spin polarized calculation?
   LNONCOLLINEAR =      F non collinear calculations
   LSORBIT =      F    spin-orbit coupling
   INIWAV =      1    electr: 0-lowe 1-rand  2-diag
   LASPH  =      F    aspherical Exc in radial PAW
   METAGGA=      F    non-selfconsistent MetaGGA calc.

 Electronic Relaxation 1
   ENCUT  =  500.0 eV  36.75 Ry    6.06 a.u.  16.07 16.07 45.11*2*pi/ulx,y,z
   ENINI  =  500.0     initial cutoff
   ENAUG  =  605.4 eV  augmentation charge cutoff
   NELM   =    150;   NELMIN=  2; NELMDL= -5     # of ELM steps 
   EDIFF  = 0.1E-04   stopping-criterion for ELM
   LREAL  =      T    real-space projection
   NLSPLINE    = F    spline interpolate recip. space projectors
   LCOMPAT=      F    compatible to vasp.4.4
   GGA_COMPAT  = T    GGA compatible to vasp.4.4-vasp.4.6
   LMAXPAW     = -100 max onsite density
   LMAXMIX     =    2 max onsite mixed and CHGCAR
   VOSKOWN=      0    Vosko Wilk Nusair interpolation
   ROPT   =   -0.00050  -0.00050  -0.00050  -0.00050
 Ionic relaxation
   EDIFFG = -.1E-01   stopping-criterion for IOM
   NSW    =      0    number of steps for IOM
   NBLOCK =      1;   KBLOCK =      1    inner block; outer block 
   IBRION =     -1    ionic relax: 0-MD 1-quasi-New 2-CG
   NFREE  =      1    steps in history (QN), initial steepest desc. (CG)
   ISIF   =      2    stress and relaxation
   IWAVPR =     10    prediction:  0-non 1-charg 2-wave 3-comb
   ISYM   =      2    0-nonsym 1-usesym 2-fastsym
   LCORR  =      T    Harris-Foulkes like correction to forces

   POTIM  = 0.5000    time-step for ionic-motion
   TEIN   =    0.0    initial temperature
   TEBEG  =    0.0;   TEEND  =   0.0 temperature during run
   SMASS  =  -3.00    Nose mass-parameter (am)
   estimated Nose-frequenzy (Omega)   =  0.10E-29 period in steps = 0.13E+47 mass=  -0.178E-26a.u.
   SCALEE = 1.0000    scale energy and forces
   NPACO  =    256;   APACO  = 16.0  distance and # of slots for P.C.
   PSTRESS=    0.0 pullay stress

  Mass of Ions in am
   POMASS = 196.97 55.85  1.00 16.00
  Ionic Valenz
   ZVAL   =  11.00  8.00  1.00  6.00
  Atomic Wigner-Seitz radii
   RWIGS  =  -1.00 -1.00 -1.00 -1.00
  virtual crystal weights 
   VCA    =   1.00  1.00  1.00  1.00
   NELECT =     401.0000    total number of electrons
   NUPDOWN=      -1.0000    fix difference up-down

 DOS related values:
   EMIN   =  10.00;   EMAX   =-10.00  energy-range for DOS
   EFERMI =   0.00
   ISMEAR =    -5;   SIGMA  =   0.10  broadening in eV -4-tet -1-fermi 0-gaus

 Electronic relaxation 2 (details)
   IALGO  =     68    algorithm
   LDIAG  =      T    sub-space diagonalisation (order eigenvalues)
   LSUBROT=      F    optimize rotation matrix (better conditioning)
   TURBO    =      0    0=normal 1=particle mesh
   IRESTART =      0    0=no restart 2=restart with 2 vectors
   NREBOOT  =      0    no. of reboots
   NMIN     =      0    reboot dimension
   EREF     =   0.00    reference energy to select bands
   IMIX   =      4    mixing-type and parameters
     AMIX     =   0.40;   BMIX     =  1.00
     AMIX_MAG =   1.60;   BMIX_MAG =  1.00
     AMIN     =   0.10
     WC   =   100.;   INIMIX=   1;  MIXPRE=   1;  MAXMIX= -45

 Intra band minimization:
   WEIMIN = 0.0000     energy-eigenvalue tresh-hold
   EBREAK =  0.99E-08  absolut break condition
   DEPER  =   0.30     relativ break condition  

   TIME   =   0.40     timestep for ELM

  volume/ion in A,a.u.               =      42.68       288.03
  Fermi-wavevector in a.u.,A,eV,Ry     =   1.018643  1.924956 14.117866  1.037634
  Thomas-Fermi vector in A             =   2.152112
 
 Write flags
   LWAVE        =      F    write WAVECAR
   LDOWNSAMPLE  =      F    k-point downsampling of WAVECAR
   LCHARG       =      F    write CHGCAR
   LVTOT        =      F    write LOCPOT, total local potential
   LVHAR        =      F    write LOCPOT, Hartree potential only
   LELF         =      F    write electronic localiz. function (ELF)
   LORBIT       =     10    0 simple, 1 ext, 2 COOP (PROOUT), +10 PAW based schemes


 Dipole corrections
   LMONO  =      F    monopole corrections only (constant potential shift)
   LDIPOL =      F    correct potential (dipole corrections)
   IDIPOL =      0    1-x, 2-y, 3-z, 4-all directions 
   EPSILON=  1.0000000 bulk dielectric constant

 Exchange correlation treatment:
   GGA     =    --    GGA type
   LEXCH   =     8    internal setting for exchange type
   VOSKOWN=      0    Vosko Wilk Nusair interpolation
   LHFCALC =     F    Hartree Fock is set to
   LHFONE  =     F    Hartree Fock one center treatment
   AEXX    =    0.0000 exact exchange contribution

 Linear response parameters
   LEPSILON=     F    determine dielectric tensor
   LRPA    =     F    only Hartree local field effects (RPA)
   LNABLA  =     F    use nabla operator in PAW spheres
   LVEL    =     F    velocity operator in full k-point grid
   LINTERFAST=   F  fast interpolation
   KINTER  =     0    interpolate to denser k-point grid
   CSHIFT  =0.1000    complex shift for real part using Kramers Kronig
   OMEGAMAX=  -1.0    maximum frequency
   DEG_THRESHOLD= 0.2000000E-02 threshold for treating states as degnerate
   RTIME   =   -0.100 relaxation time in fs
  (WPLASMAI=    0.000 imaginary part of plasma frequency in eV, 0.658/RTIME)
   DFIELD  = 0.0000000 0.0000000 0.0000000 field for delta impulse in time
 
 Orbital magnetization related:
   ORBITALMAG=     F  switch on orbital magnetization
   LCHIMAG   =     F  perturbation theory with respect to B field
   DQ        =  0.001000  dq finite difference perturbation B field
   LLRAUG    =     F  two centre corrections for induced B field



--------------------------------------------------------------------------------------------------------


 Static calculation
 charge density and potential remain constant during run
 non-spin polarized calculation
 RMM-DIIS sequential band-by-band and
  variant of blocked Davidson during initial phase
 perform sub-space diagonalisation
    before iterative eigenvector-optimisation
 no mixing
 using additional bands           51
 real space projection scheme for non local part
 use partial core corrections
 calculate Harris-corrections to forces 
   (improved forces if not selfconsistent)
 use gradient corrections 
 WARNING: stress and forces are not correct
  (second derivative of E(xc) not defined)
 use of overlap-Matrix (Vanderbilt PP)
 Fermi weights with tetrahedron method with Bloechl corrections


--------------------------------------------------------------------------------------------------------


  energy-cutoff  :      500.00
  volume of cell :     1664.57
      direct lattice vectors                 reciprocal lattice vectors
     8.813512802  0.000000000  0.000000000     0.113462137 -0.065507406  0.000000000
     4.406756909  7.632725690  0.000000000     0.000000000  0.131014796  0.000000000
     0.000000000  0.000000000 24.744230039     0.000000000  0.000000000  0.040413462

  length of vectors
     8.813512802  8.813512802 24.744230039     0.131014796  0.131014796  0.040413462


 
 k-points in units of 2pi/SCALE and weight: Automatic mesh                          
   0.00000000  0.00000000  0.00000000       0.016
   0.01418277 -0.00818843  0.00000000       0.031
   0.01418277  0.00818842  0.00000000       0.031
   0.00000000  0.01637685  0.00000000       0.031
   0.02836553 -0.01637685  0.00000000       0.031
   0.02836553  0.01637685  0.00000000       0.031
   0.00000000  0.03275370  0.00000000       0.031
   0.04254830 -0.02456528  0.00000000       0.031
   0.04254830  0.02456527  0.00000000       0.031
   0.00000000  0.04913055  0.00000000       0.031
   0.05673107 -0.03275370  0.00000000       0.016
   0.05673107  0.03275370  0.00000000       0.016
   0.00000000  0.06550740  0.00000000       0.016
   0.02836553 -0.00000000  0.00000000       0.031
   0.01418277  0.02456527  0.00000000       0.031
  -0.01418277  0.02456528  0.00000000       0.031
   0.04254830 -0.00818843  0.00000000       0.031
   0.02836553  0.03275370  0.00000000       0.031
  -0.01418277  0.04094212  0.00000000       0.031
   0.02836553 -0.03275370  0.00000000       0.031
  -0.01418277 -0.04094212  0.00000000       0.031
  -0.04254830 -0.00818842  0.00000000       0.031
   0.05673107 -0.01637685  0.00000000       0.031
   0.04254830  0.04094212  0.00000000       0.031
  -0.01418277  0.05731897  0.00000000       0.031
   0.04254830 -0.04094213  0.00000000       0.031
  -0.01418277  0.07369582  0.00000000       0.031
   0.05673107 -0.08188425  0.00000000       0.031
   0.05673107 -0.00000000  0.00000000       0.031
   0.02836553  0.04913055  0.00000000       0.031
  -0.02836553  0.04913055  0.00000000       0.031
  -0.04254830  0.05731898  0.00000000       0.031
   0.04254830 -0.07369583  0.00000000       0.031
  -0.02836553  0.06550740  0.00000000       0.031
 
 k-points in reciprocal lattice and weights: Automatic mesh                          
   0.00000000  0.00000000  0.00000000       0.016
   0.12500000 -0.00000000  0.00000000       0.031
   0.12500000  0.12500000  0.00000000       0.031
   0.00000000  0.12500000  0.00000000       0.031
   0.25000000 -0.00000000  0.00000000       0.031
   0.25000000  0.25000000  0.00000000       0.031
   0.00000000  0.25000000  0.00000000       0.031
   0.37500000  0.00000000  0.00000000       0.031
   0.37500000  0.37500000  0.00000000       0.031
   0.00000000  0.37500000  0.00000000       0.031
   0.50000000 -0.00000000  0.00000000       0.016
   0.50000000  0.50000000  0.00000000       0.016
   0.00000000  0.50000000  0.00000000       0.016
   0.25000000  0.12500000  0.00000000       0.031
   0.12500000  0.25000000  0.00000000       0.031
  -0.12500000  0.12500000  0.00000000       0.031
   0.37500000  0.12500000  0.00000000       0.031
   0.25000000  0.37500000  0.00000000       0.031
  -0.12500000  0.25000000  0.00000000       0.031
   0.25000000 -0.12500000  0.00000000       0.031
  -0.12500000 -0.37500000  0.00000000       0.031
  -0.37500000 -0.25000000  0.00000000       0.031
   0.50000000  0.12500000  0.00000000       0.031
   0.37500000  0.50000000  0.00000000       0.031
  -0.12500000  0.37500000  0.00000000       0.031
   0.37500000 -0.12500000  0.00000000       0.031
  -0.12500000  0.50000000  0.00000000       0.031
   0.50000000 -0.37500000  0.00000000       0.031
   0.50000000  0.25000000  0.00000000       0.031
   0.25000000  0.50000000  0.00000000       0.031
  -0.25000000  0.25000000  0.00000000       0.031
  -0.37500000  0.25000000  0.00000000       0.031
   0.37500000 -0.37500000  0.00000000       0.031
  -0.25000000  0.37500000  0.00000000       0.031
 
 position of ions in fractional coordinates (direct lattice) 
   0.00000000  0.00000000  0.21339843
   0.33333334  0.00000000  0.21339843
   0.66666669  0.00000000  0.21339843
   0.00000000  0.33333334  0.21339843
   0.33333331  0.33333334  0.21339843
   0.66666669  0.33333334  0.21339843
   0.00000000  0.66666669  0.21339843
   0.33333334  0.66666669  0.21339843
   0.66666663  0.66666669  0.21339843
   0.11111112  0.11111111  0.31033958
   0.44444442  0.11111111  0.31033958
   0.77777779  0.11111111  0.31033958
   0.11111113  0.44444445  0.31033958
   0.44444448  0.44444445  0.31033958
   0.77777773  0.44444445  0.31033958
   0.11111109  0.77777779  0.31033958
   0.44444445  0.77777779  0.31033958
   0.77777785  0.77777779  0.31033958
   0.88889772  0.22220457  0.40717347
   0.22334168  0.22334166  0.40618282
   0.55331671  0.22334166  0.40618282
   0.88670271  0.55664868  0.40660650
   0.22334163  0.55331671  0.40618282
   0.55664868  0.55664868  0.40660650
   0.88889772  0.88889772  0.40717347
   0.22220460  0.88889772  0.40717347
   0.55664862  0.88670271  0.40660650
   0.00000000  0.00000000  0.50464207
   0.33340901  0.00974943  0.50392384
   0.65684159  0.00974943  0.50392384
   0.00974943  0.33340901  0.50392384
   0.65684159  0.33340901  0.50392384
   0.00974943  0.65684159  0.50392384
   0.33340901  0.65684159  0.50392384
   0.66666663  0.66666669  0.50483763
   0.33333331  0.33333334  0.49144651
   0.27999089  0.26133426  0.58456227
   0.45787358  0.26134166  0.58473724
   0.33274657  0.33385647  0.57633232
 
 position of ions in cartesian coordinates  (Angst):
   0.00000000  0.00000000  5.28037993
   2.93783769  0.00000000  5.28037993
   5.87567538  0.00000000  5.28037993
   1.46891901  2.54424197  5.28037993
   4.40675643  2.54424197  5.28037993
   7.34459439  2.54424197  5.28037993
   2.93783803  5.08848395  5.28037993
   5.87567571  5.08848395  5.28037993
   8.81351288  5.08848395  5.28037993
   1.46891893  0.84808064  7.67911405
   4.40675623  0.84808064  7.67911405
   7.34459418  0.84808064  7.67911405
   2.93783798  3.39232256  7.67911405
   5.87567574  3.39232256  7.67911405
   8.81351263  3.39232256  7.67911405
   4.40675667  5.93656453  7.67911405
   7.34459449  5.93656453  7.67911405
  10.28243270  5.93656453  7.67911405
   8.81351299  1.69602652 10.07519390
   2.95263713  1.70470563 10.05068122
   5.86087630  1.70470563 10.05068122
  10.26798105  4.24874666 10.06116473
   4.40675655  4.22331465 10.05068122
   7.35904565  4.24874666 10.06116473
  11.75146765  6.78471249 10.07519390
   5.87555926  6.78471249 10.07519390
   8.81351299  6.76795852 10.06116473
   0.00000000  0.00000000 12.48697953
   2.98146795  0.07441473 12.46920745
   5.83204513  0.07441473 12.46920745
   1.55517919  2.54481952 12.46920745
   7.25833422  2.54481952 12.46920745
   2.98046794  5.01349168 12.46920745
   5.83304579  5.01349168 12.46920745
   8.81351288  5.08848395 12.49181854
   4.40675643  2.54424197 12.16046541
   3.61933984  1.99469274 14.46454340
   5.18714386  1.99474920 14.46887280
   4.40389047  2.54823487 14.26089959
 


--------------------------------------------------------------------------------------------------------


 k-point   1 :   0.0000 0.0000 0.0000  plane waves:   42157
 k-point   2 :   0.1250-0.0000 0.0000  plane waves:   42204
 k-point   3 :   0.1250 0.1250 0.0000  plane waves:   42204
 k-point   4 :   0.0000 0.1250 0.0000  plane waves:   42204
 k-point   5 :   0.2500-0.0000 0.0000  plane waves:   42256
 k-point   6 :   0.2500 0.2500 0.0000  plane waves:   42256
 k-point   7 :   0.0000 0.2500 0.0000  plane waves:   42256
 k-point   8 :   0.3750 0.0000 0.0000  plane waves:   42248
 k-point   9 :   0.3750 0.3750 0.0000  plane waves:   42248
 k-point  10 :   0.0000 0.3750 0.0000  plane waves:   42248
 k-point  11 :   0.5000-0.0000 0.0000  plane waves:   42276
 k-point  12 :   0.5000 0.5000 0.0000  plane waves:   42276
 k-point  13 :   0.0000 0.5000 0.0000  plane waves:   42276
 k-point  14 :   0.2500 0.1250 0.0000  plane waves:   42212
 k-point  15 :   0.1250 0.2500 0.0000  plane waves:   42212
 k-point  16 :  -0.1250 0.1250 0.0000  plane waves:   42212
 k-point  17 :   0.3750 0.1250 0.0000  plane waves:   42250
 k-point  18 :   0.2500 0.3750 0.0000  plane waves:   42250
 k-point  19 :  -0.1250 0.2500 0.0000  plane waves:   42250
 k-point  20 :   0.2500-0.1250 0.0000  plane waves:   42250
 k-point  21 :  -0.1250-0.3750 0.0000  plane waves:   42250
 k-point  22 :  -0.3750-0.2500 0.0000  plane waves:   42250
 k-point  23 :   0.5000 0.1250 0.0000  plane waves:   42294
 k-point  24 :   0.3750 0.5000 0.0000  plane waves:   42294
 k-point  25 :  -0.1250 0.3750 0.0000  plane waves:   42294
 k-point  26 :   0.3750-0.1250 0.0000  plane waves:   42294
 k-point  27 :  -0.1250 0.5000 0.0000  plane waves:   42294
 k-point  28 :   0.5000-0.3750 0.0000  plane waves:   42294
 k-point  29 :   0.5000 0.2500 0.0000  plane waves:   42246
 k-point  30 :   0.2500 0.5000 0.0000  plane waves:   42246
 k-point  31 :  -0.2500 0.2500 0.0000  plane waves:   42246
 k-point  32 :  -0.3750 0.2500 0.0000  plane waves:   42274
 k-point  33 :   0.3750-0.3750 0.0000  plane waves:   42274
 k-point  34 :  -0.2500 0.3750 0.0000  plane waves:   42274

 maximum and minimum number of plane-waves per node :     42294    42157

 maximum number of plane-waves:     42294
 maximum index in each direction: 
   IXMAX=   16   IYMAX=   16   IZMAX=   45
   IXMIN=  -16   IYMIN=  -16   IZMIN=  -45


 serial   3D FFT for wavefunctions
 parallel 3D FFT for charge:
    minimum data exchange during FFTs selected (reduces bandwidth)


 total amount of memory used by VASP MPI-rank0   280244. kBytes
=======================================================================

   base      :      30000. kBytes
   nonlr-proj:      13677. kBytes
   fftplans  :       4808. kBytes
   grid      :      20723. kBytes
   one-center:        606. kBytes
   wavefun   :     210430. kBytes
 
     INWAV:  cpu time    0.0000: real time    0.0001
 initial charge density was supplied:
 number of electron     400.9999972 magnetization 
 keeping initial charge density in first step


--------------------------------------------------------------------------------------------------------


 Maximum index for non-local projection operator         2124
 Maximum index for augmentation-charges          846 (set IRDMAX)


--------------------------------------------------------------------------------------------------------


 First call to EWALD:  gamma=   0.150
 Maximum number of real-space cells 4x 4x 2
 Maximum number of reciprocal cells 2x 2x 5

    FEWALD:  cpu time    0.0013: real time    0.0013


--------------------------------------- Iteration      1(   1)  ---------------------------------------


    POTLOK:  cpu time    0.0638: real time    0.0642
    SETDIJ:  cpu time    0.0049: real time    0.0050
     EDDAV:  cpu time   26.3333: real time   26.3350
 BZINTS: Fermi energy:   10.882457;  401.000000 electrons
         Band energy: 0.141500E+04;  BLOECHL correction:   -0.019398
       DOS:  cpu time    0.0602: real time    0.0602
    --------------------------------------------
      LOOP:  cpu time   26.4622: real time   26.4645

 eigenvalue-minimisations  : 17136
 total energy-change (2. order) : 0.2698325E+04  (-0.1774045E+05)
 number of electron     400.9999972 magnetization 
 augmentation part      400.9999972 magnetization 

 Free energy of the ion-electron system (eV)
  ---------------------------------------------------
  alpha Z        PSCENC =       920.39128097
  Ewald energy   TEWEN  =    134920.09473534
  -Hartree energ DENC   =   -169295.12394610
  -exchange      EXHF   =         0.00000000
  -V(xc)+E(xc)   XCENC  =       554.67772237
  PAW double counting   =     36339.70005182   -35620.94591383
  entropy T*S    EENTRO =         0.00000000
  eigenvalues    EBANDS =      1415.00293685
  atomic energy  EATOM  =     33464.52816876
  Solvation  Ediel_sol  =         0.00000000
  ---------------------------------------------------
  free energy    TOTEN  =      2698.32503618 eV

  energy without entropy =     2698.32503618  energy(sigma->0) =     2698.32503618


--------------------------------------------------------------------------------------------------------




--------------------------------------- Iteration      1(   2)  ---------------------------------------


     EDDAV:  cpu time   28.7421: real time   28.7425
 BZINTS: Fermi energy:    1.122320;  401.000000 electrons
         Band energy:-0.125369E+04;  BLOECHL correction:   -0.045054
       DOS:  cpu time    0.0582: real time    0.0582
    --------------------------------------------
      LOOP:  cpu time   28.8003: real time   28.8006

 eigenvalue-minimisations  : 19096
 total energy-change (2. order) :-0.2668690E+04  (-0.2453469E+04)
 number of electron     400.9999972 magnetization 
 augmentation part      400.9999972 magnetization 

 Free energy of the ion-electron system (eV)
  ---------------------------------------------------
  alpha Z        PSCENC =       920.39128097
  Ewald energy   TEWEN  =    134920.09473534
  -Hartree energ DENC   =   -169295.12394610
  -exchange      EXHF   =         0.00000000
  -V(xc)+E(xc)   XCENC  =       554.67772237
  PAW double counting   =     36339.70005182   -35620.94591383
  entropy T*S    EENTRO =         0.00000000
  eigenvalues    EBANDS =     -1253.68740964
  atomic energy  EATOM  =     33464.52816876
  Solvation  Ediel_sol  =         0.00000000
  ---------------------------------------------------
  free energy    TOTEN  =        29.63468969 eV

  energy without entropy =       29.63468969  energy(sigma->0) =       29.63468969


--------------------------------------------------------------------------------------------------------




--------------------------------------- Iteration      1(   3)  ---------------------------------------


     EDDAV:  cpu time   29.8295: real time   29.8298
 BZINTS: Fermi energy:    0.313845;  401.000000 electrons
         Band energy:-0.140728E+04;  BLOECHL correction:   -0.053931
       DOS:  cpu time    0.0598: real time    0.0598
    --------------------------------------------
      LOOP:  cpu time   29.8892: real time   29.8896

 eigenvalue-minimisations  : 19936
 total energy-change (2. order) :-0.1535880E+03  (-0.1484569E+03)
 number of electron     400.9999972 magnetization 
 augmentation part      400.9999972 magnetization 

 Free energy of the ion-electron system (eV)
  ---------------------------------------------------
  alpha Z        PSCENC =       920.39128097
  Ewald energy   TEWEN  =    134920.09473534
  -Hartree energ DENC   =   -169295.12394610
  -exchange      EXHF   =         0.00000000
  -V(xc)+E(xc)   XCENC  =       554.67772237
  PAW double counting   =     36339.70005182   -35620.94591383
  entropy T*S    EENTRO =         0.00000000
  eigenvalues    EBANDS =     -1407.27536923
  atomic energy  EATOM  =     33464.52816876
  Solvation  Ediel_sol  =         0.00000000
  ---------------------------------------------------
  free energy    TOTEN  =      -123.95326989 eV

  energy without entropy =     -123.95326989  energy(sigma->0) =     -123.95326989


--------------------------------------------------------------------------------------------------------




--------------------------------------- Iteration      1(   4)  ---------------------------------------


     EDDAV:  cpu time   28.4999: real time   28.5003
 BZINTS: Fermi energy:    0.297694;  401.000000 electrons
         Band energy:-0.141076E+04;  BLOECHL correction:   -0.052576
       DOS:  cpu time    0.0563: real time    0.0563
    --------------------------------------------
      LOOP:  cpu time   28.5562: real time   28.5566

 eigenvalue-minimisations  : 18844
 total energy-change (2. order) :-0.3483742E+01  (-0.3476957E+01)
 number of electron     400.9999972 magnetization 
 augmentation part      400.9999972 magnetization 

 Free energy of the ion-electron system (eV)
  ---------------------------------------------------
  alpha Z        PSCENC =       920.39128097
  Ewald energy   TEWEN  =    134920.09473534
  -Hartree energ DENC   =   -169295.12394610
  -exchange      EXHF   =         0.00000000
  -V(xc)+E(xc)   XCENC  =       554.67772237
  PAW double counting   =     36339.70005182   -35620.94591383
  entropy T*S    EENTRO =         0.00000000
  eigenvalues    EBANDS =     -1410.75911139
  atomic energy  EATOM  =     33464.52816876
  Solvation  Ediel_sol  =         0.00000000
  ---------------------------------------------------
  free energy    TOTEN  =      -127.43701206 eV

  energy without entropy =     -127.43701206  energy(sigma->0) =     -127.43701206


--------------------------------------------------------------------------------------------------------




--------------------------------------- Iteration      1(   5)  ---------------------------------------


     EDDAV:  cpu time   31.9118: real time   31.9153
 BZINTS: Fermi energy:    0.297300;  401.000000 electrons
         Band energy:-0.141088E+04;  BLOECHL correction:   -0.052522
       DOS:  cpu time    0.0602: real time    0.0602
    --------------------------------------------
      LOOP:  cpu time   31.9720: real time   31.9755

 eigenvalue-minimisations  : 21588
 total energy-change (2. order) :-0.1198956E+00  (-0.1199110E+00)
 number of electron     400.9999972 magnetization 
 augmentation part      400.9999972 magnetization 

 Free energy of the ion-electron system (eV)
  ---------------------------------------------------
  alpha Z        PSCENC =       920.39128097
  Ewald energy   TEWEN  =    134920.09473534
  -Hartree energ DENC   =   -169295.12394610
  -exchange      EXHF   =         0.00000000
  -V(xc)+E(xc)   XCENC  =       554.67772237
  PAW double counting   =     36339.70005182   -35620.94591383
  entropy T*S    EENTRO =         0.00000000
  eigenvalues    EBANDS =     -1410.87900696
  atomic energy  EATOM  =     33464.52816876
  Solvation  Ediel_sol  =         0.00000000
  ---------------------------------------------------
  free energy    TOTEN  =      -127.55690763 eV

  energy without entropy =     -127.55690763  energy(sigma->0) =     -127.55690763


--------------------------------------------------------------------------------------------------------




--------------------------------------- Iteration      1(   6)  ---------------------------------------


    EDDIAG:  cpu time    5.2154: real time    5.2159
  RMM-DIIS:  cpu time   15.2888: real time   15.2890
    ORTHCH:  cpu time    0.9752: real time    0.9752
 BZINTS: Fermi energy:    0.297299;  401.000000 electrons
         Band energy:-0.141088E+04;  BLOECHL correction:   -0.052522
       DOS:  cpu time    0.0588: real time    0.0588
    --------------------------------------------
      LOOP:  cpu time   21.5382: real time   21.5389

 eigenvalue-minimisations  : 17579
 total energy-change (2. order) :-0.2892210E-02  (-0.2892401E-02)
 number of electron     400.9999972 magnetization 
 augmentation part      400.9999972 magnetization 

 Free energy of the ion-electron system (eV)
  ---------------------------------------------------
  alpha Z        PSCENC =       920.39128097
  Ewald energy   TEWEN  =    134920.09473534
  -Hartree energ DENC   =   -169295.12394610
  -exchange      EXHF   =         0.00000000
  -V(xc)+E(xc)   XCENC  =       554.67772237
  PAW double counting   =     36339.70005182   -35620.94591383
  entropy T*S    EENTRO =         0.00000000
  eigenvalues    EBANDS =     -1410.88189917
  atomic energy  EATOM  =     33464.52816876
  Solvation  Ediel_sol  =         0.00000000
  ---------------------------------------------------
  free energy    TOTEN  =      -127.55979984 eV

  energy without entropy =     -127.55979984  energy(sigma->0) =     -127.55979984


--------------------------------------------------------------------------------------------------------




--------------------------------------- Iteration      1(   7)  ---------------------------------------


    EDDIAG:  cpu time    5.2171: real time    5.2174
  RMM-DIIS:  cpu time   20.9586: real time   20.9588
    ORTHCH:  cpu time    0.9750: real time    0.9750
 BZINTS: Fermi energy:    0.297299;  401.000000 electrons
         Band energy:-0.141088E+04;  BLOECHL correction:   -0.052522
       DOS:  cpu time    0.0563: real time    0.0563
    --------------------------------------------
      LOOP:  cpu time   27.2070: real time   27.2075

 eigenvalue-minimisations  : 24454
 total energy-change (2. order) :-0.1223701E-02  (-0.1195242E-02)
 number of electron     400.9999972 magnetization 
 augmentation part      400.9999972 magnetization 

 Free energy of the ion-electron system (eV)
  ---------------------------------------------------
  alpha Z        PSCENC =       920.39128097
  Ewald energy   TEWEN  =    134920.09473534
  -Hartree energ DENC   =   -169295.12394610
  -exchange      EXHF   =         0.00000000
  -V(xc)+E(xc)   XCENC  =       554.67772237
  PAW double counting   =     36339.70005182   -35620.94591383
  entropy T*S    EENTRO =         0.00000000
  eigenvalues    EBANDS =     -1410.88312287
  atomic energy  EATOM  =     33464.52816876
  Solvation  Ediel_sol  =         0.00000000
  ---------------------------------------------------
  free energy    TOTEN  =      -127.56102354 eV

  energy without entropy =     -127.56102354  energy(sigma->0) =     -127.56102354


--------------------------------------------------------------------------------------------------------




--------------------------------------- Iteration      1(   8)  ---------------------------------------


    EDDIAG:  cpu time    5.2180: real time    5.2183
  RMM-DIIS:  cpu time   16.7328: real time   16.7330
    ORTHCH:  cpu time    0.9758: real time    0.9758
 BZINTS: Fermi energy:    0.297299;  401.000000 electrons
         Band energy:-0.141088E+04;  BLOECHL correction:   -0.052522
       DOS:  cpu time    0.0589: real time    0.0589
    --------------------------------------------
      LOOP:  cpu time   22.9855: real time   22.9860

 eigenvalue-minimisations  : 19220
 total energy-change (2. order) :-0.8221314E-04  (-0.8249305E-04)
 number of electron     400.9999972 magnetization 
 augmentation part      400.9999972 magnetization 

 Free energy of the ion-electron system (eV)
  ---------------------------------------------------
  alpha Z        PSCENC =       920.39128097
  Ewald energy   TEWEN  =    134920.09473534
  -Hartree energ DENC   =   -169295.12394610
  -exchange      EXHF   =         0.00000000
  -V(xc)+E(xc)   XCENC  =       554.67772237
  PAW double counting   =     36339.70005182   -35620.94591383
  entropy T*S    EENTRO =         0.00000000
  eigenvalues    EBANDS =     -1410.88320509
  atomic energy  EATOM  =     33464.52816876
  Solvation  Ediel_sol  =         0.00000000
  ---------------------------------------------------
  free energy    TOTEN  =      -127.56110575 eV

  energy without entropy =     -127.56110575  energy(sigma->0) =     -127.56110575


--------------------------------------------------------------------------------------------------------




--------------------------------------- Iteration      1(   9)  ---------------------------------------


    EDDIAG:  cpu time    5.2211: real time    5.2213
  RMM-DIIS:  cpu time   18.3690: real time   18.3691
    ORTHCH:  cpu time    0.9747: real time    0.9747
 BZINTS: Fermi energy:    0.297299;  401.000000 electrons
         Band energy:-0.141088E+04;  BLOECHL correction:   -0.052522
       DOS:  cpu time    0.0576: real time    0.0576
    --------------------------------------------
      LOOP:  cpu time   24.6223: real time   24.6227

 eigenvalue-minimisations  : 19740
 total energy-change (2. order) :-0.2754305E-04  (-0.2733147E-04)
 number of electron     400.9999972 magnetization 
 augmentation part      400.9999972 magnetization 

 Free energy of the ion-electron system (eV)
  ---------------------------------------------------
  alpha Z        PSCENC =       920.39128097
  Ewald energy   TEWEN  =    134920.09473534
  -Hartree energ DENC   =   -169295.12394610
  -exchange      EXHF   =         0.00000000
  -V(xc)+E(xc)   XCENC  =       554.67772237
  PAW double counting   =     36339.70005182   -35620.94591383
  entropy T*S    EENTRO =         0.00000000
  eigenvalues    EBANDS =     -1410.88323263
  atomic energy  EATOM  =     33464.52816876
  Solvation  Ediel_sol  =         0.00000000
  ---------------------------------------------------
  free energy    TOTEN  =      -127.56113330 eV

  energy without entropy =     -127.56113330  energy(sigma->0) =     -127.56113330


--------------------------------------------------------------------------------------------------------




--------------------------------------- Iteration      1(  10)  ---------------------------------------


    EDDIAG:  cpu time    5.2174: real time    5.2176
  RMM-DIIS:  cpu time   11.2494: real time   11.2495
    ORTHCH:  cpu time    0.9758: real time    0.9759
 BZINTS: Fermi energy:    0.297299;  401.000000 electrons
         Band energy:-0.141088E+04;  BLOECHL correction:   -0.052522
       DOS:  cpu time    0.0601: real time    0.0601
    --------------------------------------------
      LOOP:  cpu time   17.5027: real time   17.5030

 eigenvalue-minimisations  : 10591
 total energy-change (2. order) :-0.1342269E-05  (-0.1370945E-05)
 number of electron     400.9999972 magnetization 
 augmentation part      400.9999972 magnetization 

 Free energy of the ion-electron system (eV)
  ---------------------------------------------------
  alpha Z        PSCENC =       920.39128097
  Ewald energy   TEWEN  =    134920.09473534
  -Hartree energ DENC   =   -169295.12394610
  -exchange      EXHF   =         0.00000000
  -V(xc)+E(xc)   XCENC  =       554.67772237
  PAW double counting   =     36339.70005182   -35620.94591383
  entropy T*S    EENTRO =         0.00000000
  eigenvalues    EBANDS =     -1410.88323397
  atomic energy  EATOM  =     33464.52816876
  Solvation  Ediel_sol  =         0.00000000
  ---------------------------------------------------
  free energy    TOTEN  =      -127.56113464 eV

  energy without entropy =     -127.56113464  energy(sigma->0) =     -127.56113464


--------------------------------------------------------------------------------------------------------




 average (electrostatic) potential at core
  the test charge radii are     1.2098  1.0103  0.5201  0.7215
  (the norm of the test charge is              1.0000)
       1 -72.7658       2 -72.7268       3 -72.7268       4 -72.7269       5 -72.7370
       6 -72.7266       7 -72.7264       8 -72.7261       9 -72.7387      10 -73.0834
      11 -73.0359      12 -73.0832      13 -73.0379      14 -73.0376      15 -73.0735
      16 -73.0844      17 -73.0765      18 -73.0767      19 -73.0131      20 -73.1265
      21 -73.1264      22 -73.0475      23 -73.1320      24 -73.0473      25 -73.0156
      26 -73.0156      27 -73.0497      28 -72.6702      29 -72.7509      30 -72.7504
      31 -72.7343      32 -72.7335      33 -72.6832      34 -72.6831      35 -72.6527
      36 -48.5758      37 -40.7824      38 -40.7858      39 -77.3826
 
 
 
 E-fermi :   0.2973     XC(G=0):  -5.5553     alpha+bet : -5.1640

 Fermi energy:         0.2972989661

 k-point     1 :       0.0000    0.0000    0.0000
  band No.  band energies     occupation 
      1     -21.9280      2.00000
      2      -9.6765      2.00000
      3      -8.5209      2.00000
      4      -7.3481      2.00000
      5      -6.5339      2.00000
      6      -6.3933      2.00000
      7      -6.3651      2.00000
      8      -6.3614      2.00000
      9      -6.3496      2.00000
     10      -6.3472      2.00000
     11      -6.3293      2.00000
     12      -6.3286      2.00000
     13      -6.1930      2.00000
     14      -5.8902      2.00000
     15      -5.8733      2.00000
     16      -5.8727      2.00000
     17      -5.8445      2.00000
     18      -5.8411      2.00000
     19      -5.8397      2.00000
     20      -5.5002      2.00000
     21      -5.4978      2.00000
     22      -5.4852      2.00000
     23      -5.4716      2.00000
     24      -5.4471      2.00000
     25      -5.4468      2.00000
     26      -5.3434      2.00000
     27      -5.3173      2.00000
     28      -5.3164      2.00000
     29      -5.2905      2.00000
     30      -5.2869      2.00000
     31      -5.2852      2.00000
     32      -5.1545      2.00000
     33      -5.1540      2.00000
     34      -5.1437      2.00000
     35      -5.1413      2.00000
     36      -5.1329      2.00000
     37      -5.1327      2.00000
     38      -5.1197      2.00000
     39      -5.1118      2.00000
     40      -5.0957      2.00000
     41      -5.0473      2.00000
     42      -4.9521      2.00000
     43      -4.9504      2.00000
     44      -4.7021      2.00000
     45      -4.6449      2.00000
     46      -4.6446      2.00000
     47      -4.6057      2.00000
     48      -4.5910      2.00000
     49      -4.5863      2.00000
     50      -4.5733      2.00000
     51      -4.5703      2.00000
     52      -4.5232      2.00000
     53      -4.5209      2.00000
     54      -4.4928      2.00000
     55      -4.4783      2.00000
     56      -4.4719      2.00000
     57      -4.4310      2.00000
     58      -4.3957      2.00000
     59      -4.0548      2.00000
     60      -4.0521      2.00000
     61      -4.0341      2.00000
     62      -4.0341      2.00000
     63      -4.0188      2.00000
     64      -4.0166      2.00000
     65      -3.9992      2.00000
[...]
  0.000   0.000   0.000   0.000   0.000   0.000   0.000   0.000   0.000   0.000   1.000   0.000   0.000   0.000   0.000   0.000
  0.000   0.000   0.000   0.000   0.000   0.000   0.000   0.000   0.000   0.000   0.000   0.000   0.000   0.000   0.000   0.000
  0.000   0.000   0.000   0.000   0.000   0.000   0.000   0.000   0.000   0.000   0.000   0.000   0.000   0.000   0.000   0.000
  0.000   0.000   0.000   0.000   0.000   0.000   0.000   0.000   0.000   0.000   0.000   0.000   0.000   0.000   0.000   0.000
  0.000   0.000   0.000   0.000   0.000   0.000   0.000   0.000   0.000   0.000   0.000   0.000   0.000   0.000   0.000   0.000
  0.000   0.000   0.000   0.000   0.000   0.000   0.000   0.000   0.000   0.000   0.000   0.000   0.000   0.000   0.000   0.000
  0.000   0.000   0.000   0.000   0.000   0.000   0.000   0.000   0.000   0.000   0.000   0.000   0.000   0.000   0.000   0.000
  0.000   0.000   0.000   0.000   0.000   0.000   0.000   0.000   0.000   0.000   0.000   0.000   0.000   0.000   0.000   0.000


------------------------ aborting loop because EDIFF is reached ----------------------------------------





 total charge

# of ion       s       p       d       tot
------------------------------------------
    1        0.546   0.239   8.768   9.553
    2        0.545   0.241   8.765   9.551
    3        0.545   0.241   8.765   9.551
    4        0.545   0.241   8.765   9.551
    5        0.543   0.242   8.762   9.547
    6        0.545   0.241   8.765   9.551
    7        0.545   0.241   8.766   9.551
    8        0.545   0.241   8.766   9.551
    9        0.542   0.239   8.770   9.551
   10        0.523   0.308   8.771   9.601
   11        0.523   0.307   8.780   9.611
   12        0.523   0.308   8.771   9.601
   13        0.522   0.308   8.780   9.610
   14        0.522   0.308   8.780   9.610
   15        0.517   0.309   8.777   9.603
   16        0.523   0.308   8.770   9.601
   17        0.516   0.309   8.777   9.603
   18        0.516   0.309   8.777   9.603
   19        0.520   0.300   8.774   9.594
   20        0.547   0.331   8.751   9.628
   21        0.547   0.331   8.751   9.628
   22        0.511   0.310   8.777   9.598
   23        0.547   0.331   8.749   9.627
   24        0.511   0.310   8.777   9.598
   25        0.518   0.300   8.774   9.593
   26        0.518   0.300   8.774   9.593
   27        0.513   0.310   8.776   9.599
   28        0.539   0.226   8.765   9.530
   29        0.565   0.245   8.751   9.562
   30        0.565   0.245   8.751   9.562
   31        0.565   0.243   8.752   9.560
   32        0.565   0.243   8.752   9.560
   33        0.558   0.237   8.757   9.551
   34        0.558   0.237   8.757   9.551
   35        0.533   0.227   8.766   9.526
   36        0.319   0.305   6.183   6.807
   37        0.601   0.118   0.000   0.719
   38        0.601   0.118   0.000   0.719
   39        1.569   3.602   0.000   5.171
--------------------------------------------------
tot         21.858  13.808 313.011 348.677
 
    CHARGE:  cpu time    1.2222: real time    1.2223
    FORLOC:  cpu time    0.0125: real time    0.0125
    FORNL :  cpu time    5.2954: real time    5.2956
    STRESS:  cpu time   15.8905: real time   15.8908
    FORCOR:  cpu time    0.0500: real time    0.0501
    FORHAR:  cpu time    0.0196: real time    0.0196
    OFIELD:  cpu time    0.0003: real time    0.0003

  FORCE on cell =-STRESS in cart. coord.  units (eV):
  Direction    XX          YY          ZZ          XY          YZ          ZX
  --------------------------------------------------------------------------------------
  Alpha Z   920.39128   920.39128   920.39128
  Ewald  157627.72880157564.06954************     0.03413   -16.01131     0.33411
  Hartree166145.80537166133.55796************     0.00503    -0.46828     0.10104
  E(xc)   -1802.42056 -1802.67253 -1809.38393     0.00012    -0.04749     0.00116
  Local  ************************336153.13098    -0.02673     9.98064    -0.36188
  n-local  -111.76698  -112.93960   -86.70032     0.00562     0.07987    -0.00851
  augment  2409.31672  2410.54961  2424.89123    -0.00172     0.34479    -0.00250
  Kinetic  5555.21688  5573.16781  5627.16956    -0.01122     6.08570    -0.06609
  Fock        0.00000     0.00000     0.00000     0.00000     0.00000     0.00000
  -------------------------------------------------------------------------------------
  Total     -22.92294   -23.18690     0.40650     0.00524    -0.03608    -0.00266
  in kB     -22.06370   -22.31776     0.39127     0.00504    -0.03473    -0.00256
  external pressure =      -14.66 kB  Pullay stress =        0.00 kB


 VOLUME and BASIS-vectors are now :
 -----------------------------------------------------------------------------
  energy-cutoff  :      500.00
  volume of cell :     1664.57
      direct lattice vectors                 reciprocal lattice vectors
     8.813512802  0.000000000  0.000000000     0.113462137 -0.065507406  0.000000000
     4.406756909  7.632725690  0.000000000     0.000000000  0.131014796  0.000000000
     0.000000000  0.000000000 24.744230039     0.000000000  0.000000000  0.040413462

  length of vectors
     8.813512802  8.813512802 24.744230039     0.131014796  0.131014796  0.040413462


 FORCES acting on ions
    electron-ion (+dipol)            ewald-force                    non-local-force                 convergence-correction
 -----------------------------------------------------------------------------------------------
   0.225E-02 -.608E-02 0.270E+04   -.250E-03 -.112E-01 -.270E+04   0.502E-04 0.131E-01 -.797E+00   -.206E-02 0.655E-02 -.271E+00
   0.557E+00 0.362E+00 0.270E+04   -.664E+00 -.480E+00 -.270E+04   0.457E-01 0.703E-01 -.204E+00   0.585E-01 0.601E-01 -.342E+00
   -.559E+00 0.350E+00 0.270E+04   0.664E+00 -.480E+00 -.270E+04   -.458E-01 0.704E-01 -.204E+00   -.564E-01 0.710E-01 -.338E+00
   0.602E+00 0.287E+00 0.270E+04   -.738E+00 -.322E+00 -.270E+04   0.711E-01 -.585E-02 -.206E+00   0.728E-01 0.297E-01 -.347E+00
   -.150E-01 -.342E-01 0.270E+04   0.648E-03 0.190E-01 -.270E+04   0.355E-04 -.261E-02 -.141E+00   0.145E-01 0.151E-01 -.314E+00
   -.592E+00 0.283E+00 0.270E+04   0.737E+00 -.322E+00 -.270E+04   -.712E-01 -.566E-02 -.206E+00   -.826E-01 0.340E-01 -.342E+00
   0.200E-01 -.645E+00 0.270E+04   -.736E-01 0.802E+00 -.270E+04   0.354E-01 -.661E-01 -.240E+00   0.272E-01 -.918E-01 -.343E+00
   -.294E-01 -.638E+00 0.270E+04   0.737E-01 0.801E+00 -.270E+04   -.353E-01 -.661E-01 -.240E+00   -.179E-01 -.989E-01 -.342E+00
   0.139E-01 0.399E-01 0.270E+04   -.732E-04 -.739E-02 -.270E+04   0.372E-04 -.715E-02 -.475E+00   -.140E-01 -.237E-01 -.335E+00
   0.520E+01 0.299E+01 0.925E+03   -.496E+01 -.286E+01 -.925E+03   -.287E+00 -.167E+00 -.689E+00   0.858E-01 0.582E-01 0.429E+00
   -.161E-01 0.632E+01 0.935E+03   0.340E-02 -.647E+01 -.935E+03   0.441E-04 0.375E-01 -.295E+00   0.130E-01 0.685E-01 0.544E+00
   -.519E+01 0.297E+01 0.925E+03   0.496E+01 -.285E+01 -.925E+03   0.286E+00 -.167E+00 -.690E+00   -.942E-01 0.659E-01 0.428E+00
   0.546E+01 -.329E+01 0.935E+03   -.560E+01 0.335E+01 -.935E+03   0.499E-01 -.289E-01 -.331E+00   0.565E-01 -.150E-01 0.540E+00
   -.549E+01 -.328E+01 0.935E+03   0.561E+01 0.335E+01 -.935E+03   -.498E-01 -.288E-01 -.331E+00   -.348E-01 -.190E-01 0.537E+00
   0.152E-01 0.306E+01 0.928E+03   -.328E-02 -.313E+01 -.928E+03   0.145E-03 0.247E-01 -.530E+00   -.122E-01 0.674E-02 0.369E+00
   -.201E-02 -.587E+01 0.925E+03   0.624E-03 0.560E+01 -.925E+03   -.895E-04 0.344E+00 -.747E+00   0.147E-02 -.118E+00 0.438E+00
   0.277E+01 -.145E+01 0.928E+03   -.280E+01 0.150E+01 -.928E+03   0.650E-02 -.564E-02 -.548E+00   -.108E-01 -.243E-01 0.375E+00
   -.277E+01 -.146E+01 0.928E+03   0.280E+01 0.150E+01 -.928E+03   -.642E-02 -.575E-02 -.548E+00   0.100E-01 -.127E-01 0.378E+00
   0.341E-01 0.265E+01 -.881E+03   -.245E-01 -.285E+01 0.879E+03   -.126E-03 0.414E-01 0.493E+00   -.974E-02 0.131E+00 0.139E+01
   0.292E+02 0.162E+02 -.830E+03   -.291E+02 -.161E+02 0.828E+03   -.979E+00 -.555E+00 -.867E+00   0.820E+00 0.482E+00 0.242E+01
   -.292E+02 0.162E+02 -.830E+03   0.291E+02 -.161E+02 0.828E+03   0.980E+00 -.556E+00 -.868E+00   -.823E+00 0.486E+00 0.241E+01
   0.621E+01 -.389E+01 -.865E+03   -.690E+01 0.427E+01 0.863E+03   0.361E+00 -.178E+00 0.524E+00   0.352E+00 -.212E+00 0.150E+01
   -.222E-01 -.340E+02 -.832E+03   0.220E-01 0.338E+02 0.830E+03   -.231E-03 0.117E+01 -.859E+00   0.408E-03 -.956E+00 0.242E+01
   -.617E+01 -.386E+01 -.865E+03   0.688E+01 0.425E+01 0.863E+03   -.361E+00 -.178E+00 0.524E+00   -.365E+00 -.215E+00 0.150E+01
   -.283E+01 -.705E+00 -.881E+03   0.298E+01 0.852E+00 0.879E+03   -.174E-01 -.658E-01 0.569E+00   -.107E+00 -.707E-01 0.139E+01
   0.284E+01 -.675E+00 -.881E+03   -.299E+01 0.827E+00 0.879E+03   0.173E-01 -.657E-01 0.568E+00   0.994E-01 -.767E-01 0.139E+01
   -.212E-02 0.813E+01 -.864E+03   0.692E-02 -.893E+01 0.862E+03   0.177E-03 0.408E+00 0.476E+00   -.523E-02 0.410E+00 0.150E+01
   0.535E-01 0.225E+01 -.264E+04   -.536E-01 -.229E+01 0.264E+04   0.177E-03 0.305E-01 0.397E+00   -.190E-03 -.662E-02 0.941E+00
   0.409E+02 0.688E+02 -.261E+04   -.408E+02 -.687E+02 0.261E+04   -.725E+00 -.119E+01 -.202E+00   0.545E+00 0.910E+00 0.709E+00
   -.410E+02 0.685E+02 -.261E+04   0.409E+02 -.685E+02 0.261E+04   0.725E+00 -.119E+01 -.200E+00   -.544E+00 0.917E+00 0.708E+00
   0.762E+02 -.240E+01 -.261E+04   -.761E+02 0.245E+01 0.261E+04   -.143E+01 -.537E-01 -.127E+00   0.109E+01 0.287E-01 0.707E+00
   -.759E+02 -.237E+01 -.261E+04   0.758E+02 0.242E+01 0.261E+04   0.143E+01 -.545E-01 -.125E+00   -.109E+01 0.327E-01 0.703E+00
   0.331E+02 -.628E+02 -.262E+04   -.332E+02 0.628E+02 0.262E+04   -.531E+00 0.107E+01 0.358E+00   0.519E+00 -.946E+00 0.704E+00
   -.331E+02 -.626E+02 -.262E+04   0.333E+02 0.627E+02 0.262E+04   0.532E+00 0.107E+01 0.356E+00   -.512E+00 -.950E+00 0.703E+00
   0.512E-01 0.135E+01 -.265E+04   -.392E-01 -.135E+01 0.265E+04   -.302E-03 0.308E-02 0.496E+00   -.120E-01 -.779E-02 0.845E+00
   -.262E+00 -.687E+01 -.167E+04   0.259E+00 0.700E+01 0.167E+04   -.623E-02 -.119E+00 0.106E+01   0.900E-02 0.158E-01 0.374E+00
   0.676E+02 0.440E+02 -.299E+03   -.744E+02 -.484E+02 0.300E+03   0.669E+01 0.442E+01 -.165E+01   0.470E-01 0.346E-01 -.114E+00
   -.676E+02 0.440E+02 -.299E+03   0.743E+02 -.485E+02 0.301E+03   -.669E+01 0.442E+01 -.169E+01   -.464E-01 0.345E-01 -.114E+00
   -.107E+00 -.571E+02 -.170E+04   0.109E+00 0.100E+03 0.170E+04   0.106E-02 -.432E+02 0.566E+01   0.674E-03 0.113E-01 -.109E+01
 -----------------------------------------------------------------------------------------------
   0.234E-01 0.347E+02 -.189E+02   0.113E-12 -.412E-12 -.341E-11   0.126E-03 -.348E+02 -.254E+01   -.214E-01 0.649E-01 0.220E+02
 
 
 POSITION                                       TOTAL-FORCE (eV/Angst)
 -----------------------------------------------------------------------------------
      0.00000      0.00000      5.28038        -0.000064      0.002620     -0.059539
      2.93784      0.00000      5.28038        -0.002995      0.012243     -0.004221
      5.87568      0.00000      5.28038         0.002910      0.012300     -0.004245
      1.46892      2.54424      5.28038         0.008006     -0.010861     -0.000933
      4.40676      2.54424      5.28038         0.000160     -0.002525     -0.026065
      7.34459      2.54424      5.28038        -0.008118     -0.010852     -0.000772
      2.93784      5.08848      5.28038         0.008936     -0.000815     -0.004492
      5.87568      5.08848      5.28038        -0.009017     -0.000841     -0.004351
      8.81351      5.08848      5.28038        -0.000264      0.001906     -0.023360
      1.46892      0.84808      7.67911         0.040898      0.021893      0.100856
      4.40676      0.84808      7.67911         0.000216     -0.041415      0.003629
      7.34459      0.84808      7.67911        -0.041090      0.021898      0.100740
      2.93784      3.39232      7.67911        -0.031062      0.022051      0.003944
      5.87568      3.39232      7.67911         0.031451      0.022022      0.003899
      8.81351      3.39232      7.67911        -0.000132     -0.036979      0.062972
      4.40676      5.93656      7.67911        -0.000067     -0.046837      0.091189
      7.34459      5.93656      7.67911        -0.035874      0.020084      0.062644
     10.28243      5.93656      7.67911         0.035800      0.020169      0.062640
      8.81351      1.69603     10.07519        -0.000336     -0.025445     -0.027211
      2.95264      1.70471     10.05068         0.001339      0.003463     -0.096171
      5.86088      1.70471     10.05068        -0.001849      0.003639     -0.095599
     10.26798      4.24875     10.06116         0.013779     -0.008759     -0.007957
      4.40676      4.22331     10.05068        -0.000104     -0.000481     -0.051380
      7.35905      4.24875     10.06116        -0.014414     -0.008831     -0.007923
     11.75147      6.78471     10.07519         0.023730      0.010103     -0.016894
      5.87556      6.78471     10.07519        -0.024212      0.010049     -0.016846
      8.81351      6.76796     10.06116        -0.000316      0.013692     -0.021879
      0.00000      0.00000     12.48698        -0.000081     -0.011448     -0.138332
      2.98147      0.07441     12.46921        -0.103065     -0.205589     -0.074670
      5.83205      0.07441     12.46921         0.102635     -0.204421     -0.074016
      1.55518      2.54482     12.46921        -0.214669      0.020404     -0.087089
      7.25833      2.54482     12.46921         0.212370      0.020219     -0.085684
      2.98047      5.01349     12.46921        -0.134865      0.176540     -0.107701
      5.83305      5.01349     12.46921         0.134493      0.175825     -0.107282
      8.81351      5.08848     12.49182        -0.000299     -0.001584     -0.068699
      4.40676      2.54424     12.16047        -0.000132      0.028835      0.832081
      3.61934      1.99469     14.46454        -0.017751     -0.013613     -0.002291
      5.18714      1.99475     14.46887         0.020862     -0.015828     -0.003373
      4.40389      2.54823     14.26090         0.003194      0.027168     -0.105619
 -----------------------------------------------------------------------------------
    total drift:                                0.002124     -0.009771      0.597702


--------------------------------------------------------------------------------------------------------



  FREE ENERGIE OF THE ION-ELECTRON SYSTEM (eV)
  ---------------------------------------------------
  free  energy   TOTEN  =      -127.56113464 eV

  energy  without entropy=     -127.56113464  energy(sigma->0) =     -127.56113464
 


--------------------------------------------------------------------------------------------------------


    POTLOK:  cpu time    0.0595: real time    0.0595


--------------------------------------------------------------------------------------------------------


 stress matrix after NEB project (eV)
    -22.92294      0.00524     -0.00266
      0.00524    -23.18690     -0.03608
     -0.00266     -0.03608      0.40650
  FORCES: max atom, RMS     0.109103    0.018332
  FORCE total and by dimension    0.114483    0.105619
  Stress total and by dimension   32.607694   23.186901
     LOOP+:  cpu time  282.2078: real time  282.2224
 -----------------------------------------------------------------------------
|                                                                             |
|           W    W    AA    RRRRR   N    N  II  N    N   GGGG   !!!           |
|           W    W   A  A   R    R  NN   N  II  NN   N  G    G  !!!           |
|           W    W  A    A  R    R  N N  N  II  N N  N  G       !!!           |
|           W WW W  AAAAAA  RRRRR   N  N N  II  N  N N  G  GGG   !            |
|           WW  WW  A    A  R   R   N   NN  II  N   NN  G    G                |
|           W    W  A    A  R    R  N    N  II  N    N   GGGG   !!!           |
|                                                                             |
|     Tetrahedron method does not include variations of the Fermi             |
|     occupations, so forces and stress will be inaccurate. We suggest        |
|     using a different smearing scheme ISMEAR = 1 or 2 for metals in         |
|     relaxations.                                                            |
|                                                                             |
 -----------------------------------------------------------------------------

    4ORBIT:  cpu time    0.0000: real time    0.0000



 total charge

# of ion       s       p       d       tot
------------------------------------------
    1        0.546   0.239   8.768   9.553
    2        0.545   0.241   8.765   9.551
    3        0.545   0.241   8.765   9.551
    4        0.545   0.241   8.765   9.551
    5        0.543   0.242   8.762   9.547
    6        0.545   0.241   8.765   9.551
    7        0.545   0.241   8.766   9.551
    8        0.545   0.241   8.766   9.551
    9        0.542   0.239   8.770   9.551
   10        0.523   0.308   8.771   9.601
   11        0.523   0.307   8.780   9.611
   12        0.523   0.308   8.771   9.601
   13        0.522   0.308   8.780   9.610
   14        0.522   0.308   8.780   9.610
   15        0.517   0.309   8.777   9.603
   16        0.523   0.308   8.770   9.601
   17        0.516   0.309   8.777   9.603
   18        0.516   0.309   8.777   9.603
   19        0.520   0.300   8.774   9.594
   20        0.547   0.331   8.751   9.628
   21        0.547   0.331   8.751   9.628
   22        0.511   0.310   8.777   9.598
   23        0.547   0.331   8.749   9.627
   24        0.511   0.310   8.777   9.598
   25        0.518   0.300   8.774   9.593
   26        0.518   0.300   8.774   9.593
   27        0.513   0.310   8.776   9.599
   28        0.539   0.226   8.765   9.530
   29        0.565   0.245   8.751   9.562
   30        0.565   0.245   8.751   9.562
   31        0.565   0.243   8.752   9.560
   32        0.565   0.243   8.752   9.560
   33        0.558   0.237   8.757   9.551
   34        0.558   0.237   8.757   9.551
   35        0.533   0.227   8.766   9.526
   36        0.319   0.305   6.183   6.807
   37        0.601   0.118   0.000   0.719
   38        0.601   0.118   0.000   0.719
   39        1.569   3.602   0.000   5.171
--------------------------------------------------
tot         21.858  13.808 313.011 348.677
 
 BZINTS: Fermi energy:    0.297299;  401.000000 electrons
         Band energy:-0.141088E+04;  BLOECHL correction:   -0.052522

 total amount of memory used by VASP MPI-rank0   280244. kBytes
=======================================================================

   base      :      30000. kBytes
   nonlr-proj:      13677. kBytes
   fftplans  :       4808. kBytes
   grid      :      20723. kBytes
   one-center:        606. kBytes
   wavefun   :     210430. kBytes
 
  
  
 General timing and accounting informations for this job:
 ========================================================
  
                  Total CPU time used (sec):      305.474
                            User time (sec):      295.103
                          System time (sec):       10.371
                         Elapsed time (sec):      305.815
  
                   Maximum memory used (kb):      583312.
                   Average memory used (kb):          N/A
  
                          Minor page faults:       128968
                          Major page faults:            0
                 Voluntary context switches:         7062
