 vasp.6.2.0 18Jan21 (build Jun 12 2021 23:27:24) complex                        
  
 executed on             LinuxIFC date 2022.05.30  16:43:04
 running on   28 total cores
 distrk:  each k-point on   28 cores,    1 groups
 distr:  one band on NCORE=   1 cores,   28 groups


--------------------------------------------------------------------------------------------------------


 INCAR:
   ISMEAR = -5
   SIGMA = 0.1
   ISPIN = 1
   EDIFF = 1.d-5
   EDIFFG = -0.01
   NSW = 0
   NELM = 150
   ENCUT = 500
   ISIF = 2
   IBRION = 2
   LREAL = Auto
   ALGO = Fast
   ICHARG = 11
   LORBIT = 10
   LCHARG = .F.
   LWAVE = .F.

 POTCAR:    PAW_PBE Au 04Oct2007                  
 POTCAR:    PAW_PBE Pt 04Feb2005                  
 POTCAR:    PAW_PBE C 08Apr2002                   
 POTCAR:    PAW_PBE O 08Apr2002                   
 POTCAR:    PAW_PBE H 15Jun2001                   
 -----------------------------------------------------------------------------
|                                                                             |
|           W    W    AA    RRRRR   N    N  II  N    N   GGGG   !!!           |
|           W    W   A  A   R    R  NN   N  II  NN   N  G    G  !!!           |
|           W    W  A    A  R    R  N N  N  II  N N  N  G       !!!           |
|           W WW W  AAAAAA  RRRRR   N  N N  II  N  N N  G  GGG   !            |
|           WW  WW  A    A  R   R   N   NN  II  N   NN  G    G                |
|           W    W  A    A  R    R  N    N  II  N    N   GGGG   !!!           |
|                                                                             |
|     For optimal performance we recommend to set                             |
|       NCORE = 2 up to number-of-cores-per-socket                            |
|     NCORE specifies how many cores store one orbital (NPAR=cpu/NCORE).      |
|     This setting can greatly improve the performance of VASP for DFT.       |
|     The default, NCORE=1 might be grossly inefficient on modern             |
|     multi-core architectures or massively parallel machines. Do your        |
|     own testing! More info at https://www.vasp.at/wiki/index.php/NCORE      |
|     Unfortunately you need to use the default for GW and RPA                |
|     calculations (for HF NCORE is supported but not extensively tested      |
|     yet).                                                                   |
|                                                                             |
 -----------------------------------------------------------------------------

 POTCAR:    PAW_PBE Au 04Oct2007                  
   VRHFIN =Au: s1d10                                                                                
   LEXCH  = PE                                                                                      
   EATOM  =   926.0867 eV,   68.0654 Ry                                                             
                                                                                                    
   TITEL  = PAW_PBE Au 04Oct2007                                                                    
   LULTRA =        F    use ultrasoft PP ?                                                          
   IUNSCR =        1    unscreen: 0-lin 1-nonlin 2-no                                               
   RPACOR =    2.330    partial core radius                                                         
   POMASS =  196.966; ZVAL   =   11.000    mass and valenz                                          
   RCORE  =    2.500    outmost cutoff radius                                                       
   RWIGS  =    2.840; RWIGS  =    1.503    wigner-seitz radius (au A)                               
   ENMAX  =  229.943; ENMIN  =  172.457 eV                                                          
   ICORE  =        3    local potential                                                             
   LCOR   =        T    correct aug charges                                                         
   LPAW   =        T    paw PP                                                                      
   EAUG   =  356.670                                                                                
   DEXC   =    0.000                                                                                
   RMAX   =    2.562    core radius for proj-oper                                                   
   RAUG   =    1.300    factor for augmentation sphere                                              
   RDEP   =    2.598    radius for radial grids                                                     
   RDEPT  =    2.193    core radius for aug-charge                                                  
                                                                                                    
   Atomic configuration                                                                             
   16 entries                                                                                       
     n  l   j            E        occ.                                                              
     1  0  0.50    -80748.5001   2.0000                                                             
     2  0  0.50    -14244.7466   2.0000                                                             
     2  1  1.50    -12310.9591   6.0000                                                             
     3  0  0.50     -3362.1768   2.0000                                                             
     3  1  1.50     -2801.5463   6.0000                                                             
     3  2  2.50     -2203.8206  10.0000                                                             
     4  0  0.50      -729.8168   2.0000                                                             
     4  1  1.50      -546.0527   6.0000                                                             
     4  2  2.50      -325.7302  10.0000                                                             
     4  3  3.50       -81.1472  14.0000                                                             
     5  0  0.50      -108.3201   2.0000                                                             
     5  1  1.50       -59.7479   6.0000                                                             
     5  2  2.50        -6.8783  10.0000                                                             
     6  0  0.50        -5.7602   1.0000                                                             
     6  1  1.50        -6.8029   0.0000                                                             
     5  3  2.50        -1.3606   0.0000                                                             
   Description                                                                                      
     l       E           TYP  RCUT    TYP  RCUT                                                     
     2     -6.8782861     23  2.500                                                                 
     2     -8.2388687     23  2.500                                                                 
     0     -5.7601759     23  2.500                                                                 
     0     -0.8493231     23  2.500                                                                 
     1     -2.7211652     23  2.500                                                                 
     1     27.2116520     23  2.500                                                                 
     3     -1.3605826     23  2.500                                                                 
  local pseudopotential read in
  partial core-charges read in
  partial kinetic energy density read in
  atomic valenz-charges read in
  non local Contribution for L=           2  read in
    real space projection operators read in
  non local Contribution for L=           2  read in
    real space projection operators read in
  non local Contribution for L=           0  read in
    real space projection operators read in
  non local Contribution for L=           0  read in
    real space projection operators read in
  non local Contribution for L=           1  read in
    real space projection operators read in
  non local Contribution for L=           1  read in
    real space projection operators read in
    PAW grid and wavefunctions read in
 
   number of l-projection  operators is LMAX  =           6
   number of lm-projection operators is LMMAX =          18
 
 POTCAR:    PAW_PBE Pt 04Feb2005                  
   VRHFIN =Pt: s1d9                                                                                 
   LEXCH  = PE                                                                                      
   EATOM  =   729.1176 eV,   53.5886 Ry                                                             
                                                                                                    
   TITEL  = PAW_PBE Pt 04Feb2005                                                                    
   LULTRA =        F    use ultrasoft PP ?                                                          
   IUNSCR =        1    unscreen: 0-lin 1-nonlin 2-no                                               
   RPACOR =    2.330    partial core radius                                                         
   POMASS =  195.080; ZVAL   =   10.000    mass and valenz                                          
   RCORE  =    2.600    outmost cutoff radius                                                       
   RWIGS  =    2.750; RWIGS  =    1.455    wigner-seitz radius (au A)                               
   ENMAX  =  230.283; ENMIN  =  172.712 eV                                                          
   ICORE  =        3    local potential                                                             
   LCOR   =        T    correct aug charges                                                         
   LPAW   =        T    paw PP                                                                      
   EAUG   =  358.966                                                                                
   DEXC   =    0.000                                                                                
   RMAX   =    2.658    core radius for proj-oper                                                   
   RAUG   =    1.300    factor for augmentation sphere                                              
   RDEP   =    2.761    radius for radial grids                                                     
   RDEPT  =    2.203    core radius for aug-charge                                                  
                                                                                                    
   Atomic configuration                                                                             
   16 entries                                                                                       
     n  l   j            E        occ.                                                              
     1  0  0.50    -78401.1885   2.0000                                                             
     2  0  0.50    -13770.7750   2.0000                                                             
     2  1  1.50    -11931.0468   6.0000                                                             
     3  0  0.50     -3234.7234   2.0000                                                             
     3  1  1.50     -2699.2216   6.0000                                                             
     3  2  2.50     -2119.5714  10.0000                                                             
     4  0  0.50      -695.1528   2.0000                                                             
     4  1  1.50      -519.6034   6.0000                                                             
     4  2  2.50      -306.6786  10.0000                                                             
     4  3  3.50       -70.1041  14.0000                                                             
     5  0  0.50      -101.7747   2.0000                                                             
     5  1  1.50       -55.9873   6.0000                                                             
     5  2  2.50        -6.1423   9.0000                                                             
     6  0  0.50        -5.6573   1.0000                                                             
     6  1  1.50        -6.8029   0.0000                                                             
     5  3  2.50        -1.3606   0.0000                                                             
   Description                                                                                      
     l       E           TYP  RCUT    TYP  RCUT                                                     
     2     -6.1423404     23  2.500                                                                 
     2     -7.5029230     23  2.500                                                                 
     0     -5.6573207     23  2.500                                                                 
     0      0.7416693     23  2.500                                                                 
     1     -2.7211652     23  2.600                                                                 
     1     20.4087390     23  2.600                                                                 
     3     -1.3605826     23  2.500                                                                 
  local pseudopotential read in
  partial core-charges read in
  partial kinetic energy density read in
  atomic valenz-charges read in
  non local Contribution for L=           2  read in
    real space projection operators read in
  non local Contribution for L=           2  read in
    real space projection operators read in
  non local Contribution for L=           0  read in
    real space projection operators read in
  non local Contribution for L=           0  read in
    real space projection operators read in
  non local Contribution for L=           1  read in
    real space projection operators read in
  non local Contribution for L=           1  read in
    real space projection operators read in
    PAW grid and wavefunctions read in
 
   number of l-projection  operators is LMAX  =           6
   number of lm-projection operators is LMMAX =          18
 
 POTCAR:    PAW_PBE C 08Apr2002                   
   VRHFIN =C: s2p2                                                                                  
   LEXCH  = PE                                                                                      
   EATOM  =   147.1560 eV,   10.8157 Ry                                                             
                                                                                                    
   TITEL  = PAW_PBE C 08Apr2002                                                                     
   LULTRA =        F    use ultrasoft PP ?                                                          
   IUNSCR =        1    unscreen: 0-lin 1-nonlin 2-no                                               
   RPACOR =    1.200    partial core radius                                                         
   POMASS =   12.011; ZVAL   =    4.000    mass and valenz                                          
   RCORE  =    1.500    outmost cutoff radius                                                       
   RWIGS  =    1.630; RWIGS  =    0.863    wigner-seitz radius (au A)                               
   ENMAX  =  400.000; ENMIN  =  300.000 eV                                                          
   ICORE  =        2    local potential                                                             
   LCOR   =        T    correct aug charges                                                         
   LPAW   =        T    paw PP                                                                      
   EAUG   =  644.873                                                                                
   DEXC   =    0.000                                                                                
   RMAX   =    1.529    core radius for proj-oper                                                   
   RAUG   =    1.300    factor for augmentation sphere                                              
   RDEP   =    1.501    radius for radial grids                                                     
   RDEPT  =    1.300    core radius for aug-charge                                                  
                                                                                                    
   Atomic configuration                                                                             
    4 entries                                                                                       
     n  l   j            E        occ.                                                              
     1  0  0.50      -273.3789   2.0000                                                             
     2  0  0.50       -13.7508   2.0000                                                             
     2  1  0.50        -5.2854   2.0000                                                             
     3  2  1.50        -5.4423   0.0000                                                             
   Description                                                                                      
     l       E           TYP  RCUT    TYP  RCUT                                                     
     0    -13.7508458     23  1.200                                                                 
     0     -8.2022199     23  1.200                                                                 
     1     -5.2854383     23  1.500                                                                 
     1     34.0145650     23  1.500                                                                 
     2     -5.4423304      7  1.500                                                                 
  local pseudopotential read in
  partial core-charges read in
  partial kinetic energy density read in
  atomic valenz-charges read in
  non local Contribution for L=           0  read in
    real space projection operators read in
  non local Contribution for L=           0  read in
    real space projection operators read in
  non local Contribution for L=           1  read in
    real space projection operators read in
  non local Contribution for L=           1  read in
    real space projection operators read in
    PAW grid and wavefunctions read in
 
   number of l-projection  operators is LMAX  =           4
   number of lm-projection operators is LMMAX =           8
 
 POTCAR:    PAW_PBE O 08Apr2002                   
   VRHFIN =O: s2p4                                                                                  
   LEXCH  = PE                                                                                      
   EATOM  =   432.3788 eV,   31.7789 Ry                                                             
                                                                                                    
   TITEL  = PAW_PBE O 08Apr2002                                                                     
   LULTRA =        F    use ultrasoft PP ?                                                          
   IUNSCR =        1    unscreen: 0-lin 1-nonlin 2-no                                               
   RPACOR =    1.200    partial core radius                                                         
   POMASS =   16.000; ZVAL   =    6.000    mass and valenz                                          
   RCORE  =    1.520    outmost cutoff radius                                                       
   RWIGS  =    1.550; RWIGS  =    0.820    wigner-seitz radius (au A)                               
   ENMAX  =  400.000; ENMIN  =  300.000 eV                                                          
   ICORE  =        2    local potential                                                             
   LCOR   =        T    correct aug charges                                                         
   LPAW   =        T    paw PP                                                                      
   EAUG   =  605.392                                                                                
   DEXC   =    0.000                                                                                
   RMAX   =    1.553    core radius for proj-oper                                                   
   RAUG   =    1.300    factor for augmentation sphere                                              
   RDEP   =    1.550    radius for radial grids                                                     
   RDEPT  =    1.329    core radius for aug-charge                                                  
                                                                                                    
   Atomic configuration                                                                             
    4 entries                                                                                       
     n  l   j            E        occ.                                                              
     1  0  0.50      -514.6923   2.0000                                                             
     2  0  0.50       -23.9615   2.0000                                                             
     2  1  0.50        -9.0305   4.0000                                                             
     3  2  1.50        -9.5241   0.0000                                                             
   Description                                                                                      
     l       E           TYP  RCUT    TYP  RCUT                                                     
     0    -23.9615318     23  1.200                                                                 
     0     -9.5240782     23  1.200                                                                 
     1     -9.0304911     23  1.520                                                                 
     1      8.1634956     23  1.520                                                                 
     2     -9.5240782      7  1.500                                                                 
  local pseudopotential read in
  partial core-charges read in
  partial kinetic energy density read in
  kinetic energy density of atom read in
  atomic valenz-charges read in
  non local Contribution for L=           0  read in
    real space projection operators read in
  non local Contribution for L=           0  read in
    real space projection operators read in
  non local Contribution for L=           1  read in
    real space projection operators read in
  non local Contribution for L=           1  read in
    real space projection operators read in
    PAW grid and wavefunctions read in
 
   number of l-projection  operators is LMAX  =           4
   number of lm-projection operators is LMMAX =           8
 
 POTCAR:    PAW_PBE H 15Jun2001                   
   VRHFIN =H: ultrasoft test                                                                        
   LEXCH  = PE                                                                                      
   EATOM  =    12.4884 eV,    0.9179 Ry                                                             
                                                                                                    
   TITEL  = PAW_PBE H 15Jun2001                                                                     
   LULTRA =        F    use ultrasoft PP ?                                                          
   IUNSCR =        0    unscreen: 0-lin 1-nonlin 2-no                                               
   RPACOR =    0.000    partial core radius                                                         
   POMASS =    1.000; ZVAL   =    1.000    mass and valenz                                          
   RCORE  =    1.100    outmost cutoff radius                                                       
   RWIGS  =    0.700; RWIGS  =    0.370    wigner-seitz radius (au A)                               
   ENMAX  =  250.000; ENMIN  =  200.000 eV                                                          
   RCLOC  =    0.701    cutoff for local pot                                                        
   LCOR   =        T    correct aug charges                                                         
   LPAW   =        T    paw PP                                                                      
   EAUG   =  400.000                                                                                
   RMAX   =    1.123    core radius for proj-oper                                                   
   RAUG   =    1.200    factor for augmentation sphere                                              
   RDEP   =    1.112    radius for radial grids                                                     
   RDEPT  =    0.926    core radius for aug-charge                                                  
                                                                                                    
   Atomic configuration                                                                             
    2 entries                                                                                       
     n  l   j            E        occ.                                                              
     1  0  0.50        -6.4927   1.0000                                                             
     2  1  0.50        -3.4015   0.0000                                                             
   Description                                                                                      
     l       E           TYP  RCUT    TYP  RCUT                                                     
     0     -6.4927494     23  1.100                                                                 
     0      6.8029130     23  1.100                                                                 
     1     -4.0817478     23  1.100                                                                 
  local pseudopotential read in
  atomic valenz-charges read in
  non local Contribution for L=           0  read in
    real space projection operators read in
  non local Contribution for L=           0  read in
    real space projection operators read in
  non local Contribution for L=           1  read in
    real space projection operators read in
    PAW grid and wavefunctions read in
 
   number of l-projection  operators is LMAX  =           3
   number of lm-projection operators is LMMAX =           5
 
 Optimization of the real space projectors (new method)

 maximal supplied QI-value         = 15.12
 optimisation between [QCUT,QGAM] = [ 11.34, 22.83] = [ 36.00,145.93] Ry 
 Optimized for a Real-space Cutoff    1.39 Angstroem

   l    n(q)    QCUT    max X(q) W(low)/X(q) W(high)/X(q)  e(spline) 
   2      9    11.338    60.898    0.39E-03    0.42E-03    0.21E-06
   2      9    11.338    58.894    0.40E-03    0.42E-03    0.22E-06
   0      9    11.338   109.617    0.13E-03    0.20E-04    0.13E-06
   0      9    11.338    75.026    0.13E-03    0.20E-04    0.13E-06
   1      9    11.338    16.344    0.33E-04    0.24E-03    0.18E-06
   1      9    11.338    10.160    0.26E-04    0.19E-03    0.15E-06
 Optimization of the real space projectors (new method)

 maximal supplied QI-value         = 14.36
 optimisation between [QCUT,QGAM] = [ 11.35, 22.84] = [ 36.05,146.02] Ry 
 Optimized for a Real-space Cutoff    1.47 Angstroem

   l    n(q)    QCUT    max X(q) W(low)/X(q) W(high)/X(q)  e(spline) 
   2      9    11.346    66.195    0.31E-03    0.12E-04    0.29E-06
   2      9    11.346    64.643    0.32E-03    0.12E-04    0.29E-06
   0     10    11.346    95.520    0.90E-04    0.16E-04    0.19E-06
   0     10    11.346    63.403    0.87E-04    0.15E-04    0.19E-06
   1     10    11.346    19.961    0.17E-03    0.21E-03    0.11E-06
   1     10    11.346    13.289    0.14E-03    0.18E-03    0.89E-07
 Optimization of the real space projectors (new method)

 maximal supplied QI-value         = 25.13
 optimisation between [QCUT,QGAM] = [ 11.31, 22.87] = [ 35.82,146.48] Ry 
 Optimized for a Real-space Cutoff    1.00 Angstroem

   l    n(q)    QCUT    max X(q) W(low)/X(q) W(high)/X(q)  e(spline) 
   0      7    11.310   115.676    0.43E-03    0.13E-02    0.19E-06
   0      7    11.310    87.132    0.43E-03    0.13E-02    0.18E-06
   1      6    11.310     4.429    0.42E-03    0.74E-03    0.11E-06
   1      6    11.310     2.733    0.34E-03    0.55E-03    0.92E-07
 Optimization of the real space projectors (new method)

 maximal supplied QI-value         = 24.76
 optimisation between [QCUT,QGAM] = [ 11.39, 22.77] = [ 36.31,145.25] Ry 
 Optimized for a Real-space Cutoff    1.00 Angstroem

   l    n(q)    QCUT    max X(q) W(low)/X(q) W(high)/X(q)  e(spline) 
   0      7    11.387    20.381    0.39E-03    0.13E-02    0.15E-06
   0      7    11.387    15.268    0.42E-03    0.14E-02    0.17E-06
   1      6    11.387     5.964    0.41E-03    0.11E-02    0.17E-06
   1      6    11.387     5.382    0.39E-03    0.87E-03    0.15E-06
 Optimization of the real space projectors (new method)

 maximal supplied QI-value         = 34.20
 optimisation between [QCUT,QGAM] = [ 11.29, 22.57] = [ 35.68,142.71] Ry 
 Optimized for a Real-space Cutoff    1.16 Angstroem

   l    n(q)    QCUT    max X(q) W(low)/X(q) W(high)/X(q)  e(spline) 
   0      8    11.287    19.460    0.40E-03    0.73E-03    0.16E-06
   0      8    11.287    12.209    0.38E-03    0.70E-03    0.15E-06
   1      7    11.287     4.655    0.22E-03    0.25E-04    0.22E-06
  PAW_PBE Au 04Oct2007                  :
 energy of atom  1       EATOM= -926.0867
 kinetic energy error for atom=    0.0042 (will be added to EATOM!!)
  PAW_PBE Pt 04Feb2005                  :
 energy of atom  2       EATOM= -729.1176
 kinetic energy error for atom=    0.0039 (will be added to EATOM!!)
  PAW_PBE C 08Apr2002                   :
 energy of atom  3       EATOM= -147.1560
 kinetic energy error for atom=    0.0076 (will be added to EATOM!!)
  PAW_PBE O 08Apr2002                   :
 energy of atom  4       EATOM= -432.3788
 kinetic energy error for atom=    0.0224 (will be added to EATOM!!)
  PAW_PBE H 15Jun2001                   :
 energy of atom  5       EATOM=  -12.4884
 kinetic energy error for atom=    0.0020 (will be added to EATOM!!)
 
 
 POSCAR: Au-Pt-COH
  positions in direct lattice
  velocities in cartesian coordinates
 exchange correlation table for  LEXCH =        8
   RHO(1)=    0.500       N(1)  =     2000
   RHO(2)=  100.500       N(2)  =     4000

 VTST: version 3.2, (02/03/18)

 CHAIN: initializing optimizer
 
 OPT: Using VASP Conjugate-Gradient optimizer
 CHAIN: Read ICHAIN            0
 
 POSCAR: Au-Pt-COH
  positions in direct lattice
  velocities in cartesian coordinates
 


--------------------------------------------------------------------------------------------------------


 ion  position               nearest neighbor table
   1  0.000  0.000  0.197-  16 2.94  12 2.94   6 2.94   8 2.94   7 2.94   3 2.94  10 2.94   4 2.94
                             2 2.94
   2  0.333  0.000  0.197-   9 2.94  11 2.94  17 2.94  10 2.94   8 2.94   4 2.94   5 2.94   1 2.94
                             3 2.94
   3  0.667  0.000  0.197-   7 2.94  18 2.94  12 2.94   1 2.94  11 2.94   5 2.94   6 2.94   9 2.94
                             2 2.94
   4  0.000  0.333  0.197-  10 2.94   6 2.94   5 2.94  13 2.94   2 2.94  15 2.94   9 2.94   1 2.94
                             7 2.94
   5  0.333  0.333  0.197-  13 2.94   7 2.94  11 2.94   4 2.94   2 2.94  14 2.94   3 2.94   8 2.94
                             6 2.94
   6  0.667  0.333  0.197-  15 2.94  14 2.94   1 2.94  12 2.94   4 2.94   9 2.94   8 2.94   3 2.94
                             5 2.94
   7  0.000  0.667  0.197-  18 2.94   3 2.94  16 2.94   5 2.94   1 2.94  13 2.94   8 2.94   4 2.94
                             9 2.94
   8  0.333  0.667  0.197-   9 2.94  17 2.94   1 2.94   2 2.94  14 2.94  16 2.94   6 2.94   7 2.94
                             5 2.94
   9  0.667  0.667  0.197-   2 2.94   8 2.94  17 2.94   6 2.94  15 2.94   4 2.94   3 2.94  18 2.94
                             7 2.94
  10  0.111  0.111  0.287-  20 2.91  26 2.93  19 2.93  11 2.94  17 2.94   2 2.94   4 2.94   1 2.94
                            12 2.94  16 2.94  13 2.94  15 2.94
  11  0.444  0.111  0.287-  20 2.92  21 2.92  27 2.93  13 2.94   2 2.94  10 2.94  17 2.94   5 2.94
                             3 2.94  18 2.94  14 2.94  12 2.94
  12  0.778  0.111  0.287-  21 2.91  25 2.93  19 2.93  16 2.94  18 2.94   1 2.94  14 2.94  15 2.94
                             3 2.94   6 2.94  10 2.94  11 2.94
  13  0.111  0.444  0.287-  23 2.92  20 2.92  22 2.93   5 2.94  18 2.94  11 2.94   7 2.94   4 2.94
                            16 2.94  10 2.94  14 2.94  15 2.94
  14  0.444  0.444  0.287-  21 2.92  23 2.92  24 2.93  15 2.94   6 2.94  12 2.94   8 2.94  17 2.94
                             5 2.94  16 2.94  13 2.94  11 2.94
  15  0.778  0.444  0.287-  24 2.93  22 2.93  19 2.93  14 2.94   6 2.94  17 2.94  12 2.94   9 2.94
                             4 2.94  10 2.94  13 2.94  18 2.94
  16  0.111  0.778  0.287-  23 2.91  25 2.93  26 2.93  18 2.94  12 2.94   7 2.94   1 2.94   8 2.94
                            13 2.94  10 2.94  14 2.94  17 2.94
  17  0.444  0.778  0.287-  27 2.93  24 2.93  26 2.93   9 2.94  15 2.94   2 2.94  10 2.94  11 2.94
                             8 2.94  14 2.94  16 2.94  18 2.94
  18  0.778  0.778  0.287-  22 2.93  27 2.93  25 2.93  16 2.94   7 2.94  13 2.94  12 2.94   3 2.94
                            11 2.94   9 2.94  15 2.94  17 2.94
  19  0.889  0.222  0.377-  21 2.93  20 2.93  15 2.93  10 2.93  12 2.93  24 2.94  22 2.94  26 2.94
                            25 2.94  28 2.96  32 2.96  31 2.96
  20  0.221  0.221  0.376-  36 2.82  10 2.91  11 2.92  13 2.92  26 2.93  19 2.93  27 2.94  22 2.94
                            23 2.96  21 2.96  29 2.96  31 2.96
  21  0.557  0.221  0.376-  36 2.82  12 2.91  14 2.92  11 2.92  25 2.93  19 2.93  24 2.94  27 2.94
                            20 2.96  23 2.96  30 2.96  32 2.96
  22  0.888  0.556  0.376-  18 2.93  15 2.93  24 2.93  27 2.93  13 2.93  25 2.94  19 2.94  23 2.94
                            20 2.94  35 2.96  33 2.96  31 2.96
  23  0.221  0.557  0.376-  36 2.82  16 2.91  13 2.92  14 2.92  25 2.93  26 2.93  22 2.94  24 2.94
                            20 2.96  21 2.96  33 2.96  34 2.96
  24  0.556  0.556  0.376-  15 2.93  17 2.93  27 2.93  22 2.93  14 2.93  26 2.94  19 2.94  21 2.94
                            23 2.94  35 2.96  32 2.96  34 2.96
  25  0.889  0.889  0.377-  23 2.93  21 2.93  18 2.93  16 2.93  12 2.93  22 2.94  27 2.94  19 2.94
                            26 2.94  28 2.96  33 2.96  30 2.96
  26  0.222  0.889  0.377-  20 2.93  23 2.93  17 2.93  10 2.93  16 2.93  27 2.94  24 2.94  19 2.94
                            25 2.94  28 2.96  29 2.96  34 2.96
  27  0.556  0.888  0.376-  17 2.93  18 2.93  24 2.93  22 2.93  11 2.93  26 2.94  25 2.94  20 2.94
                            21 2.94  35 2.96  29 2.96  30 2.96
  28  0.000  0.000  0.467-  34 2.95  32 2.95  33 2.95  30 2.95  31 2.95  29 2.95  25 2.96  19 2.96
                            26 2.96
  29  0.333  0.002  0.467-  30 2.92  31 2.92  36 2.93  35 2.95  28 2.95  27 2.96  20 2.96  26 2.96
                            34 2.98
  30  0.664  0.002  0.467-  29 2.92  32 2.92  36 2.93  35 2.95  28 2.95  27 2.96  21 2.96  25 2.96
                            33 2.98
  31  0.002  0.333  0.467-  33 2.92  29 2.92  36 2.93  35 2.95  28 2.95  22 2.96  20 2.96  19 2.96
                            32 2.98
  32  0.664  0.333  0.467-  34 2.92  30 2.92  36 2.93  35 2.95  28 2.95  24 2.96  21 2.96  19 2.96
                            31 2.98
  33  0.002  0.664  0.467-  31 2.92  34 2.92  36 2.93  35 2.95  28 2.95  22 2.96  23 2.96  25 2.96
                            30 2.98
  34  0.333  0.664  0.467-  32 2.92  33 2.92  36 2.93  35 2.95  28 2.95  24 2.96  23 2.96  26 2.96
                            29 2.98
  35  0.667  0.667  0.467-  29 2.95  34 2.95  32 2.95  31 2.95  30 2.95  33 2.95  24 2.96  27 2.96
                            22 2.96
  36  0.333  0.333  0.460-  37 1.80  20 2.82  23 2.82  21 2.82  33 2.93  31 2.93  29 2.93  30 2.93
                            34 2.93  32 2.93
  37  0.333  0.333  0.527-  38 1.24  36 1.80
  38  0.333  0.333  0.573-  39 0.97  37 1.24
  39  0.333  0.333  0.609-  38 0.97
 
  LATTYP: Found a hexagonal cell.
 ALAT       =     8.8135128021
 C/A-ratio  =     3.0356784858
  
  Lattice vectors:
  
 A1 = (  -4.4067569092,  -7.6327256898,   0.0000000000)
 A2 = (   8.8135128021,   0.0000000000,   0.0000000000)
 A3 = (   0.0000000000,   0.0000000000,  26.7549911976)


Analysis of symmetry for initial positions (statically):
=====================================================================
 Subroutine PRICEL returns:
 Original cell was already a primitive cell.
 

 Routine SETGRP: Setting up the symmetry group for a 
 hexagonal supercell.


 Subroutine GETGRP returns: Found  6 space group operations
 (whereof  6 operations were pure point group operations)
 out of a pool of 24 trial point group operations.


The static configuration has the point symmetry C_3v.


Analysis of symmetry for dynamics (positions and initial velocities):
=====================================================================
 Subroutine PRICEL returns:
 Original cell was already a primitive cell.
 

 Routine SETGRP: Setting up the symmetry group for a 
 hexagonal supercell.


 Subroutine GETGRP returns: Found  6 space group operations
 (whereof  6 operations were pure point group operations)
 out of a pool of 24 trial point group operations.


The dynamic configuration has the point symmetry C_3v.


Analysis of constrained symmetry for selective dynamics:
=====================================================================
 Subroutine PRICEL returns:
 Original cell was already a primitive cell.
 

 Routine SETGRP: Setting up the symmetry group for a 
 hexagonal supercell.


 Subroutine GETGRP returns: Found  6 space group operations
 (whereof  6 operations were pure point group operations)
 out of a pool of 24 trial point group operations.


The constrained configuration has the point symmetry C_3v.


 Subroutine INISYM returns: Found  6 space group operations
 (whereof  6 operations are pure point group operations),
 and found     1 'primitive' translations


----------------------------------------------------------------------------------------

                                     Primitive cell                                     

  volume of cell :    1799.8384

  direct lattice vectors                    reciprocal lattice vectors
     8.813512802  0.000000000  0.000000000     0.113462137 -0.065507406  0.000000000
     4.406756909  7.632725690  0.000000000     0.000000000  0.131014796  0.000000000
     0.000000000  0.000000000 26.754991198     0.000000000  0.000000000  0.037376204

  length of vectors
     8.813512802  8.813512802 26.754991198     0.131014796  0.131014796  0.037376204

  position of ions in fractional coordinates (direct lattice)
     0.000000000  0.000000000  0.197360556
     0.333333343  0.000000000  0.197360556
     0.666666687  0.000000000  0.197360556
     0.000000000  0.333333343  0.197360556
     0.333333313  0.333333343  0.197360556
     0.666666687  0.333333343  0.197360556
     0.000000000  0.666666687  0.197360556
     0.333333343  0.666666687  0.197360556
     0.666666627  0.666666687  0.197360556
     0.111111119  0.111111112  0.287016131
     0.444444418  0.111111112  0.287016131
     0.777777791  0.111111112  0.287016131
     0.111111127  0.444444448  0.287016131
     0.444444478  0.444444448  0.287016131
     0.777777731  0.444444448  0.287016131
     0.111111090  0.777777791  0.287016131
     0.444444448  0.777777791  0.287016131
     0.777777851  0.777777791  0.287016131
     0.888828178  0.222343660  0.376503083
     0.221445935  0.221445920  0.375565076
     0.557108191  0.221445920  0.375565076
     0.888066827  0.555966617  0.376255438
     0.221445890  0.557108191  0.375565076
     0.555966617  0.555966617  0.376255438
     0.888828178  0.888828178  0.376503083
     0.222343690  0.888828178  0.376503083
     0.555966557  0.888066827  0.376255438
     0.000000000  0.000000000  0.467167046
     0.333456755  0.002060750  0.466947289
     0.664482524  0.002060750  0.466947289
     0.002060750  0.333456755  0.466947289
     0.664482524  0.333456755  0.466947289
     0.002060750  0.664482524  0.466947289
     0.333456755  0.664482524  0.466947289
     0.666666627  0.666666687  0.467075488
     0.333333313  0.333333343  0.459658805
     0.333333313  0.333333343  0.526756330
     0.333333313  0.333333343  0.573091238
     0.333333313  0.333333343  0.609335183

  ion indices of the primitive-cell ions
   primitive index   ion index
                 1           1
                 2           2
                 3           3
                 4           4
                 5           5
                 6           6
                 7           7
                 8           8
                 9           9
                10          10
                11          11
                12          12
                13          13
                14          14
                15          15
                16          16
                17          17
                18          18
                19          19
                20          20
                21          21
                22          22
                23          23
                24          24
                25          25
                26          26
                27          27
                28          28
                29          29
                30          30
                31          31
                32          32
                33          33
                34          34
                35          35
                36          36
                37          37
                38          38
                39          39

----------------------------------------------------------------------------------------

 
 
 KPOINTS: Automatic mesh                          

Automatic generation of k-mesh.
 Grid dimensions read from file:
 generate k-points for:    8    8    1

 Generating k-lattice:

  Cartesian coordinates                     Fractional coordinates (reciprocal lattice)
     0.014182767 -0.008188426  0.000000000     0.125000000  0.000000000  0.000000000
     0.000000000  0.016376850  0.000000000     0.000000000  0.125000000  0.000000000
     0.000000000  0.000000000  0.037376204     0.000000000  0.000000000  1.000000000

  Length of vectors
     0.016376850  0.016376850  0.037376204

  Shift w.r.t. Gamma in fractional coordinates (k-lattice)
     0.000000000  0.000000000  0.000000000

 TETIRR: Found     36 inequivalent tetrahedra from      384
 
 Subroutine IBZKPT returns following result:
 ===========================================
 
 Found     10 irreducible k-points:
 
 Following reciprocal coordinates:
            Coordinates               Weight
  0.000000  0.000000  0.000000      1.000000
  0.125000  0.000000  0.000000      6.000000
  0.250000  0.000000  0.000000      6.000000
  0.375000  0.000000  0.000000      6.000000
  0.500000  0.000000  0.000000      3.000000
  0.250000  0.125000  0.000000      6.000000
  0.375000  0.125000  0.000000     12.000000
  0.500000  0.125000  0.000000     12.000000
  0.500000  0.250000  0.000000      6.000000
 -0.375000  0.250000  0.000000      6.000000
 
 Following cartesian coordinates:
            Coordinates               Weight
  0.000000  0.000000  0.000000      1.000000
  0.014183 -0.008188  0.000000      6.000000
  0.028366 -0.016377  0.000000      6.000000
  0.042548 -0.024565  0.000000      6.000000
  0.056731 -0.032754  0.000000      3.000000
  0.028366 -0.000000  0.000000      6.000000
  0.042548 -0.008188  0.000000     12.000000
  0.056731 -0.016377  0.000000     12.000000
  0.056731 -0.000000  0.000000      6.000000
 -0.042548  0.057319  0.000000      6.000000
 


--------------------------------------------------------------------------------------------------------




 Dimension of arrays:
   k-points           NKPTS =     10   k-points in BZ     NKDIM =     10   number of bands    NBANDS=    252
   number of dos      NEDOS =    301   number of ions     NIONS =     39
   non local maximal  LDIM  =      6   non local SUM 2l+1 LMDIM =     18
   total plane-waves  NPLWV = 345600
   max r-space proj   IRMAX =   2627   max aug-charges    IRDMAX=  11941
   dimension x,y,z NGX =    48 NGY =   48 NGZ =  150
   dimension x,y,z NGXF=    96 NGYF=   96 NGZF=  300
   support grid    NGXF=    96 NGYF=   96 NGZF=  300
   ions per type =              35   1   1   1   1
   NGX,Y,Z   is equivalent  to a cutoff of   9.05,  9.05,  9.32 a.u.
   NGXF,Y,Z  is equivalent  to a cutoff of  18.11, 18.11, 18.64 a.u.

 SYSTEM =  unknown system                          
 POSCAR =  Au-Pt-COH                               

 Startparameter for this run:
   NWRITE =      2    write-flag & timer
   PREC   = normal    normal or accurate (medium, high low for compatibility)
   ISTART =      0    job   : 0-new  1-cont  2-samecut
   ICHARG =     11    charge: 1-file 2-atom 10-const
   ISPIN  =      1    spin polarized calculation?
   LNONCOLLINEAR =      F non collinear calculations
   LSORBIT =      F    spin-orbit coupling
   INIWAV =      1    electr: 0-lowe 1-rand  2-diag
   LASPH  =      F    aspherical Exc in radial PAW
   METAGGA=      F    non-selfconsistent MetaGGA calc.

 Electronic Relaxation 1
   ENCUT  =  500.0 eV  36.75 Ry    6.06 a.u.  16.07 16.07 48.78*2*pi/ulx,y,z
   ENINI  =  500.0     initial cutoff
   ENAUG  =  644.9 eV  augmentation charge cutoff
   NELM   =    150;   NELMIN=  2; NELMDL= -5     # of ELM steps 
   EDIFF  = 0.1E-04   stopping-criterion for ELM
   LREAL  =      T    real-space projection
   NLSPLINE    = F    spline interpolate recip. space projectors
   LCOMPAT=      F    compatible to vasp.4.4
   GGA_COMPAT  = T    GGA compatible to vasp.4.4-vasp.4.6
   LMAXPAW     = -100 max onsite density
   LMAXMIX     =    2 max onsite mixed and CHGCAR
   VOSKOWN=      0    Vosko Wilk Nusair interpolation
   ROPT   =   -0.00050  -0.00050  -0.00050  -0.00050
   ROPT   =   -0.00050
 Ionic relaxation
   EDIFFG = -.1E-01   stopping-criterion for IOM
   NSW    =      0    number of steps for IOM
   NBLOCK =      1;   KBLOCK =      1    inner block; outer block 
   IBRION =     -1    ionic relax: 0-MD 1-quasi-New 2-CG
   NFREE  =      1    steps in history (QN), initial steepest desc. (CG)
   ISIF   =      2    stress and relaxation
   IWAVPR =     10    prediction:  0-non 1-charg 2-wave 3-comb
   ISYM   =      2    0-nonsym 1-usesym 2-fastsym
   LCORR  =      T    Harris-Foulkes like correction to forces

   POTIM  = 0.5000    time-step for ionic-motion
   TEIN   =    0.0    initial temperature
   TEBEG  =    0.0;   TEEND  =   0.0 temperature during run
   SMASS  =  -3.00    Nose mass-parameter (am)
   estimated Nose-frequenzy (Omega)   =  0.10E-29 period in steps = 0.13E+47 mass=  -0.178E-26a.u.
   SCALEE = 1.0000    scale energy and forces
   NPACO  =    256;   APACO  = 16.0  distance and # of slots for P.C.
   PSTRESS=    0.0 pullay stress

  Mass of Ions in am
   POMASS = 196.97195.08 12.01 16.00  1.00
  Ionic Valenz
   ZVAL   =  11.00 10.00  4.00  6.00  1.00
  Atomic Wigner-Seitz radii
   RWIGS  =  -1.00 -1.00 -1.00 -1.00 -1.00
  virtual crystal weights 
   VCA    =   1.00  1.00  1.00  1.00  1.00
   NELECT =     406.0000    total number of electrons
   NUPDOWN=      -1.0000    fix difference up-down

 DOS related values:
   EMIN   =  10.00;   EMAX   =-10.00  energy-range for DOS
   EFERMI =   0.00
   ISMEAR =    -5;   SIGMA  =   0.10  broadening in eV -4-tet -1-fermi 0-gaus

 Electronic relaxation 2 (details)
   IALGO  =     68    algorithm
   LDIAG  =      T    sub-space diagonalisation (order eigenvalues)
   LSUBROT=      F    optimize rotation matrix (better conditioning)
   TURBO    =      0    0=normal 1=particle mesh
   IRESTART =      0    0=no restart 2=restart with 2 vectors
   NREBOOT  =      0    no. of reboots
   NMIN     =      0    reboot dimension
   EREF     =   0.00    reference energy to select bands
   IMIX   =      4    mixing-type and parameters
     AMIX     =   0.40;   BMIX     =  1.00
     AMIX_MAG =   1.60;   BMIX_MAG =  1.00
     AMIN     =   0.10
     WC   =   100.;   INIMIX=   1;  MIXPRE=   1;  MAXMIX= -45

 Intra band minimization:
   WEIMIN = 0.0000     energy-eigenvalue tresh-hold
   EBREAK =  0.99E-08  absolut break condition
   DEPER  =   0.30     relativ break condition  

   TIME   =   0.40     timestep for ELM

  volume/ion in A,a.u.               =      46.15       311.43
  Fermi-wavevector in a.u.,A,eV,Ry     =   0.996565  1.883235 13.512517  0.993142
  Thomas-Fermi vector in A             =   2.128662
 
 Write flags
   LWAVE        =      F    write WAVECAR
   LDOWNSAMPLE  =      F    k-point downsampling of WAVECAR
   LCHARG       =      F    write CHGCAR
   LVTOT        =      F    write LOCPOT, total local potential
   LVHAR        =      F    write LOCPOT, Hartree potential only
   LELF         =      F    write electronic localiz. function (ELF)
   LORBIT       =     10    0 simple, 1 ext, 2 COOP (PROOUT), +10 PAW based schemes


 Dipole corrections
   LMONO  =      F    monopole corrections only (constant potential shift)
   LDIPOL =      F    correct potential (dipole corrections)
   IDIPOL =      0    1-x, 2-y, 3-z, 4-all directions 
   EPSILON=  1.0000000 bulk dielectric constant

 Exchange correlation treatment:
   GGA     =    --    GGA type
   LEXCH   =     8    internal setting for exchange type
   VOSKOWN=      0    Vosko Wilk Nusair interpolation
   LHFCALC =     F    Hartree Fock is set to
   LHFONE  =     F    Hartree Fock one center treatment
   AEXX    =    0.0000 exact exchange contribution

 Linear response parameters
   LEPSILON=     F    determine dielectric tensor
   LRPA    =     F    only Hartree local field effects (RPA)
   LNABLA  =     F    use nabla operator in PAW spheres
   LVEL    =     F    velocity operator in full k-point grid
   LINTERFAST=   F  fast interpolation
   KINTER  =     0    interpolate to denser k-point grid
   CSHIFT  =0.1000    complex shift for real part using Kramers Kronig
   OMEGAMAX=  -1.0    maximum frequency
   DEG_THRESHOLD= 0.2000000E-02 threshold for treating states as degnerate
   RTIME   =   -0.100 relaxation time in fs
  (WPLASMAI=    0.000 imaginary part of plasma frequency in eV, 0.658/RTIME)
   DFIELD  = 0.0000000 0.0000000 0.0000000 field for delta impulse in time
 
 Orbital magnetization related:
   ORBITALMAG=     F  switch on orbital magnetization
   LCHIMAG   =     F  perturbation theory with respect to B field
   DQ        =  0.001000  dq finite difference perturbation B field
   LLRAUG    =     F  two centre corrections for induced B field



--------------------------------------------------------------------------------------------------------


 Static calculation
 charge density and potential remain constant during run
 non-spin polarized calculation
 RMM-DIIS sequential band-by-band and
  variant of blocked Davidson during initial phase
 perform sub-space diagonalisation
    before iterative eigenvector-optimisation
 no mixing
 using additional bands           49
 real space projection scheme for non local part
 use partial core corrections
 calculate Harris-corrections to forces 
   (improved forces if not selfconsistent)
 use gradient corrections 
 WARNING: stress and forces are not correct
  (second derivative of E(xc) not defined)
 use of overlap-Matrix (Vanderbilt PP)
 Fermi weights with tetrahedron method with Bloechl corrections


--------------------------------------------------------------------------------------------------------


  energy-cutoff  :      500.00
  volume of cell :     1799.84
      direct lattice vectors                 reciprocal lattice vectors
     8.813512802  0.000000000  0.000000000     0.113462137 -0.065507406  0.000000000
     4.406756909  7.632725690  0.000000000     0.000000000  0.131014796  0.000000000
     0.000000000  0.000000000 26.754991198     0.000000000  0.000000000  0.037376204

  length of vectors
     8.813512802  8.813512802 26.754991198     0.131014796  0.131014796  0.037376204


 
 k-points in units of 2pi/SCALE and weight: Automatic mesh                          
   0.00000000  0.00000000  0.00000000       0.016
   0.01418277 -0.00818843  0.00000000       0.094
   0.02836553 -0.01637685  0.00000000       0.094
   0.04254830 -0.02456528  0.00000000       0.094
   0.05673107 -0.03275370  0.00000000       0.047
   0.02836553 -0.00000000  0.00000000       0.094
   0.04254830 -0.00818843  0.00000000       0.188
   0.05673107 -0.01637685  0.00000000       0.188
   0.05673107 -0.00000000  0.00000000       0.094
  -0.04254830  0.05731898  0.00000000       0.094
 
 k-points in reciprocal lattice and weights: Automatic mesh                          
   0.00000000  0.00000000  0.00000000       0.016
   0.12500000  0.00000000  0.00000000       0.094
   0.25000000  0.00000000  0.00000000       0.094
   0.37500000  0.00000000  0.00000000       0.094
   0.50000000  0.00000000  0.00000000       0.047
   0.25000000  0.12500000  0.00000000       0.094
   0.37500000  0.12500000  0.00000000       0.188
   0.50000000  0.12500000  0.00000000       0.188
   0.50000000  0.25000000  0.00000000       0.094
  -0.37500000  0.25000000  0.00000000       0.094
 
 position of ions in fractional coordinates (direct lattice) 
   0.00000000  0.00000000  0.19736056
   0.33333334  0.00000000  0.19736056
   0.66666669  0.00000000  0.19736056
   0.00000000  0.33333334  0.19736056
   0.33333331  0.33333334  0.19736056
   0.66666669  0.33333334  0.19736056
   0.00000000  0.66666669  0.19736056
   0.33333334  0.66666669  0.19736056
   0.66666663  0.66666669  0.19736056
   0.11111112  0.11111111  0.28701613
   0.44444442  0.11111111  0.28701613
   0.77777779  0.11111111  0.28701613
   0.11111113  0.44444445  0.28701613
   0.44444448  0.44444445  0.28701613
   0.77777773  0.44444445  0.28701613
   0.11111109  0.77777779  0.28701613
   0.44444445  0.77777779  0.28701613
   0.77777785  0.77777779  0.28701613
   0.88882818  0.22234366  0.37650308
   0.22144593  0.22144592  0.37556508
   0.55710819  0.22144592  0.37556508
   0.88806683  0.55596662  0.37625544
   0.22144589  0.55710819  0.37556508
   0.55596662  0.55596662  0.37625544
   0.88882818  0.88882818  0.37650308
   0.22234369  0.88882818  0.37650308
   0.55596656  0.88806683  0.37625544
   0.00000000  0.00000000  0.46716705
   0.33345676  0.00206075  0.46694729
   0.66448252  0.00206075  0.46694729
   0.00206075  0.33345676  0.46694729
   0.66448252  0.33345676  0.46694729
   0.00206075  0.66448252  0.46694729
   0.33345676  0.66448252  0.46694729
   0.66666663  0.66666669  0.46707549
   0.33333331  0.33333334  0.45965881
   0.33333331  0.33333334  0.52675633
   0.33333331  0.33333334  0.57309124
   0.33333331  0.33333334  0.60933518
 
 position of ions in cartesian coordinates  (Angst):
   0.00000000  0.00000000  5.28037993
   2.93783769  0.00000000  5.28037993
   5.87567538  0.00000000  5.28037993
   1.46891901  2.54424197  5.28037993
   4.40675643  2.54424197  5.28037993
   7.34459439  2.54424197  5.28037993
   2.93783803  5.08848395  5.28037993
   5.87567571  5.08848395  5.28037993
   8.81351288  5.08848395  5.28037993
   1.46891893  0.84808064  7.67911405
   4.40675623  0.84808064  7.67911405
   7.34459418  0.84808064  7.67911405
   2.93783798  3.39232256  7.67911405
   5.87567574  3.39232256  7.67911405
   8.81351263  3.39232256  7.67911405
   4.40675667  5.93656453  7.67911405
   7.34459449  5.93656453  7.67911405
  10.28243270  5.93656453  7.67911405
   8.81351299  1.69708816 10.07333666
   2.92757492  1.69023596 10.04824031
   5.88593851  1.69023596 10.04824031
  10.27699808  4.24354068 10.06671093
   4.40675655  4.25225400 10.04824031
   7.35002862  4.24354068 10.06671093
  11.75054824  6.78418167 10.07333666
   5.87647867  6.78418167 10.07333666
   8.81351299  6.77837048 10.06671093
   0.00000000  0.00000000 12.49905020
   2.94800661  0.01572914 12.49317060
   5.86550646  0.01572914 12.49317060
   1.48762531  2.54518394 12.49317060
   7.32588810  2.54518394 12.49317060
   2.94637541  5.07181283 12.49317060
   5.86713834  5.07181283 12.49317060
   8.81351288  5.08848395 12.49660056
   4.40675643  2.54424197 12.29816729
   4.40675643  2.54424197 14.09336097
   4.40675643  2.54424197 15.33305103
   4.40675643  2.54424197 16.30275746
 


--------------------------------------------------------------------------------------------------------


 k-point   1 :   0.0000 0.0000 0.0000  plane waves:   45655
 k-point   2 :   0.1250 0.0000 0.0000  plane waves:   45660
 k-point   3 :   0.2500 0.0000 0.0000  plane waves:   45682
 k-point   4 :   0.3750 0.0000 0.0000  plane waves:   45716
 k-point   5 :   0.5000 0.0000 0.0000  plane waves:   45700
 k-point   6 :   0.2500 0.1250 0.0000  plane waves:   45658
 k-point   7 :   0.3750 0.1250 0.0000  plane waves:   45702
 k-point   8 :   0.5000 0.1250 0.0000  plane waves:   45722
 k-point   9 :   0.5000 0.2500 0.0000  plane waves:   45712
 k-point  10 :  -0.3750 0.2500 0.0000  plane waves:   45690

 maximum and minimum number of plane-waves per node :     45722    45655

 maximum number of plane-waves:     45722
 maximum index in each direction: 
   IXMAX=   16   IYMAX=   16   IZMAX=   48
   IXMIN=  -16   IYMIN=  -16   IZMIN=  -48


 serial   3D FFT for wavefunctions
 parallel 3D FFT for charge:
    minimum data exchange during FFTs selected (reduces bandwidth)


 total amount of memory used by VASP MPI-rank0   139588. kBytes
=======================================================================

   base      :      30000. kBytes
   nonlr-proj:      13896. kBytes
   fftplans  :       5150. kBytes
   grid      :      23126. kBytes
   one-center:        606. kBytes
   wavefun   :      66810. kBytes
 
     INWAV:  cpu time    0.0000: real time    0.0000
 initial charge density was supplied:
 number of electron     406.0000058 magnetization 
 keeping initial charge density in first step


--------------------------------------------------------------------------------------------------------


 Maximum index for non-local projection operator         2495
 Maximum index for augmentation-charges          844 (set IRDMAX)


--------------------------------------------------------------------------------------------------------


 First call to EWALD:  gamma=   0.146
 Maximum number of real-space cells 4x 4x 2
 Maximum number of reciprocal cells 2x 2x 5

    FEWALD:  cpu time    0.0013: real time    0.0013


--------------------------------------- Iteration      1(   1)  ---------------------------------------


    POTLOK:  cpu time    0.0533: real time    0.0538
    SETDIJ:  cpu time    0.0050: real time    0.0051
     EDDAV:  cpu time    8.3032: real time    8.3048
 BZINTS: Fermi energy:   10.787134;  406.000000 electrons
         Band energy: 0.140488E+04;  BLOECHL correction:   -0.015655
       DOS:  cpu time    0.0105: real time    0.0106
    --------------------------------------------
      LOOP:  cpu time    8.3721: real time    8.3743

 eigenvalue-minimisations  :  5040
 total energy-change (2. order) : 0.2694594E+04  (-0.1767605E+05)
 number of electron     406.0000058 magnetization 
 augmentation part      406.0000058 magnetization 

 Free energy of the ion-electron system (eV)
  ---------------------------------------------------
  alpha Z        PSCENC =       867.87122446
  Ewald energy   TEWEN  =    165680.73067928
  -Hartree energ DENC   =   -200309.28585121
  -exchange      EXHF   =         0.00000000
  -V(xc)+E(xc)   XCENC  =       565.07933792
  PAW double counting   =     37028.07735113   -36276.74826542
  entropy T*S    EENTRO =         0.00000000
  eigenvalues    EBANDS =      1404.87822036
  atomic energy  EATOM  =     33733.99115693
  Solvation  Ediel_sol  =         0.00000000
  ---------------------------------------------------
  free energy    TOTEN  =      2694.59385345 eV

  energy without entropy =     2694.59385345  energy(sigma->0) =     2694.59385345


--------------------------------------------------------------------------------------------------------




--------------------------------------- Iteration      1(   2)  ---------------------------------------


     EDDAV:  cpu time    9.1918: real time    9.1921
 BZINTS: Fermi energy:    1.326429;  406.000000 electrons
         Band energy:-0.125035E+04;  BLOECHL correction:   -0.078446
       DOS:  cpu time    0.0097: real time    0.0097
    --------------------------------------------
      LOOP:  cpu time    9.2015: real time    9.2017

 eigenvalue-minimisations  :  5740
 total energy-change (2. order) :-0.2655224E+04  (-0.2458161E+04)
 number of electron     406.0000058 magnetization 
 augmentation part      406.0000058 magnetization 

 Free energy of the ion-electron system (eV)
  ---------------------------------------------------
  alpha Z        PSCENC =       867.87122446
  Ewald energy   TEWEN  =    165680.73067928
  -Hartree energ DENC   =   -200309.28585121
  -exchange      EXHF   =         0.00000000
  -V(xc)+E(xc)   XCENC  =       565.07933792
  PAW double counting   =     37028.07735113   -36276.74826542
  entropy T*S    EENTRO =         0.00000000
  eigenvalues    EBANDS =     -1250.34571959
  atomic energy  EATOM  =     33733.99115693
  Solvation  Ediel_sol  =         0.00000000
  ---------------------------------------------------
  free energy    TOTEN  =        39.36991350 eV

  energy without entropy =       39.36991350  energy(sigma->0) =       39.36991350


--------------------------------------------------------------------------------------------------------




--------------------------------------- Iteration      1(   3)  ---------------------------------------


     EDDAV:  cpu time    9.3876: real time    9.3877
 BZINTS: Fermi energy:    0.498010;  406.000000 electrons
         Band energy:-0.141518E+04;  BLOECHL correction:   -0.062976
       DOS:  cpu time    0.0099: real time    0.0099
    --------------------------------------------
      LOOP:  cpu time    9.3974: real time    9.3976

 eigenvalue-minimisations  :  5880
 total energy-change (2. order) :-0.1648329E+03  (-0.1599428E+03)
 number of electron     406.0000058 magnetization 
 augmentation part      406.0000058 magnetization 

 Free energy of the ion-electron system (eV)
  ---------------------------------------------------
  alpha Z        PSCENC =       867.87122446
  Ewald energy   TEWEN  =    165680.73067928
  -Hartree energ DENC   =   -200309.28585121
  -exchange      EXHF   =         0.00000000
  -V(xc)+E(xc)   XCENC  =       565.07933792
  PAW double counting   =     37028.07735113   -36276.74826542
  entropy T*S    EENTRO =         0.00000000
  eigenvalues    EBANDS =     -1415.17862999
  atomic energy  EATOM  =     33733.99115693
  Solvation  Ediel_sol  =         0.00000000
  ---------------------------------------------------
  free energy    TOTEN  =      -125.46299690 eV

  energy without entropy =     -125.46299690  energy(sigma->0) =     -125.46299690


--------------------------------------------------------------------------------------------------------




--------------------------------------- Iteration      1(   4)  ---------------------------------------


     EDDAV:  cpu time    9.0471: real time    9.0474
 BZINTS: Fermi energy:    0.476003;  406.000000 electrons
         Band energy:-0.141893E+04;  BLOECHL correction:   -0.059873
       DOS:  cpu time    0.0100: real time    0.0100
    --------------------------------------------
      LOOP:  cpu time    9.0571: real time    9.0573

 eigenvalue-minimisations  :  5628
 total energy-change (2. order) :-0.3754530E+01  (-0.3737545E+01)
 number of electron     406.0000058 magnetization 
 augmentation part      406.0000058 magnetization 

 Free energy of the ion-electron system (eV)
  ---------------------------------------------------
  alpha Z        PSCENC =       867.87122446
  Ewald energy   TEWEN  =    165680.73067928
  -Hartree energ DENC   =   -200309.28585121
  -exchange      EXHF   =         0.00000000
  -V(xc)+E(xc)   XCENC  =       565.07933792
  PAW double counting   =     37028.07735113   -36276.74826542
  entropy T*S    EENTRO =         0.00000000
  eigenvalues    EBANDS =     -1418.93316025
  atomic energy  EATOM  =     33733.99115693
  Solvation  Ediel_sol  =         0.00000000
  ---------------------------------------------------
  free energy    TOTEN  =      -129.21752716 eV

  energy without entropy =     -129.21752716  energy(sigma->0) =     -129.21752716


--------------------------------------------------------------------------------------------------------




--------------------------------------- Iteration      1(   5)  ---------------------------------------


     EDDAV:  cpu time    9.9768: real time    9.9802
 BZINTS: Fermi energy:    0.475591;  406.000000 electrons
         Band energy:-0.141905E+04;  BLOECHL correction:   -0.059852
       DOS:  cpu time    0.0102: real time    0.0102
    --------------------------------------------
      LOOP:  cpu time    9.9870: real time    9.9904

 eigenvalue-minimisations  :  6328
 total energy-change (2. order) :-0.1201282E+00  (-0.1200878E+00)
 number of electron     406.0000058 magnetization 
 augmentation part      406.0000058 magnetization 

 Free energy of the ion-electron system (eV)
  ---------------------------------------------------
  alpha Z        PSCENC =       867.87122446
  Ewald energy   TEWEN  =    165680.73067928
  -Hartree energ DENC   =   -200309.28585121
  -exchange      EXHF   =         0.00000000
  -V(xc)+E(xc)   XCENC  =       565.07933792
  PAW double counting   =     37028.07735113   -36276.74826542
  entropy T*S    EENTRO =         0.00000000
  eigenvalues    EBANDS =     -1419.05328844
  atomic energy  EATOM  =     33733.99115693
  Solvation  Ediel_sol  =         0.00000000
  ---------------------------------------------------
  free energy    TOTEN  =      -129.33765535 eV

  energy without entropy =     -129.33765535  energy(sigma->0) =     -129.33765535


--------------------------------------------------------------------------------------------------------




--------------------------------------- Iteration      1(   6)  ---------------------------------------


    EDDIAG:  cpu time    1.6475: real time    1.6477
  RMM-DIIS:  cpu time    4.9680: real time    4.9680
    ORTHCH:  cpu time    0.3061: real time    0.3061
 BZINTS: Fermi energy:    0.475589;  406.000000 electrons
         Band energy:-0.141906E+04;  BLOECHL correction:   -0.059852
       DOS:  cpu time    0.0097: real time    0.0097
    --------------------------------------------
      LOOP:  cpu time    6.9312: real time    6.9315

 eigenvalue-minimisations  :  5236
 total energy-change (2. order) :-0.2786839E-02  (-0.2786963E-02)
 number of electron     406.0000058 magnetization 
 augmentation part      406.0000058 magnetization 

 Free energy of the ion-electron system (eV)
  ---------------------------------------------------
  alpha Z        PSCENC =       867.87122446
  Ewald energy   TEWEN  =    165680.73067928
  -Hartree energ DENC   =   -200309.28585121
  -exchange      EXHF   =         0.00000000
  -V(xc)+E(xc)   XCENC  =       565.07933792
  PAW double counting   =     37028.07735113   -36276.74826542
  entropy T*S    EENTRO =         0.00000000
  eigenvalues    EBANDS =     -1419.05607528
  atomic energy  EATOM  =     33733.99115693
  Solvation  Ediel_sol  =         0.00000000
  ---------------------------------------------------
  free energy    TOTEN  =      -129.34044219 eV

  energy without entropy =     -129.34044219  energy(sigma->0) =     -129.34044219


--------------------------------------------------------------------------------------------------------




--------------------------------------- Iteration      1(   7)  ---------------------------------------


    EDDIAG:  cpu time    1.6484: real time    1.6485
  RMM-DIIS:  cpu time    6.5841: real time    6.5842
    ORTHCH:  cpu time    0.3058: real time    0.3059
 BZINTS: Fermi energy:    0.475588;  406.000000 electrons
         Band energy:-0.141906E+04;  BLOECHL correction:   -0.059852
       DOS:  cpu time    0.0097: real time    0.0097
    --------------------------------------------
      LOOP:  cpu time    8.5481: real time    8.5482

 eigenvalue-minimisations  :  7098
 total energy-change (2. order) :-0.9913332E-03  (-0.9887148E-03)
 number of electron     406.0000058 magnetization 
 augmentation part      406.0000058 magnetization 

 Free energy of the ion-electron system (eV)
  ---------------------------------------------------
  alpha Z        PSCENC =       867.87122446
  Ewald energy   TEWEN  =    165680.73067928
  -Hartree energ DENC   =   -200309.28585121
  -exchange      EXHF   =         0.00000000
  -V(xc)+E(xc)   XCENC  =       565.07933792
  PAW double counting   =     37028.07735113   -36276.74826542
  entropy T*S    EENTRO =         0.00000000
  eigenvalues    EBANDS =     -1419.05706662
  atomic energy  EATOM  =     33733.99115693
  Solvation  Ediel_sol  =         0.00000000
  ---------------------------------------------------
  free energy    TOTEN  =      -129.34143352 eV

  energy without entropy =     -129.34143352  energy(sigma->0) =     -129.34143352


--------------------------------------------------------------------------------------------------------




--------------------------------------- Iteration      1(   8)  ---------------------------------------


    EDDIAG:  cpu time    1.6486: real time    1.6488
  RMM-DIIS:  cpu time    5.4802: real time    5.4802
    ORTHCH:  cpu time    0.3066: real time    0.3066
 BZINTS: Fermi energy:    0.475588;  406.000000 electrons
         Band energy:-0.141906E+04;  BLOECHL correction:   -0.059852
       DOS:  cpu time    0.0101: real time    0.0101
    --------------------------------------------
      LOOP:  cpu time    7.4455: real time    7.4458

 eigenvalue-minimisations  :  5803
 total energy-change (2. order) :-0.4667585E-04  (-0.4772001E-04)
 number of electron     406.0000058 magnetization 
 augmentation part      406.0000058 magnetization 

 Free energy of the ion-electron system (eV)
  ---------------------------------------------------
  alpha Z        PSCENC =       867.87122446
  Ewald energy   TEWEN  =    165680.73067928
  -Hartree energ DENC   =   -200309.28585121
  -exchange      EXHF   =         0.00000000
  -V(xc)+E(xc)   XCENC  =       565.07933792
  PAW double counting   =     37028.07735113   -36276.74826542
  entropy T*S    EENTRO =         0.00000000
  eigenvalues    EBANDS =     -1419.05711329
  atomic energy  EATOM  =     33733.99115693
  Solvation  Ediel_sol  =         0.00000000
  ---------------------------------------------------
  free energy    TOTEN  =      -129.34148020 eV

  energy without entropy =     -129.34148020  energy(sigma->0) =     -129.34148020


--------------------------------------------------------------------------------------------------------




--------------------------------------- Iteration      1(   9)  ---------------------------------------


    EDDIAG:  cpu time    1.6486: real time    1.6487
  RMM-DIIS:  cpu time    4.7387: real time    4.7388
    ORTHCH:  cpu time    0.3059: real time    0.3059
 BZINTS: Fermi energy:    0.475588;  406.000000 electrons
         Band energy:-0.141906E+04;  BLOECHL correction:   -0.059852
       DOS:  cpu time    0.0097: real time    0.0097
    --------------------------------------------
      LOOP:  cpu time    6.7030: real time    6.7031

 eigenvalue-minimisations  :  4520
 total energy-change (2. order) :-0.9237265E-05  (-0.9236367E-05)
 number of electron     406.0000058 magnetization 
 augmentation part      406.0000058 magnetization 

 Free energy of the ion-electron system (eV)
  ---------------------------------------------------
  alpha Z        PSCENC =       867.87122446
  Ewald energy   TEWEN  =    165680.73067928
  -Hartree energ DENC   =   -200309.28585121
  -exchange      EXHF   =         0.00000000
  -V(xc)+E(xc)   XCENC  =       565.07933792
  PAW double counting   =     37028.07735113   -36276.74826542
  entropy T*S    EENTRO =         0.00000000
  eigenvalues    EBANDS =     -1419.05712253
  atomic energy  EATOM  =     33733.99115693
  Solvation  Ediel_sol  =         0.00000000
  ---------------------------------------------------
  free energy    TOTEN  =      -129.34148944 eV

  energy without entropy =     -129.34148944  energy(sigma->0) =     -129.34148944


--------------------------------------------------------------------------------------------------------




 average (electrostatic) potential at core
  the test charge radii are     1.2098  1.2059  0.6991  0.7215  0.5201
  (the norm of the test charge is              1.0000)
       1 -72.6150       2 -72.5357       3 -72.5356       4 -72.5357       5 -72.5389
       6 -72.5354       7 -72.5356       8 -72.5354       9 -72.5547      10 -72.8947
      11 -72.8588      12 -72.8945      13 -72.8588      14 -72.8585      15 -72.8749
      16 -72.8945      17 -72.8749      18 -72.8751      19 -72.8242      20 -72.9693
      21 -72.9691      22 -72.8712      23 -72.9691      24 -72.8708      25 -72.8244
      26 -72.8242      27 -72.8712      28 -72.4860      29 -72.5337      30 -72.5338
      31 -72.5337      32 -72.5335      33 -72.5338      34 -72.5335      35 -72.4590
      36 -74.5430      37 -58.5884      38 -80.2283      39 -44.0761
 
 
 
 E-fermi :   0.4756     XC(G=0):  -5.2416     alpha+bet : -4.8694

 Fermi energy:         0.4755882663

 k-point     1 :       0.0000    0.0000    0.0000
  band No.  band energies     occupation 
      1     -25.3112      2.00000
      2     -15.8259      2.00000
      3      -9.8369      2.00000
      4      -8.3152      2.00000
      5      -8.0300      2.00000
      6      -8.0298      2.00000
      7      -7.1747      2.00000
      8      -6.2629      2.00000
      9      -6.2130      2.00000
     10      -6.2130      2.00000
     11      -6.1889      2.00000
     12      -6.1733      2.00000
     13      -6.1571      2.00000
     14      -6.1571      2.00000
     15      -6.1556      2.00000
     16      -5.7246      2.00000
     17      -5.7246      2.00000
     18      -5.7019      2.00000
     19      -5.6796      2.00000
     20      -5.6796      2.00000
     21      -5.6741      2.00000
     22      -5.3571      2.00000
     23      -5.3363      2.00000
     24      -5.3362      2.00000
     25      -5.3171      2.00000
     26      -5.3171      2.00000
     27      -5.3032      2.00000
     28      -5.1612      2.00000
     29      -5.1611      2.00000
     30      -5.1560      2.00000
     31      -5.1559      2.00000
     32      -5.1331      2.00000
     33      -5.1238      2.00000
     34      -5.0260      2.00000
     35      -5.0260      2.00000
     36      -5.0021      2.00000
     37      -4.9852      2.00000
     38      -4.9852      2.00000
     39      -4.9624      2.00000
     40      -4.9624      2.00000
     41      -4.9544      2.00000
     42      -4.9438      2.00000
     43      -4.9438      2.00000
     44      -4.9321      2.00000
     45      -4.9224      2.00000
     46      -4.6484      2.00000
     47      -4.6484      2.00000
     48      -4.4638      2.00000
     49      -4.4638      2.00000
     50      -4.4382      2.00000
     51      -4.4266      2.00000
     52      -4.4266      2.00000
     53      -4.4158      2.00000
     54      -4.4158      2.00000
     55      -4.4123      2.00000
     56      -4.2932      2.00000
     57      -4.2883      2.00000
     58      -4.2495      2.00000
     59      -4.2448      2.00000
     60      -4.0830      2.00000
     61      -4.0830      2.00000
     62      -3.8960      2.00000
     63      -3.8838      2.00000
     64      -3.8735      2.00000
     65      -3.8734      2.00000
     66      -3.8711      2.00000
     67      -3.8189      2.00000
     68      -3.8189      2.00000
     69      -3.8020      2.00000
     70      -3.8020      2.00000
     71      -3.7333      2.00000
     72      -3.7299      2.00000
     73      -3.7299      2.00000
     74      -3.6918      2.00000
     75      -3.6918      2.00000
     76      -3.6713      2.00000
     77      -3.6713      2.00000
     78      -3.6360      2.00000
     79      -3.6234      2.00000
     80      -3.6234      2.00000
     81      -3.6205      2.00000
     82      -3.6009      2.00000
     83      -3.6009      2.00000
     84      -3.5987      2.00000
     85      -3.5987      2.00000
     86      -3.5974      2.00000
     87      -3.5285      2.00000
     88      -3.5285      2.00000
     89      -3.5150      2.00000
     90      -3.5016      2.00000
     91      -3.4744      2.00000
     92      -3.4744      2.00000
     93      -3.4603      2.00000
     94      -3.4402      2.00000
     95      -3.4402      2.00000
     96      -3.3910      2.00000
     97      -3.3910      2.00000
     98      -3.3161      2.00000
     99      -3.3161      2.00000
    100      -3.1917      2.00000
    101      -3.1917      2.00000
    102      -3.1848      2.00000
    103      -3.1848      2.00000
    104      -3.1090      2.00000
    105      -3.1090      2.00000
    106      -3.0552      2.00000
    107      -3.0551      2.00000
    108      -3.0369      2.00000
    109      -3.0242      2.00000
    110      -3.0242      2.00000
    111      -2.9942      2.00000
    112      -2.8676      2.00000
    113      -2.8676      2.00000
[...]
  0.000   0.000   0.000   0.000   0.000   0.000   0.000   0.000   0.000   0.000   1.000   0.000   0.000   0.000   0.000   0.000
  0.000   0.000   0.000   0.000   0.000   0.000   0.000   0.000   0.000   0.000   0.000   0.000   0.000   0.000   0.000   0.000
  0.000   0.000   0.000   0.000   0.000   0.000   0.000   0.000   0.000   0.000   0.000   0.000   0.000   0.000   0.000   0.000
  0.000   0.000   0.000   0.000   0.000   0.000   0.000   0.000   0.000   0.000   0.000   0.000   0.000   0.000   0.000   0.000
  0.000   0.000   0.000   0.000   0.000   0.000   0.000   0.000   0.000   0.000   0.000   0.000   0.000   0.000   0.000   0.000
  0.000   0.000   0.000   0.000   0.000   0.000   0.000   0.000   0.000   0.000   0.000   0.000   0.000   0.000   0.000   0.000
  0.000   0.000   0.000   0.000   0.000   0.000   0.000   0.000   0.000   0.000   0.000   0.000   0.000   0.000   0.000   0.000
  0.000   0.000   0.000   0.000   0.000   0.000   0.000   0.000   0.000   0.000   0.000   0.000   0.000   0.000   0.000   0.000


------------------------ aborting loop because EDIFF is reached ----------------------------------------





 total charge

# of ion       s       p       d       tot
------------------------------------------
    1        0.540   0.242   8.764   9.545
    2        0.545   0.240   8.765   9.551
    3        0.545   0.240   8.765   9.551
    4        0.545   0.240   8.765   9.551
    5        0.540   0.241   8.768   9.548
    6        0.545   0.240   8.765   9.551
    7        0.545   0.240   8.765   9.551
    8        0.545   0.240   8.765   9.551
    9        0.540   0.242   8.764   9.546
   10        0.523   0.309   8.773   9.604
   11        0.521   0.308   8.775   9.604
   12        0.523   0.309   8.773   9.604
   13        0.521   0.308   8.775   9.604
   14        0.521   0.308   8.775   9.604
   15        0.515   0.310   8.775   9.599
   16        0.523   0.309   8.773   9.604
   17        0.515   0.310   8.775   9.599
   18        0.515   0.310   8.775   9.599
   19        0.521   0.303   8.775   9.598
   20        0.530   0.329   8.756   9.615
   21        0.530   0.329   8.756   9.615
   22        0.515   0.307   8.774   9.596
   23        0.530   0.329   8.756   9.615
   24        0.515   0.307   8.774   9.596
   25        0.521   0.303   8.775   9.598
   26        0.521   0.303   8.775   9.598
   27        0.515   0.307   8.774   9.596
   28        0.543   0.236   8.765   9.543
   29        0.533   0.243   8.776   9.552
   30        0.533   0.243   8.776   9.552
   31        0.533   0.243   8.776   9.552
   32        0.533   0.243   8.776   9.552
   33        0.533   0.243   8.776   9.552
   34        0.533   0.243   8.776   9.552
   35        0.543   0.236   8.767   9.546
   36        0.670   0.716   8.058   9.444
   37        0.936   1.424   0.000   2.360
   38        1.536   3.749   0.000   5.285
   39        0.544   0.126   0.000   0.670
--------------------------------------------------
tot         22.237  15.709 315.015 352.961
 
    CHARGE:  cpu time    0.4404: real time    0.4404
    FORLOC:  cpu time    0.0141: real time    0.0141
    FORNL :  cpu time    1.7140: real time    1.7142
    STRESS:  cpu time    5.1430: real time    5.1433
    FORCOR:  cpu time    0.0541: real time    0.0541
    FORHAR:  cpu time    0.0223: real time    0.0223
    OFIELD:  cpu time    0.0003: real time    0.0003

  FORCE on cell =-STRESS in cart. coord.  units (eV):
  Direction    XX          YY          ZZ          XY          YZ          ZX
  --------------------------------------------------------------------------------------
  Alpha Z   867.87122   867.87122   867.87122
  Ewald  188314.52634188314.52678************    -0.00033    -0.00008    -0.00012
  Hartree197033.36990197033.36991************     0.00001    -0.00002    -0.00003
  E(xc)   -1820.50870 -1820.50884 -1825.46424     0.00013    -0.00001    -0.00002
  Local  ************************397564.60961     0.00224    -0.00000    -0.00005
  n-local   -97.53783   -52.90496   -51.46212    22.36741    -1.21865     1.09607
  augment  2430.25023  2430.25184  2433.63214    -0.00139     0.00003     0.00008
  Kinetic  5714.38290  5718.87930  5682.96291     3.73141     0.65450     0.04603
  Fock        0.00000     0.00000     0.00000     0.00000     0.00000     0.00000
  -------------------------------------------------------------------------------------
  Total     -17.51715   -17.51715     1.75901    -0.00000     0.00000    -0.00000
  in kB     -15.59339   -15.59339     1.56583    -0.00000     0.00000    -0.00000
  external pressure =       -9.87 kB  Pullay stress =        0.00 kB


 VOLUME and BASIS-vectors are now :
 -----------------------------------------------------------------------------
  energy-cutoff  :      500.00
  volume of cell :     1799.84
      direct lattice vectors                 reciprocal lattice vectors
     8.813512802  0.000000000  0.000000000     0.113462137 -0.065507406  0.000000000
     4.406756909  7.632725690  0.000000000     0.000000000  0.131014796  0.000000000
     0.000000000  0.000000000 26.754991198     0.000000000  0.000000000  0.037376204

  length of vectors
     8.813512802  8.813512802 26.754991198     0.131014796  0.131014796  0.037376204


 FORCES acting on ions
    electron-ion (+dipol)            ewald-force                    non-local-force                 convergence-correction
 -----------------------------------------------------------------------------------------------
   -.201E-04 -.165E-04 0.285E+04   0.519E-04 0.433E-04 -.285E+04   0.700E-17 0.737E-18 -.926E+00   -.203E-03 -.130E-03 -.642E+00
   0.175E+00 0.316E+00 0.285E+04   -.246E+00 -.378E+00 -.285E+04   0.105E-02 0.106E-02 -.247E+00   0.681E-01 0.629E-01 -.624E+00
   -.175E+00 0.316E+00 0.285E+04   0.246E+00 -.378E+00 -.285E+04   -.105E-02 0.106E-02 -.247E+00   -.678E-01 0.649E-01 -.624E+00
   0.361E+00 -.651E-02 0.285E+04   -.450E+00 -.239E-01 -.285E+04   0.144E-02 0.378E-03 -.247E+00   0.886E-01 0.274E-01 -.624E+00
   0.101E-04 -.223E-04 0.285E+04   0.952E-04 0.171E-05 -.285E+04   0.366E-17 -.187E-17 -.437E+00   0.430E-02 0.262E-02 -.612E+00
   -.361E+00 -.648E-02 0.285E+04   0.450E+00 -.239E-01 -.285E+04   -.144E-02 0.378E-03 -.247E+00   -.902E-01 0.284E-01 -.623E+00
   0.186E+00 -.310E+00 0.285E+04   -.204E+00 0.402E+00 -.285E+04   0.393E-03 -.144E-02 -.247E+00   0.224E-01 -.912E-01 -.624E+00
   -.186E+00 -.310E+00 0.285E+04   0.204E+00 0.402E+00 -.285E+04   -.393E-03 -.144E-02 -.247E+00   -.205E-01 -.923E-01 -.623E+00
   0.193E-04 -.415E-04 0.285E+04   0.166E-03 -.201E-04 -.285E+04   0.207E-17 -.401E-17 -.445E+00   -.464E-02 -.240E-02 -.625E+00
   0.398E+01 0.230E+01 0.101E+04   -.364E+01 -.210E+01 -.100E+04   -.271E+00 -.157E+00 -.592E+00   -.733E-02 -.435E-02 -.275E+00
   0.140E-04 0.328E+01 0.101E+04   0.149E-03 -.346E+01 -.101E+04   -.665E-10 -.999E-03 -.434E+00   0.381E-02 0.122E+00 -.334E+00
   -.398E+01 0.230E+01 0.101E+04   0.364E+01 -.210E+01 -.100E+04   0.271E+00 -.157E+00 -.592E+00   0.601E-02 -.285E-02 -.275E+00
   0.284E+01 -.164E+01 0.101E+04   -.300E+01 0.173E+01 -.101E+04   -.865E-03 0.499E-03 -.434E+00   0.108E+00 -.576E-01 -.334E+00
   -.284E+01 -.164E+01 0.101E+04   0.300E+01 0.173E+01 -.101E+04   0.865E-03 0.499E-03 -.434E+00   -.100E+00 -.580E-01 -.334E+00
   0.314E-04 0.419E+00 0.100E+04   0.236E-03 -.361E+00 -.100E+04   -.376E-08 -.564E-01 -.295E+00   -.240E-02 -.176E-01 -.360E+00
   -.208E-04 -.459E+01 0.101E+04   0.163E-03 0.420E+01 -.100E+04   0.208E-07 0.313E+00 -.592E+00   0.300E-03 0.660E-02 -.275E+00
   0.363E+00 -.210E+00 0.100E+04   -.313E+00 0.181E+00 -.100E+04   -.489E-01 0.282E-01 -.295E+00   -.162E-01 0.717E-02 -.360E+00
   -.363E+00 -.210E+00 0.100E+04   0.313E+00 0.181E+00 -.100E+04   0.489E-01 0.282E-01 -.295E+00   0.162E-01 0.909E-02 -.360E+00
   -.420E-04 0.212E+01 -.869E+03   0.526E-04 -.204E+01 0.868E+03   0.103E-08 0.155E-01 0.518E+00   -.363E-03 -.104E+00 0.351E+00
   0.140E+02 0.806E+01 -.829E+03   -.135E+02 -.779E+01 0.829E+03   -.394E+00 -.227E+00 -.531E+00   -.715E-02 -.426E-02 0.313E+00
   -.140E+02 0.806E+01 -.829E+03   0.135E+02 -.779E+01 0.829E+03   0.394E+00 -.227E+00 -.531E+00   0.801E-02 -.207E-02 0.313E+00
   0.577E+01 -.333E+01 -.861E+03   -.607E+01 0.350E+01 0.860E+03   0.245E+00 -.142E+00 0.596E+00   0.360E-01 -.250E-01 0.359E+00
   -.152E-04 -.161E+02 -.829E+03   0.145E-03 0.156E+02 0.829E+03   0.303E-07 0.455E+00 -.531E+00   0.196E-02 0.798E-02 0.313E+00
   -.577E+01 -.333E+01 -.861E+03   0.607E+01 0.350E+01 0.860E+03   -.245E+00 -.142E+00 0.596E+00   -.431E-01 -.248E-01 0.359E+00
   -.183E+01 -.106E+01 -.869E+03   0.177E+01 0.102E+01 0.868E+03   -.134E-01 -.773E-02 0.518E+00   0.921E-01 0.531E-01 0.351E+00
   0.183E+01 -.106E+01 -.869E+03   -.177E+01 0.102E+01 0.868E+03   0.134E-01 -.773E-02 0.518E+00   -.903E-01 0.519E-01 0.351E+00
   0.601E-05 0.667E+01 -.861E+03   0.200E-03 -.701E+01 0.860E+03   0.189E-07 0.283E+00 0.596E+00   -.421E-02 0.437E-01 0.359E+00
   -.128E-04 -.132E-04 -.273E+04   0.285E-04 0.351E-04 0.273E+04   0.806E-18 0.154E-17 -.768E-01   0.127E-02 0.713E-03 0.580E+00
   0.276E+02 0.466E+02 -.270E+04   -.279E+02 -.472E+02 0.270E+04   0.123E+00 0.248E+00 0.286E+00   -.365E-01 -.239E-01 0.593E+00
   -.276E+02 0.466E+02 -.270E+04   0.279E+02 -.472E+02 0.270E+04   -.123E+00 0.248E+00 0.286E+00   0.304E-01 -.218E-01 0.594E+00
   0.541E+02 0.650E+00 -.270E+04   -.548E+02 -.594E+00 0.270E+04   0.276E+00 -.171E-01 0.286E+00   -.389E-01 -.197E-01 0.593E+00
   -.541E+02 0.650E+00 -.270E+04   0.548E+02 -.594E+00 0.270E+04   -.276E+00 -.171E-01 0.286E+00   0.310E-01 -.186E-01 0.593E+00
   0.265E+02 -.472E+02 -.270E+04   -.269E+02 0.478E+02 0.270E+04   0.153E+00 -.230E+00 0.286E+00   -.355E-02 0.372E-01 0.594E+00
   -.265E+02 -.472E+02 -.270E+04   0.269E+02 0.478E+02 0.270E+04   -.153E+00 -.230E+00 0.286E+00   -.601E-03 0.362E-01 0.593E+00
   0.288E-04 -.266E-04 -.273E+04   0.147E-03 -.504E-04 0.273E+04   0.463E-18 -.459E-17 -.267E-01   -.361E-02 -.179E-02 0.665E+00
   0.313E-04 -.175E-04 -.216E+04   0.101E-03 0.891E-05 0.216E+04   0.383E-17 0.183E-17 -.242E+01   0.453E-02 0.272E-02 0.534E+00
   -.666E-05 -.833E-04 -.108E+04   0.144E-04 0.927E-06 0.106E+04   -.163E-17 0.523E-18 0.188E+02   0.147E-02 0.891E-03 0.109E+00
   0.246E-03 -.906E-04 -.176E+04   0.531E-05 0.494E-06 0.177E+04   -.522E-18 0.800E-19 -.855E+01   0.397E-02 0.243E-02 0.809E-02
   0.635E-05 -.141E-04 -.332E+03   0.259E-06 0.365E-07 0.340E+03   0.305E-19 -.378E-19 -.826E+01   0.205E-03 0.125E-03 -.723E-02
 -----------------------------------------------------------------------------------------------
   -.426E-03 -.930E-03 0.464E+01   0.421E-13 0.137E-12 0.426E-11   0.224E-15 -.577E-16 -.435E+01   -.907E-02 -.444E-02 -.104E-01
 
 
 POSITION                                       TOTAL-FORCE (eV/Angst)
 -----------------------------------------------------------------------------------
      0.00000      0.00000      5.28038         0.000000      0.000000      0.026627
      2.93784      0.00000      5.28038        -0.001137      0.003247     -0.046770
      5.87568      0.00000      5.28038         0.001137      0.003247     -0.046770
      1.46892      2.54424      5.28038         0.002243     -0.002608     -0.046770
      4.40676      2.54424      5.28038        -0.000000      0.000000     -0.067660
      7.34459      2.54424      5.28038        -0.002243     -0.002608     -0.046770
      2.93784      5.08848      5.28038         0.003380     -0.000639     -0.046770
      5.87568      5.08848      5.28038        -0.003380     -0.000639     -0.046770
      8.81351      5.08848      5.28038         0.000000      0.000000     -0.028529
      1.46892      0.84808      7.67911         0.059303      0.034239      0.147438
      4.40676      0.84808      7.67911        -0.000000     -0.059522      0.039632
      7.34459      0.84808      7.67911        -0.059303      0.034239      0.147438
      2.93784      3.39232      7.67911        -0.051548      0.029761      0.039632
      5.87568      3.39232      7.67911         0.051548      0.029761      0.039632
      8.81351      3.39232      7.67911        -0.000000     -0.016254      0.149496
      4.40676      5.93656      7.67911        -0.000000     -0.068478      0.147438
      7.34459      5.93656      7.67911        -0.014076      0.008127      0.149496
     10.28243      5.93656      7.67911         0.014076      0.008127      0.149496
      8.81351      1.69709     10.07334        -0.000000     -0.015667     -0.047908
      2.92757      1.69024     10.04824         0.075295      0.043472     -0.062201
      5.88594      1.69024     10.04824        -0.075295      0.043472     -0.062201
     10.27700      4.24354     10.06671        -0.008452      0.004880     -0.037051
      4.40676      4.25225     10.04824        -0.000000     -0.086943     -0.062201
      7.35003      4.24354     10.06671         0.008452      0.004880     -0.037051
     11.75055      6.78418     10.07334         0.013568      0.007834     -0.047908
      5.87648      6.78418     10.07334        -0.013568      0.007834     -0.047908
      8.81351      6.77837     10.06671        -0.000000     -0.009760     -0.037051
      0.00000      0.00000     12.49905        -0.000000      0.000000     -0.078024
      2.94801      0.01573     12.49317        -0.220950     -0.425141     -0.123665
      5.86551      0.01573     12.49317         0.220950     -0.425141     -0.123665
      1.48763      2.54518     12.49317        -0.478658      0.021222     -0.123665
      7.32589      2.54518     12.49317         0.478658      0.021222     -0.123665
      2.94638      5.07181     12.49317        -0.257708      0.403919     -0.123665
      5.86714      5.07181     12.49317         0.257708      0.403919     -0.123665
      8.81351      5.08848     12.49660         0.000000      0.000000     -0.080868
      4.40676      2.54424     12.29817        -0.000000      0.000000      0.664754
      4.40676      2.54424     14.09336         0.000000      0.000000      0.018765
      4.40676      2.54424     15.33305        -0.000000      0.000000     -0.027661
      4.40676      2.54424     16.30276         0.000000      0.000000      0.026985
 -----------------------------------------------------------------------------------
    total drift:                               -0.009491     -0.005366      0.272659


--------------------------------------------------------------------------------------------------------



  FREE ENERGIE OF THE ION-ELECTRON SYSTEM (eV)
  ---------------------------------------------------
  free  energy   TOTEN  =      -129.34148944 eV

  energy  without entropy=     -129.34148944  energy(sigma->0) =     -129.34148944
 


--------------------------------------------------------------------------------------------------------


    POTLOK:  cpu time    0.0524: real time    0.0524


--------------------------------------------------------------------------------------------------------


 stress matrix after NEB project (eV)
    -17.51715     -0.00000     -0.00000
     -0.00000    -17.51715      0.00000
     -0.00000      0.00000      1.75901
  FORCES: max atom, RMS     0.027661    0.006879
  FORCE total and by dimension    0.042958    0.027661
  Stress total and by dimension   24.835365   17.517153
     LOOP+:  cpu time   83.1312: real time   83.1437
 -----------------------------------------------------------------------------
|                                                                             |
|           W    W    AA    RRRRR   N    N  II  N    N   GGGG   !!!           |
|           W    W   A  A   R    R  NN   N  II  NN   N  G    G  !!!           |
|           W    W  A    A  R    R  N N  N  II  N N  N  G       !!!           |
|           W WW W  AAAAAA  RRRRR   N  N N  II  N  N N  G  GGG   !            |
|           WW  WW  A    A  R   R   N   NN  II  N   NN  G    G                |
|           W    W  A    A  R    R  N    N  II  N    N   GGGG   !!!           |
|                                                                             |
|     Tetrahedron method does not include variations of the Fermi             |
|     occupations, so forces and stress will be inaccurate. We suggest        |
|     using a different smearing scheme ISMEAR = 1 or 2 for metals in         |
|     relaxations.                                                            |
|                                                                             |
 -----------------------------------------------------------------------------

    4ORBIT:  cpu time    0.0000: real time    0.0000



 total charge

# of ion       s       p       d       tot
------------------------------------------
    1        0.540   0.242   8.764   9.545
    2        0.545   0.240   8.765   9.551
    3        0.545   0.240   8.765   9.551
    4        0.545   0.240   8.765   9.551
    5        0.540   0.241   8.768   9.548
    6        0.545   0.240   8.765   9.551
    7        0.545   0.240   8.765   9.551
    8        0.545   0.240   8.765   9.551
    9        0.540   0.242   8.764   9.546
   10        0.523   0.309   8.773   9.604
   11        0.521   0.308   8.775   9.604
   12        0.523   0.309   8.773   9.604
   13        0.521   0.308   8.775   9.604
   14        0.521   0.308   8.775   9.604
   15        0.515   0.310   8.775   9.599
   16        0.523   0.309   8.773   9.604
   17        0.515   0.310   8.775   9.599
   18        0.515   0.310   8.775   9.599
   19        0.521   0.303   8.775   9.598
   20        0.530   0.329   8.756   9.615
   21        0.530   0.329   8.756   9.615
   22        0.515   0.307   8.774   9.596
   23        0.530   0.329   8.756   9.615
   24        0.515   0.307   8.774   9.596
   25        0.521   0.303   8.775   9.598
   26        0.521   0.303   8.775   9.598
   27        0.515   0.307   8.774   9.596
   28        0.543   0.236   8.765   9.543
   29        0.533   0.243   8.776   9.552
   30        0.533   0.243   8.776   9.552
   31        0.533   0.243   8.776   9.552
   32        0.533   0.243   8.776   9.552
   33        0.533   0.243   8.776   9.552
   34        0.533   0.243   8.776   9.552
   35        0.543   0.236   8.767   9.546
   36        0.670   0.716   8.058   9.444
   37        0.936   1.424   0.000   2.360
   38        1.536   3.749   0.000   5.285
   39        0.544   0.126   0.000   0.670
--------------------------------------------------
tot         22.237  15.709 315.015 352.961
 
 BZINTS: Fermi energy:    0.475588;  406.000000 electrons
         Band energy:-0.141906E+04;  BLOECHL correction:   -0.059852

 total amount of memory used by VASP MPI-rank0   139588. kBytes
=======================================================================

   base      :      30000. kBytes
   nonlr-proj:      13896. kBytes
   fftplans  :       5150. kBytes
   grid      :      23126. kBytes
   one-center:        606. kBytes
   wavefun   :      66810. kBytes
 
  
  
 General timing and accounting informations for this job:
 ========================================================
  
                  Total CPU time used (sec):       91.643
                            User time (sec):       88.249
                          System time (sec):        3.394
                         Elapsed time (sec):       92.120
  
                   Maximum memory used (kb):      414992.
                   Average memory used (kb):          N/A
  
                          Minor page faults:        77546
                          Major page faults:            0
                 Voluntary context switches:         5228
