PROCAR new format
# of k-points:   10         # of bands:  252         # of ions:   39

 k-point     1 :    0.00000000 0.00000000 0.00000000     weight = 0.01562500

band     1 # energy  -25.31116595 # occ.  2.00000000
 
ion      s      p      d    tot
    1  0.000  0.000  0.000  0.000
    2  0.000  0.000  0.000  0.000
    3  0.000  0.000  0.000  0.000
    4  0.000  0.000  0.000  0.000
    5  0.000  0.000  0.000  0.000
    6  0.000  0.000  0.000  0.000
    7  0.000  0.000  0.000  0.000
    8  0.000  0.000  0.000  0.000
    9  0.000  0.000  0.000  0.000
   10  0.000  0.000  0.000  0.000
   11  0.000  0.000  0.000  0.000
   12  0.000  0.000  0.000  0.000
   13  0.000  0.000  0.000  0.000
   14  0.000  0.000  0.000  0.000
   15  0.000  0.000  0.000  0.000
   16  0.000  0.000  0.000  0.000
   17  0.000  0.000  0.000  0.000
   18  0.000  0.000  0.000  0.000
   19  0.000  0.000  0.000  0.000
   20  0.000  0.000  0.000  0.000
   21  0.000  0.000  0.000  0.000
   22  0.000  0.000  0.000  0.000
   23  0.000  0.000  0.000  0.000
   24  0.000  0.000  0.000  0.000
   25  0.000  0.000  0.000  0.000
   26  0.000  0.000  0.000  0.000
   27  0.000  0.000  0.000  0.000
   28  0.000  0.000  0.000  0.000
   29  0.000  0.000  0.000  0.000
   30  0.000  0.000  0.000  0.000
   31  0.000  0.000  0.000  0.000
   32  0.000  0.000  0.000  0.000
   33  0.000  0.000  0.000  0.000
   34  0.000  0.000  0.000  0.000
   35  0.000  0.000  0.000  0.000
   36  0.000  0.000  0.000  0.000
   37  0.089  0.066  0.000  0.154
   38  0.721  0.012  0.000  0.734
   39  0.052  0.011  0.000  0.063
tot    0.863  0.089  0.000  0.952
 
band     2 # energy  -15.82589632 # occ.  2.00000000
 
ion      s      p      d    tot
    1  0.000  0.000  0.000  0.000
    2  0.000  0.000  0.000  0.000
    3  0.000  0.000  0.000  0.000
    4  0.000  0.000  0.000  0.000
    5  0.000  0.000  0.000  0.000
    6  0.000  0.000  0.000  0.000
    7  0.000  0.000  0.000  0.000
    8  0.000  0.000  0.000  0.000
    9  0.000  0.000  0.000  0.000
   10  0.000  0.000  0.000  0.000
   11  0.000  0.000  0.000  0.000
   12  0.000  0.000  0.000  0.000
   13  0.000  0.000  0.000  0.000
   14  0.000  0.000  0.000  0.000
   15  0.000  0.000  0.000  0.000
   16  0.000  0.000  0.000  0.000
   17  0.000  0.000  0.000  0.000
   18  0.000  0.000  0.000  0.000
   19  0.000  0.000  0.000  0.000
   20  0.000  0.000  0.000  0.000
   21  0.000  0.000  0.000  0.000
   22  0.000  0.000  0.000  0.000
   23  0.000  0.000  0.000  0.000
   24  0.000  0.000  0.000  0.000
   25  0.000  0.000  0.000  0.000
   26  0.000  0.000  0.000  0.000
   27  0.000  0.000  0.000  0.000
   28  0.000  0.000  0.000  0.000
   29  0.000  0.000  0.000  0.000
   30  0.000  0.000  0.000  0.000
   31  0.000  0.000  0.000  0.000
   32  0.000  0.000  0.000  0.000
   33  0.000  0.000  0.000  0.000
   34  0.000  0.000  0.000  0.000
   35  0.000  0.000  0.000  0.000
   36  0.004  0.003  0.005  0.012
   37  0.162  0.045  0.000  0.207
   38  0.026  0.521  0.000  0.547
   39  0.199  0.032  0.000  0.231
tot    0.390  0.602  0.005  0.997
 
band     3 # energy   -9.83687252 # occ.  2.00000000
 
ion      s      p      d    tot
    1  0.000  0.000  0.000  0.000
    2  0.000  0.000  0.000  0.000
    3  0.000  0.000  0.000  0.000
    4  0.000  0.000  0.000  0.000
    5  0.000  0.000  0.000  0.000
    6  0.000  0.000  0.000  0.000
    7  0.000  0.000  0.000  0.000
    8  0.000  0.000  0.000  0.000
    9  0.000  0.000  0.000  0.000
   10  0.000  0.000  0.000  0.000
   11  0.000  0.000  0.000  0.000
   12  0.000  0.000  0.000  0.000
   13  0.000  0.000  0.000  0.000
   14  0.000  0.000  0.000  0.000
   15  0.000  0.000  0.000  0.000
   16  0.000  0.000  0.000  0.000
   17  0.000  0.000  0.000  0.000
   18  0.000  0.000  0.000  0.000
   19  0.000  0.000  0.000  0.000
   20  0.003  0.001  0.002  0.006
   21  0.003  0.001  0.002  0.006
   22  0.000  0.000  0.000  0.000
   23  0.003  0.001  0.002  0.006
   24  0.000  0.000  0.000  0.000
   25  0.000  0.000  0.000  0.000
   26  0.000  0.000  0.000  0.000
   27  0.000  0.000  0.000  0.000
   28  0.000  0.000  0.000  0.000
   29  0.001  0.000  0.000  0.002
   30  0.001  0.000  0.000  0.002
   31  0.001  0.000  0.000  0.002
   32  0.001  0.000  0.000  0.002
   33  0.001  0.000  0.000  0.002
   34  0.001  0.000  0.000  0.002
   35  0.000  0.000  0.000  0.000
   36  0.151  0.058  0.289  0.497
   37  0.165  0.187  0.000  0.352
   38  0.009  0.051  0.000  0.060
   39  0.014  0.001  0.000  0.015
tot    0.358  0.301  0.298  0.957
 
band     4 # energy   -8.31523595 # occ.  2.00000000
 
ion      s      p      d    tot
    1  0.007  0.001  0.000  0.007
    2  0.007  0.001  0.000  0.007
    3  0.007  0.001  0.000  0.007
    4  0.007  0.001  0.000  0.007
    5  0.007  0.001  0.000  0.007
    6  0.007  0.001  0.000  0.007
    7  0.007  0.001  0.000  0.007
    8  0.007  0.001  0.000  0.007
    9  0.007  0.001  0.000  0.007
   10  0.027  0.000  0.000  0.027
   11  0.027  0.000  0.000  0.027
   12  0.027  0.000  0.000  0.027
   13  0.027  0.000  0.000  0.027
   14  0.027  0.000  0.000  0.027
   15  0.027  0.000  0.000  0.027
   16  0.027  0.000  0.000  0.027
   17  0.027  0.000  0.000  0.027
   18  0.027  0.000  0.000  0.027
   19  0.023  0.000  0.000  0.024
   20  0.023  0.000  0.000  0.023
   21  0.023  0.000  0.000  0.023
   22  0.024  0.000  0.000  0.024
   23  0.023  0.000  0.000  0.023
   24  0.024  0.000  0.000  0.024
   25  0.023  0.000  0.000  0.024
   26  0.023  0.000  0.000  0.024
   27  0.024  0.000  0.000  0.024
   28  0.005  0.000  0.000  0.005
   29  0.005  0.000  0.000  0.005
   30  0.005  0.000  0.000  0.005
   31  0.005  0.000  0.000  0.005
   32  0.005  0.000  0.000  0.005
   33  0.005  0.000  0.000  0.005
   34  0.005  0.000  0.000  0.005
   35  0.005  0.000  0.000  0.005
   36  0.000  0.005  0.011  0.017
   37  0.005  0.004  0.000  0.009
   38  0.000  0.001  0.000  0.001
   39  0.000  0.000  0.000  0.000
tot    0.555  0.022  0.014  0.591
 
band     5 # energy   -8.02998504 # occ.  2.00000000
 
ion      s      p      d    tot
    1  0.000  0.000  0.000  0.000
    2  0.000  0.000  0.000  0.000
    3  0.000  0.000  0.000  0.000
    4  0.000  0.000  0.000  0.000
    5  0.000  0.000  0.000  0.000
    6  0.000  0.000  0.000  0.000
    7  0.000  0.000  0.000  0.000
    8  0.000  0.000  0.000  0.000
    9  0.000  0.000  0.000  0.000
   10  0.000  0.000  0.000  0.000
   11  0.000  0.000  0.000  0.000
   12  0.000  0.000  0.000  0.000
   13  0.000  0.000  0.000  0.000
   14  0.000  0.000  0.000  0.000
   15  0.000  0.000  0.000  0.000
   16  0.000  0.000  0.000  0.000
   17  0.000  0.000  0.000  0.000
   18  0.000  0.000  0.000  0.000
   19  0.000  0.000  0.000  0.000
   20  0.000  0.000  0.000  0.000
   21  0.000  0.000  0.000  0.000
   22  0.000  0.000  0.000  0.000
   23  0.000  0.000  0.000  0.000
   24  0.000  0.000  0.000  0.000
   25  0.000  0.000  0.000  0.000
   26  0.000  0.000  0.000  0.000
   27  0.000  0.000  0.000  0.000
   28  0.000  0.000  0.000  0.000
   29  0.000  0.000  0.001  0.001
   30  0.000  0.000  0.000  0.000
   31  0.000  0.000  0.001  0.001
   32  0.000  0.000  0.001  0.001
   33  0.000  0.000  0.000  0.000
   34  0.000  0.000  0.001  0.001
   35  0.000  0.000  0.000  0.000
   36  0.000  0.003  0.032  0.035
   37  0.000  0.128  0.000  0.128
   38  0.000  0.520  0.000  0.520
   39  0.000  0.006  0.000  0.006
tot    0.001  0.658  0.035  0.694
 
band     6 # energy   -8.02980726 # occ.  2.00000000
 
ion      s      p      d    tot
    1  0.000  0.000  0.000  0.000
    2  0.000  0.000  0.000  0.000
    3  0.000  0.000  0.000  0.000
    4  0.000  0.000  0.000  0.000
    5  0.000  0.000  0.000  0.000
    6  0.000  0.000  0.000  0.000
    7  0.000  0.000  0.000  0.000
    8  0.000  0.000  0.000  0.000
    9  0.000  0.000  0.000  0.000
   10  0.000  0.000  0.000  0.000
   11  0.000  0.000  0.000  0.000
   12  0.000  0.000  0.000  0.000
   13  0.000  0.000  0.000  0.000
   14  0.000  0.000  0.000  0.000
   15  0.000  0.000  0.000  0.000
   16  0.000  0.000  0.000  0.000
   17  0.000  0.000  0.000  0.000
   18  0.000  0.000  0.000  0.000
   19  0.000  0.000  0.000  0.000
   20  0.000  0.000  0.000  0.000
   21  0.000  0.000  0.000  0.000
   22  0.000  0.000  0.000  0.000
   23  0.000  0.000  0.000  0.000
   24  0.000  0.000  0.000  0.000
   25  0.000  0.000  0.000  0.000
   26  0.000  0.000  0.000  0.000
   27  0.000  0.000  0.000  0.000
   28  0.000  0.000  0.000  0.000
   29  0.000  0.000  0.000  0.000
   30  0.000  0.000  0.001  0.001
   31  0.000  0.000  0.000  0.000
   32  0.000  0.000  0.000  0.000
   33  0.000  0.000  0.001  0.001
   34  0.000  0.000  0.000  0.000
   35  0.000  0.000  0.000  0.000
   36  0.000  0.003  0.032  0.035
   37  0.000  0.128  0.000  0.128
   38  0.000  0.520  0.000  0.520
   39  0.000  0.006  0.000  0.006
tot    0.001  0.658  0.035  0.694
 
band     7 # energy   -7.17474872 # occ.  2.00000000
 
ion      s      p      d    tot
    1  0.017  0.000  0.001  0.018
    2  0.016  0.000  0.001  0.017
    3  0.016  0.000  0.001  0.017
    4  0.016  0.000  0.001  0.017
    5  0.016  0.000  0.001  0.017
    6  0.016  0.000  0.001  0.017
    7  0.016  0.000  0.001  0.017
    8  0.016  0.000  0.001  0.017
    9  0.016  0.000  0.001  0.017
   10  0.011  0.001  0.002  0.014
   11  0.010  0.001  0.002  0.014
   12  0.011  0.001  0.002  0.014
   13  0.010  0.001  0.002  0.014
   14  0.010  0.001  0.002  0.014
   15  0.010  0.001  0.002  0.013
   16  0.011  0.001  0.002  0.014
   17  0.010  0.001  0.002  0.013
   18  0.010  0.001  0.002  0.013
   19  0.013  0.001  0.003  0.017
   20  0.012  0.001  0.003  0.015
   21  0.012  0.001  0.003  0.015
   22  0.014  0.001  0.003  0.017
   23  0.012  0.001  0.003  0.015
   24  0.014  0.001  0.003  0.017
   25  0.013  0.001  0.003  0.017
   26  0.013  0.001  0.003  0.017
   27  0.014  0.001  0.003  0.017
   28  0.016  0.000  0.001  0.017
   29  0.016  0.001  0.001  0.017
   30  0.016  0.001  0.001  0.017
   31  0.016  0.001  0.001  0.017
   32  0.016  0.001  0.001  0.017
   33  0.016  0.001  0.001  0.017
   34  0.016  0.001  0.001  0.017
   35  0.016  0.000  0.001  0.017
   36  0.009  0.004  0.021  0.033
   37  0.003  0.003  0.000  0.006
   38  0.000  0.000  0.000  0.000
   39  0.000  0.000  0.000  0.000
tot    0.488  0.037  0.081  0.606
 
band     8 # energy   -6.26285038 # occ.  2.00000000
 
ion      s      p      d    tot
    1  0.007  0.000  0.008  0.015
    2  0.010  0.000  0.007  0.017
    3  0.010  0.000  0.007  0.017
    4  0.010  0.000  0.007  0.017
    5  0.011  0.000  0.006  0.017
    6  0.010  0.000  0.007  0.017
    7  0.010  0.000  0.007  0.017
    8  0.010  0.000  0.007  0.017
    9  0.013  0.000  0.006  0.019
   10  0.004  0.001  0.001  0.006
   11  0.001  0.001  0.002  0.004
   12  0.004  0.001  0.001  0.006
   13  0.001  0.001  0.002  0.004
   14  0.001  0.001  0.002  0.004
   15  0.000  0.001  0.002  0.003
   16  0.004  0.001  0.001  0.006
   17  0.000  0.001  0.002  0.003
   18  0.000  0.001  0.002  0.003
   19  0.007  0.001  0.010  0.018
   20  0.008  0.001  0.015  0.024
   21  0.008  0.001  0.015  0.024
   22  0.002  0.001  0.011  0.013
   23  0.008  0.001  0.015  0.024
   24  0.002  0.001  0.011  0.013
   25  0.007  0.001  0.010  0.018
   26  0.007  0.001  0.010  0.018
   27  0.002  0.001  0.011  0.013
   28  0.016  0.000  0.013  0.029
   29  0.020  0.000  0.015  0.036
   30  0.020  0.000  0.015  0.036
   31  0.020  0.000  0.015  0.036
   32  0.020  0.000  0.015  0.036
   33  0.020  0.000  0.015  0.036
   34  0.020  0.000  0.015  0.036
   35  0.022  0.000  0.012  0.035
   36  0.018  0.001  0.043  0.062
   37  0.000  0.000  0.000  0.000
   38  0.000  0.000  0.000  0.000
   39  0.000  0.000  0.000  0.000
tot    0.334  0.019  0.340  0.693
 
band     9 # energy   -6.21300558 # occ.  2.00000000
 
ion      s      p      d    tot
    1  0.000  0.001  0.009  0.009
    2  0.004  0.001  0.003  0.007
    3  0.000  0.000  0.003  0.003
    4  0.004  0.001  0.003  0.007
    5  0.000  0.001  0.005  0.006
    6  0.006  0.001  0.003  0.010
    7  0.000  0.000  0.003  0.003
    8  0.006  0.001  0.003  0.010
    9  0.000  0.000  0.001  0.001
   10  0.042  0.002  0.005  0.049
   11  0.010  0.003  0.017  0.030
   12  0.011  0.001  0.027  0.039
   13  0.011  0.003  0.017  0.031
   14  0.042  0.001  0.012  0.054
   15  0.000  0.002  0.008  0.010
   16  0.010  0.001  0.028  0.039
   17  0.000  0.002  0.008  0.010
   18  0.000  0.000  0.011  0.011
   19  0.004  0.003  0.006  0.014
   20  0.065  0.001  0.009  0.075
   21  0.017  0.001  0.029  0.047
   22  0.003  0.001  0.019  0.022
   23  0.016  0.001  0.030  0.047
   24  0.011  0.001  0.006  0.018
   25  0.017  0.000  0.014  0.031
   26  0.004  0.003  0.007  0.014
   27  0.003  0.001  0.019  0.023
   28  0.000  0.001  0.002  0.002
   29  0.006  0.001  0.004  0.011
   30  0.003  0.001  0.003  0.007
   31  0.006  0.001  0.004  0.011
   32  0.001  0.000  0.003  0.004
   33  0.003  0.001  0.003  0.006
   34  0.001  0.000  0.003  0.004
   35  0.000  0.000  0.004  0.004
   36  0.000  0.002  0.021  0.024
   37  0.000  0.000  0.000  0.000
   38  0.000  0.001  0.000  0.001
   39  0.000  0.000  0.000  0.000
tot    0.303  0.044  0.349  0.696
 
band    10 # energy   -6.21298754 # occ.  2.00000000
 
ion      s      p      d    tot
    1  0.000  0.001  0.009  0.009
    2  0.003  0.001  0.003  0.006
    3  0.006  0.001  0.003  0.010
    4  0.003  0.001  0.003  0.006
    5  0.000  0.001  0.005  0.006
    6  0.001  0.000  0.002  0.004
    7  0.006  0.001  0.003  0.010
    8  0.001  0.000  0.002  0.004
    9  0.000  0.000  0.001  0.001
   10  0.000  0.000  0.035  0.035
   11  0.032  0.001  0.013  0.047
   12  0.031  0.002  0.013  0.045
   13  0.031  0.001  0.013  0.046
   14  0.000  0.004  0.018  0.022
   15  0.000  0.001  0.010  0.011
   16  0.032  0.002  0.012  0.046
   17  0.000  0.001  0.010  0.011
   18  0.000  0.003  0.007  0.010
   19  0.013  0.001  0.012  0.025
   20  0.000  0.001  0.036  0.038
   21  0.048  0.001  0.016  0.066
   22  0.008  0.001  0.010  0.020
   23  0.049  0.001  0.016  0.066
   24  0.000  0.001  0.023  0.024
   25  0.000  0.004  0.004  0.008
   26  0.012  0.001  0.011  0.025
   27  0.008  0.001  0.010  0.020
   28  0.000  0.001  0.002  0.002
   29  0.000  0.000  0.003  0.003
   30  0.004  0.001  0.003  0.008
   31  0.000  0.000  0.003  0.003
   32  0.006  0.001  0.004  0.011
   33  0.004  0.001  0.003  0.008
   34  0.006  0.001  0.004  0.011
   35  0.000  0.000  0.004  0.004
   36  0.000  0.002  0.021  0.024
   37  0.000  0.000  0.000  0.000
   38  0.000  0.001  0.000  0.001
   39  0.000  0.000  0.000  0.000
tot    0.303  0.044  0.349  0.696
 
band    11 # energy   -6.18885452 # occ.  2.00000000
 
ion      s      p      d    tot
    1  0.012  0.000  0.014  0.026
    2  0.010  0.000  0.013  0.023
    3  0.010  0.000  0.013  0.023
    4  0.010  0.000  0.013  0.023
    5  0.004  0.000  0.014  0.018
    6  0.010  0.000  0.013  0.023
    7  0.010  0.000  0.013  0.023
    8  0.010  0.000  0.013  0.023
    9  0.019  0.000  0.009  0.027
   10  0.004  0.000  0.027  0.031
   11  0.019  0.001  0.018  0.038
   12  0.004  0.000  0.027  0.031
   13  0.019  0.001  0.018  0.038
   14  0.019  0.001  0.018  0.038
   15  0.001  0.000  0.029  0.030
   16  0.004  0.000  0.027  0.031
   17  0.001  0.000  0.029  0.030
   18  0.001  0.000  0.029  0.030
   19  0.010  0.000  0.011  0.022
   20  0.000  0.000  0.020  0.021
   21  0.000  0.000  0.020  0.021
   22  0.003  0.000  0.015  0.018
   23  0.000  0.000  0.020  0.021
   24  0.003  0.000  0.015  0.018
   25  0.010  0.000  0.011  0.022
   26  0.010  0.000  0.011  0.022
   27  0.003  0.000  0.015  0.018
   28  0.000  0.000  0.004  0.005
   29  0.002  0.000  0.004  0.006
   30  0.002  0.000  0.004  0.006
   31  0.002  0.000  0.004  0.006
   32  0.002  0.000  0.004  0.006
   33  0.002  0.000  0.004  0.006
   34  0.002  0.000  0.004  0.006
   35  0.002  0.000  0.002  0.004
   36  0.007  0.000  0.010  0.017
   37  0.000  0.000  0.000  0.000
   38  0.000  0.000  0.000  0.000
   39  0.000  0.000  0.000  0.000
tot    0.230  0.007  0.516  0.754
 
band    12 # energy   -6.17333697 # occ.  2.00000000
 
ion      s      p      d    tot
    1  0.014  0.001  0.000  0.015
    2  0.001  0.001  0.007  0.009
    3  0.001  0.001  0.007  0.009
    4  0.001  0.001  0.007  0.009
    5  0.006  0.000  0.002  0.008
    6  0.001  0.001  0.007  0.009
    7  0.001  0.001  0.007  0.009
    8  0.001  0.001  0.007  0.009
    9  0.006  0.002  0.005  0.013
   10  0.004  0.000  0.033  0.037
   11  0.002  0.002  0.015  0.019
   12  0.004  0.000  0.033  0.037
   13  0.002  0.002  0.015  0.019
   14  0.002  0.002  0.015  0.019
   15  0.038  0.002  0.004  0.044
   16  0.004  0.000  0.033  0.037
   17  0.038  0.002  0.004  0.044
   18  0.038  0.002  0.004  0.045
   19  0.000  0.001  0.022  0.022
   20  0.022  0.000  0.015  0.037
   21  0.022  0.000  0.015  0.037
   22  0.016  0.003  0.005  0.024
   23  0.022  0.000  0.015  0.037
   24  0.016  0.003  0.005  0.024
   25  0.000  0.001  0.022  0.023
   26  0.000  0.001  0.022  0.022
   27  0.016  0.003  0.005  0.024
   28  0.000  0.000  0.001  0.001
   29  0.000  0.000  0.005  0.005
   30  0.000  0.000  0.005  0.005
   31  0.000  0.000  0.005  0.005
   32  0.000  0.000  0.005  0.005
   33  0.000  0.000  0.005  0.005
   34  0.000  0.000  0.005  0.005
   35  0.004  0.001  0.000  0.005
   36  0.008  0.008  0.004  0.019
   37  0.002  0.002  0.000  0.004
   38  0.000  0.000  0.000  0.001
   39  0.000  0.000  0.000  0.000
tot    0.298  0.047  0.360  0.705
 
band    13 # energy   -6.15711011 # occ.  2.00000000
 
ion      s      p      d    tot
    1  0.000  0.001  0.002  0.003
    2  0.003  0.001  0.004  0.007
    3  0.008  0.001  0.003  0.012
    4  0.003  0.001  0.004  0.008
    5  0.000  0.000  0.005  0.005
    6  0.001  0.000  0.003  0.004
    7  0.008  0.001  0.004  0.013
    8  0.001  0.000  0.003  0.004
    9  0.000  0.001  0.010  0.011
   10  0.018  0.000  0.016  0.034
   11  0.004  0.001  0.022  0.027
   12  0.003  0.004  0.005  0.012
   13  0.003  0.001  0.023  0.028
   14  0.013  0.002  0.006  0.020
   15  0.018  0.002  0.028  0.047
   16  0.004  0.003  0.006  0.014
   17  0.013  0.002  0.030  0.045
   18  0.060  0.001  0.007  0.069
   19  0.011  0.001  0.028  0.039
   20  0.000  0.001  0.014  0.015
   21  0.000  0.002  0.008  0.010
   22  0.010  0.003  0.018  0.031
   23  0.000  0.002  0.008  0.011
   24  0.043  0.001  0.012  0.056
   25  0.036  0.002  0.003  0.041
   26  0.009  0.000  0.030  0.039
   27  0.013  0.003  0.017  0.033
   28  0.000  0.000  0.007  0.007
   29  0.001  0.000  0.003  0.004
   30  0.003  0.001  0.002  0.006
   31  0.000  0.000  0.003  0.003
   32  0.006  0.001  0.003  0.010
   33  0.003  0.001  0.002  0.005
   34  0.006  0.001  0.003  0.010
   35  0.000  0.001  0.005  0.006
   36  0.000  0.000  0.001  0.001
   37  0.000  0.000  0.000  0.000
   38  0.000  0.000  0.000  0.000
   39  0.000  0.000  0.000  0.000
tot    0.302  0.042  0.349  0.693
 
band    14 # energy   -6.15710274 # occ.  2.00000000
 
ion      s      p      d    tot
    1  0.000  0.001  0.002  0.003
    2  0.005  0.001  0.003  0.009
    3  0.000  0.000  0.003  0.004
    4  0.004  0.001  0.003  0.008
    5  0.000  0.000  0.005  0.005
    6  0.007  0.001  0.004  0.012
    7  0.000  0.000  0.003  0.004
    8  0.007  0.001  0.004  0.012
    9  0.000  0.001  0.010  0.011
   10  0.000  0.005  0.003  0.007
   11  0.010  0.001  0.012  0.023
   12  0.013  0.001  0.013  0.028
   13  0.011  0.001  0.011  0.023
   14  0.000  0.001  0.028  0.029
   15  0.044  0.001  0.015  0.060
   16  0.012  0.001  0.012  0.026
   17  0.048  0.001  0.013  0.062
   18  0.000  0.002  0.037  0.039
   19  0.027  0.001  0.013  0.041
   20  0.000  0.003  0.007  0.010
   21  0.000  0.001  0.012  0.013
   22  0.035  0.001  0.013  0.049
   23  0.000  0.001  0.012  0.013
   24  0.000  0.003  0.020  0.023
   25  0.000  0.000  0.037  0.037
   26  0.029  0.002  0.010  0.041
   27  0.032  0.002  0.014  0.047
   28  0.000  0.000  0.007  0.007
   29  0.006  0.001  0.003  0.009
   30  0.003  0.001  0.003  0.007
   31  0.006  0.001  0.003  0.010
   32  0.000  0.000  0.002  0.003
   33  0.003  0.001  0.003  0.007
   34  0.001  0.000  0.002  0.003
   35  0.000  0.001  0.005  0.006
   36  0.000  0.000  0.001  0.001
   37  0.000  0.000  0.000  0.000
   38  0.000  0.000  0.000  0.000
   39  0.000  0.000  0.000  0.000
tot    0.302  0.042  0.349  0.693
 
band    15 # energy   -6.15557800 # occ.  2.00000000
 
ion      s      p      d    tot
    1  0.006  0.001  0.002  0.010
    2  0.000  0.001  0.006  0.007
    3  0.000  0.001  0.006  0.007
    4  0.000  0.001  0.006  0.007
    5  0.017  0.001  0.000  0.019
    6  0.000  0.001  0.006  0.007
    7  0.000  0.001  0.006  0.007
    8  0.000  0.001  0.006  0.007
    9  0.000  0.000  0.003  0.003
   10  0.027  0.003  0.001  0.031
   11  0.016  0.001  0.025  0.041
   12  0.028  0.003  0.001  0.032
   13  0.016  0.001  0.025  0.041
   14  0.017  0.001  0.025  0.043
   15  0.000  0.001  0.023  0.024
   16  0.028  0.003  0.001  0.032
   17  0.000  0.001  0.023  0.024
   18  0.000  0.001  0.022  0.024
   19  0.018  0.002  0.009  0.030
   20  0.007  0.002  0.014  0.023
   21  0.007  0.002  0.015  0.024
   22  0.012  0.000  0.023  0.035
   23  0.007  0.002  0.015  0.024
   24  0.014  0.000  0.022  0.036
   25  0.020  0.002  0.010  0.031
   26  0.018  0.002  0.009  0.030
   27  0.012  0.000  0.023  0.035
   28  0.016  0.001  0.000  0.017
   29  0.001  0.000  0.005  0.006
   30  0.001  0.000  0.005  0.006
   31  0.001  0.000  0.005  0.006
   32  0.001  0.000  0.005  0.006
   33  0.001  0.000  0.005  0.006
   34  0.001  0.000  0.005  0.006
   35  0.002  0.001  0.005  0.007
   36  0.000  0.000  0.000  0.001
   37  0.000  0.000  0.000  0.000
   38  0.000  0.000  0.000  0.000
   39  0.000  0.000  0.000  0.000
tot    0.297  0.039  0.361  0.697
 
band    16 # energy   -5.72459797 # occ.  2.00000000
 
ion      s      p      d    tot
    1  0.000  0.000  0.004  0.005
    2  0.002  0.001  0.005  0.008
    3  0.010  0.001  0.004  0.016
    4  0.002  0.001  0.005  0.008
    5  0.000  0.002  0.009  0.011
    6  0.003  0.001  0.004  0.008
    7  0.010  0.001  0.004  0.016
    8  0.003  0.001  0.004  0.007
    9  0.000  0.000  0.009  0.010
   10  0.000  0.001  0.043  0.044
   11  0.019  0.001  0.019  0.039
   12  0.005  0.001  0.019  0.025
   13  0.019  0.001  0.019  0.039
   14  0.000  0.000  0.054  0.054
   15  0.004  0.000  0.019  0.023
   16  0.005  0.001  0.019  0.025
   17  0.004  0.000  0.019  0.023
   18  0.000  0.001  0.012  0.014
   19  0.002  0.000  0.017  0.020
   20  0.000  0.000  0.067  0.067
   21  0.015  0.001  0.021  0.038
   22  0.005  0.001  0.018  0.024
   23  0.015  0.001  0.022  0.038
   24  0.000  0.001  0.036  0.037
   25  0.000  0.001  0.009  0.010
   26  0.002  0.000  0.017  0.020
   27  0.005  0.001  0.018  0.024
   28  0.000  0.000  0.007  0.007
   29  0.004  0.001  0.004  0.009
   30  0.008  0.001  0.005  0.015
   31  0.004  0.001  0.004  0.009
   32  0.001  0.000  0.004  0.005
   33  0.008  0.001  0.005  0.015
   34  0.001  0.000  0.004  0.005
   35  0.000  0.000  0.003  0.003
   36  0.000  0.003  0.026  0.028
   37  0.000  0.000  0.000  0.000
   38  0.000  0.001  0.000  0.001
   39  0.000  0.000  0.000  0.000
tot    0.155  0.033  0.562  0.749
 
band    17 # energy   -5.72456970 # occ.  2.00000000
 
ion      s      p      d    tot
    1  0.000  0.000  0.004  0.005
    2  0.008  0.001  0.004  0.013
    3  0.000  0.000  0.004  0.005
    4  0.008  0.001  0.004  0.013
    5  0.000  0.002  0.009  0.011
    6  0.007  0.001  0.005  0.013
    7  0.000  0.000  0.004  0.005
    8  0.007  0.001  0.005  0.013
    9  0.000  0.000  0.009  0.010
   10  0.007  0.002  0.011  0.019
   11  0.006  0.000  0.042  0.049
   12  0.002  0.001  0.035  0.038
   13  0.006  0.000  0.042  0.049
   14  0.025  0.001  0.008  0.034
   15  0.001  0.001  0.015  0.017
   16  0.002  0.001  0.035  0.038
   17  0.001  0.001  0.015  0.017
   18  0.005  0.000  0.022  0.026
   19  0.001  0.001  0.012  0.013
   20  0.021  0.001  0.006  0.028
   21  0.005  0.000  0.052  0.057
   22  0.002  0.001  0.030  0.033
   23  0.005  0.000  0.052  0.057
   24  0.006  0.002  0.012  0.020
   25  0.003  0.000  0.020  0.023
   26  0.001  0.001  0.012  0.013
   27  0.002  0.001  0.030  0.033
   28  0.000  0.000  0.007  0.007
   29  0.004  0.001  0.005  0.010
   30  0.001  0.000  0.004  0.005
   31  0.004  0.001  0.005  0.010
   32  0.008  0.001  0.005  0.014
   33  0.001  0.000  0.004  0.005
   34  0.008  0.001  0.005  0.014
   35  0.000  0.000  0.003  0.003
   36  0.000  0.003  0.026  0.028
   37  0.000  0.000  0.000  0.000
   38  0.000  0.001  0.000  0.001
   39  0.000  0.000  0.000  0.000
tot    0.155  0.033  0.562  0.749
 
band    18 # energy   -5.70185289 # occ.  2.00000000
 
ion      s      p      d    tot
    1  0.018  0.002  0.001  0.021
    2  0.000  0.001  0.007  0.008
    3  0.000  0.001  0.007  0.008
    4  0.000  0.001  0.007  0.008
    5  0.006  0.001  0.002  0.009
    6  0.000  0.001  0.007  0.008
    7  0.000  0.001  0.007  0.008
    8  0.000  0.001  0.007  0.008
    9  0.003  0.000  0.001  0.004
   10  0.006  0.001  0.013  0.020
   11  0.009  0.001  0.022  0.032
   12  0.006  0.001  0.013  0.020
   13  0.009  0.001  0.022  0.032
   14  0.009  0.001  0.022  0.032
   15  0.000  0.000  0.039  0.039
   16  0.006  0.001  0.013  0.020
   17  0.000  0.000  0.039  0.039
   18  0.000  0.000  0.038  0.039
   19  0.010  0.002  0.004  0.016
   20  0.001  0.000  0.036  0.037
   21  0.001  0.000  0.036  0.037
   22  0.008  0.000  0.036  0.045
   23  0.001  0.000  0.036  0.037
   24  0.008  0.000  0.037  0.045
   25  0.010  0.002  0.004  0.016
   26  0.010  0.002  0.004  0.016
   27  0.008  0.000  0.036  0.045
   28  0.019  0.002  0.000  0.021
   29  0.000  0.001  0.009  0.010
   30  0.000  0.001  0.009  0.010
   31  0.000  0.001  0.009  0.010
   32  0.000  0.001  0.009  0.010
   33  0.000  0.001  0.009  0.010
   34  0.000  0.001  0.009  0.010
   35  0.000  0.000  0.003  0.003
   36  0.009  0.002  0.005  0.016
   37  0.000  0.000  0.000  0.001
   38  0.000  0.000  0.000  0.000
   39  0.000  0.000  0.000  0.000
tot    0.156  0.032  0.561  0.750
 
band    19 # energy   -5.67957899 # occ.  2.00000000
 
ion      s      p      d    tot
    1  0.000  0.001  0.014  0.015
    2  0.008  0.001  0.004  0.013
    3  0.000  0.000  0.005  0.005
    4  0.008  0.001  0.004  0.013
    5  0.000  0.000  0.007  0.007
    6  0.006  0.001  0.005  0.013
    7  0.000  0.000  0.005  0.005
    8  0.006  0.001  0.005  0.012
    9  0.000  0.001  0.005  0.006
   10  0.000  0.000  0.038  0.038
   11  0.000  0.001  0.019  0.020
   12  0.012  0.001  0.021  0.034
   13  0.000  0.001  0.019  0.020
   14  0.000  0.001  0.014  0.015
   15  0.011  0.002  0.019  0.031
   16  0.012  0.001  0.021  0.033
   17  0.011  0.002  0.019  0.032
   18  0.000  0.000  0.059  0.059
   19  0.015  0.001  0.019  0.035
   20  0.000  0.002  0.021  0.023
   21  0.000  0.001  0.020  0.021
   22  0.013  0.001  0.020  0.033
   23  0.000  0.001  0.020  0.021
   24  0.000  0.001  0.026  0.027
   25  0.000  0.000  0.063  0.063
   26  0.015  0.001  0.019  0.035
   27  0.013  0.001  0.020  0.034
   28  0.000  0.001  0.006  0.007
   29  0.006  0.001  0.004  0.011
   30  0.000  0.000  0.005  0.005
   31  0.006  0.001  0.004  0.011
   32  0.008  0.001  0.004  0.012
   33  0.000  0.000  0.005  0.005
   34  0.007  0.001  0.004  0.012
   35  0.000  0.001  0.010  0.010
   36  0.000  0.000  0.006  0.006
   37  0.000  0.000  0.000  0.000
   38  0.000  0.000  0.000  0.000
   39  0.000  0.000  0.000  0.000
tot    0.158  0.031  0.557  0.746
 
band    20 # energy   -5.67957000 # occ.  2.00000000
 
ion      s      p      d    tot
    1  0.000  0.001  0.013  0.015
    2  0.002  0.001  0.005  0.008
    3  0.010  0.001  0.004  0.016
    4  0.002  0.001  0.005  0.007
    5  0.000  0.000  0.007  0.007
    6  0.003  0.001  0.004  0.008
    7  0.010  0.001  0.004  0.016
    8  0.004  0.001  0.004  0.008
    9  0.000  0.001  0.005  0.006
   10  0.016  0.001  0.015  0.032
   11  0.000  0.001  0.016  0.017
   12  0.004  0.001  0.032  0.037
   13  0.000  0.001  0.016  0.017
   14  0.000  0.001  0.021  0.021
   15  0.003  0.001  0.046  0.050
   16  0.004  0.001  0.032  0.037
   17  0.004  0.001  0.045  0.050
   18  0.015  0.002  0.006  0.023
   19  0.005  0.001  0.048  0.054
   20  0.000  0.001  0.020  0.021
   21  0.000  0.001  0.021  0.022
   22  0.004  0.001  0.024  0.029
   23  0.000  0.001  0.021  0.022
   24  0.017  0.001  0.018  0.035
   25  0.020  0.002  0.004  0.026
   26  0.005  0.001  0.048  0.053
   27  0.004  0.001  0.024  0.029
   28  0.000  0.001  0.006  0.007
   29  0.003  0.001  0.004  0.008
   30  0.009  0.001  0.004  0.014
   31  0.003  0.001  0.004  0.008
   32  0.001  0.001  0.005  0.007
   33  0.009  0.001  0.004  0.014
   34  0.002  0.001  0.005  0.007
   35  0.000  0.001  0.010  0.010
   36  0.000  0.000  0.006  0.006
   37  0.000  0.000  0.000  0.000
   38  0.000  0.000  0.000  0.000
   39  0.000  0.000  0.000  0.000