PROCAR new format
# of k-points:   10         # of bands:  252         # of ions:   37

 k-point     1 :    0.00000000 0.00000000 0.00000000     weight = 0.01562500

band     1 # energy  -16.60528645 # occ.  2.00000000
 
ion      s      p      d    tot
    1  0.000  0.000  0.000  0.000
    2  0.000  0.000  0.000  0.000
    3  0.000  0.000  0.000  0.000
    4  0.000  0.000  0.000  0.000
    5  0.000  0.000  0.000  0.000
    6  0.000  0.000  0.000  0.000
    7  0.000  0.000  0.000  0.000
    8  0.000  0.000  0.000  0.000
    9  0.000  0.000  0.000  0.000
   10  0.000  0.000  0.000  0.000
   11  0.000  0.000  0.000  0.000
   12  0.000  0.000  0.000  0.000
   13  0.000  0.000  0.000  0.000
   14  0.000  0.000  0.000  0.000
   15  0.000  0.000  0.000  0.000
   16  0.000  0.000  0.000  0.000
   17  0.000  0.000  0.000  0.000
   18  0.000  0.000  0.000  0.000
   19  0.000  0.000  0.000  0.000
   20  0.000  0.000  0.000  0.000
   21  0.000  0.000  0.000  0.000
   22  0.000  0.000  0.000  0.000
   23  0.000  0.000  0.000  0.000
   24  0.000  0.000  0.000  0.000
   25  0.000  0.000  0.000  0.000
   26  0.000  0.000  0.000  0.000
   27  0.000  0.000  0.000  0.000
   28  0.000  0.000  0.000  0.000
   29  0.000  0.000  0.000  0.000
   30  0.000  0.000  0.000  0.000
   31  0.000  0.000  0.000  0.000
   32  0.000  0.000  0.000  0.000
   33  0.000  0.000  0.000  0.000
   34  0.000  0.000  0.000  0.000
   35  0.000  0.000  0.000  0.000
   36  0.032  0.034  0.064  0.130
   37  0.756  0.013  0.000  0.769
tot    0.788  0.047  0.064  0.900
 
band     2 # energy   -6.40497215 # occ.  2.00000000
 
ion      s      p      d    tot
    1  0.005  0.001  0.000  0.006
    2  0.005  0.001  0.000  0.006
    3  0.005  0.001  0.000  0.006
    4  0.005  0.001  0.000  0.006
    5  0.005  0.001  0.000  0.006
    6  0.005  0.001  0.000  0.006
    7  0.005  0.001  0.000  0.006
    8  0.005  0.001  0.000  0.006
    9  0.005  0.001  0.000  0.006
   10  0.022  0.000  0.000  0.022
   11  0.022  0.000  0.000  0.022
   12  0.022  0.000  0.000  0.022
   13  0.022  0.000  0.000  0.022
   14  0.022  0.000  0.000  0.022
   15  0.021  0.000  0.000  0.022
   16  0.022  0.000  0.000  0.022
   17  0.022  0.000  0.000  0.022
   18  0.022  0.000  0.000  0.022
   19  0.022  0.000  0.000  0.023
   20  0.026  0.000  0.000  0.027
   21  0.026  0.000  0.000  0.027
   22  0.023  0.000  0.000  0.024
   23  0.026  0.000  0.000  0.027
   24  0.023  0.000  0.000  0.024
   25  0.022  0.000  0.000  0.023
   26  0.022  0.000  0.000  0.023
   27  0.023  0.000  0.000  0.024
   28  0.006  0.001  0.000  0.007
   29  0.007  0.001  0.000  0.008
   30  0.007  0.001  0.000  0.008
   31  0.007  0.001  0.000  0.008
   32  0.007  0.001  0.000  0.008
   33  0.007  0.001  0.000  0.008
   34  0.007  0.001  0.000  0.008
   35  0.006  0.001  0.000  0.007
   36  0.018  0.002  0.000  0.020
   37  0.001  0.001  0.000  0.002
tot    0.529  0.015  0.006  0.550
 
band     3 # energy   -5.54931197 # occ.  2.00000000
 
ion      s      p      d    tot
    1  0.009  0.000  0.001  0.010
    2  0.010  0.000  0.001  0.011
    3  0.010  0.000  0.001  0.011
    4  0.010  0.000  0.001  0.011
    5  0.010  0.000  0.000  0.010
    6  0.010  0.000  0.001  0.011
    7  0.010  0.000  0.001  0.011
    8  0.010  0.000  0.001  0.011
    9  0.010  0.001  0.000  0.011
   10  0.012  0.001  0.013  0.025
   11  0.012  0.001  0.011  0.024
   12  0.012  0.001  0.013  0.025
   13  0.012  0.001  0.011  0.024
   14  0.012  0.001  0.011  0.024
   15  0.014  0.001  0.011  0.026
   16  0.012  0.001  0.013  0.025
   17  0.014  0.001  0.011  0.026
   18  0.014  0.001  0.011  0.026
   19  0.006  0.001  0.010  0.017
   20  0.013  0.002  0.008  0.023
   21  0.013  0.002  0.008  0.023
   22  0.006  0.001  0.010  0.017
   23  0.013  0.002  0.008  0.023
   24  0.006  0.001  0.010  0.017
   25  0.006  0.001  0.010  0.017
   26  0.006  0.001  0.010  0.017
   27  0.006  0.001  0.010  0.017
   28  0.007  0.000  0.001  0.008
   29  0.010  0.000  0.003  0.013
   30  0.010  0.000  0.003  0.013
   31  0.010  0.000  0.003  0.013
   32  0.010  0.000  0.003  0.013
   33  0.010  0.000  0.003  0.013
   34  0.010  0.000  0.003  0.013
   35  0.007  0.000  0.001  0.008
   36  0.039  0.002  0.000  0.041
   37  0.002  0.004  0.000  0.006
tot    0.391  0.034  0.210  0.635
 
band     4 # energy   -5.28075559 # occ.  2.00000000
 
ion      s      p      d    tot
    1  0.002  0.000  0.010  0.012
    2  0.004  0.000  0.007  0.010
    3  0.004  0.000  0.007  0.010
    4  0.004  0.000  0.007  0.010
    5  0.004  0.000  0.005  0.009
    6  0.004  0.000  0.007  0.010
    7  0.004  0.000  0.007  0.010
    8  0.004  0.000  0.007  0.010
    9  0.006  0.000  0.006  0.011
   10  0.001  0.000  0.017  0.018
   11  0.001  0.000  0.017  0.018
   12  0.001  0.000  0.017  0.018
   13  0.001  0.000  0.017  0.018
   14  0.001  0.000  0.017  0.018
   15  0.000  0.000  0.018  0.018
   16  0.001  0.000  0.017  0.018
   17  0.000  0.000  0.018  0.018
   18  0.000  0.000  0.018  0.018
   19  0.005  0.000  0.024  0.029
   20  0.000  0.001  0.040  0.041
   21  0.000  0.001  0.040  0.041
   22  0.004  0.000  0.024  0.028
   23  0.000  0.001  0.040  0.041
   24  0.004  0.000  0.024  0.028
   25  0.005  0.000  0.024  0.029
   26  0.005  0.000  0.024  0.029
   27  0.004  0.000  0.024  0.028
   28  0.003  0.000  0.018  0.020
   29  0.007  0.000  0.020  0.028
   30  0.007  0.000  0.020  0.028
   31  0.007  0.000  0.020  0.028
   32  0.007  0.000  0.020  0.028
   33  0.007  0.000  0.020  0.028
   34  0.007  0.000  0.020  0.028
   35  0.003  0.000  0.014  0.017
   36  0.039  0.001  0.013  0.053
   37  0.001  0.000  0.000  0.001
tot    0.157  0.006  0.645  0.808
 
band     5 # energy   -5.16975334 # occ.  2.00000000
 
ion      s      p      d    tot
    1  0.016  0.001  0.001  0.018
    2  0.004  0.000  0.009  0.013
    3  0.004  0.000  0.009  0.013
    4  0.004  0.000  0.009  0.013
    5  0.002  0.000  0.009  0.011
    6  0.004  0.000  0.009  0.013
    7  0.004  0.000  0.009  0.013
    8  0.004  0.000  0.009  0.013
    9  0.000  0.000  0.009  0.009
   10  0.003  0.000  0.035  0.038
   11  0.000  0.000  0.014  0.014
   12  0.003  0.000  0.035  0.038
   13  0.000  0.000  0.014  0.014
   14  0.000  0.000  0.014  0.014
   15  0.006  0.001  0.001  0.008
   16  0.003  0.000  0.035  0.038
   17  0.006  0.001  0.001  0.008
   18  0.006  0.001  0.001  0.008
   19  0.002  0.000  0.038  0.040
   20  0.007  0.001  0.054  0.062
   21  0.007  0.001  0.054  0.062
   22  0.012  0.001  0.001  0.014
   23  0.007  0.001  0.054  0.062
   24  0.012  0.001  0.001  0.014
   25  0.002  0.000  0.038  0.040
   26  0.002  0.000  0.038  0.040
   27  0.012  0.001  0.001  0.014
   28  0.005  0.001  0.001  0.006
   29  0.001  0.000  0.007  0.009
   30  0.001  0.000  0.007  0.009
   31  0.001  0.000  0.007  0.009
   32  0.001  0.000  0.007  0.009
   33  0.001  0.000  0.007  0.009
   34  0.001  0.000  0.007  0.009
   35  0.009  0.001  0.000  0.010
   36  0.021  0.002  0.030  0.054
   37  0.004  0.018  0.000  0.022
tot    0.177  0.035  0.577  0.789
 
band     6 # energy   -5.09996806 # occ.  2.00000000
 
ion      s      p      d    tot
    1  0.006  0.000  0.021  0.027
    2  0.010  0.000  0.022  0.031
    3  0.010  0.000  0.022  0.031
    4  0.010  0.000  0.022  0.031
    5  0.015  0.000  0.021  0.035
    6  0.010  0.000  0.022  0.031
    7  0.010  0.000  0.022  0.031
    8  0.010  0.000  0.022  0.031
    9  0.008  0.000  0.023  0.031
   10  0.004  0.001  0.004  0.009
   11  0.001  0.000  0.023  0.024
   12  0.004  0.001  0.004  0.009
   13  0.001  0.000  0.023  0.024
   14  0.001  0.000  0.023  0.024
   15  0.000  0.000  0.017  0.018
   16  0.004  0.001  0.004  0.009
   17  0.000  0.000  0.017  0.018
   18  0.000  0.000  0.017  0.018
   19  0.007  0.001  0.007  0.014
   20  0.002  0.000  0.032  0.035
   21  0.002  0.000  0.032  0.034
   22  0.001  0.000  0.015  0.015
   23  0.002  0.000  0.032  0.034
   24  0.001  0.000  0.015  0.015
   25  0.007  0.001  0.007  0.014
   26  0.007  0.001  0.007  0.014
   27  0.001  0.000  0.015  0.015
   28  0.001  0.000  0.008  0.009
   29  0.004  0.000  0.012  0.016
   30  0.004  0.000  0.012  0.016
   31  0.004  0.000  0.012  0.016
   32  0.004  0.000  0.012  0.016
   33  0.004  0.000  0.012  0.016
   34  0.004  0.000  0.012  0.016
   35  0.006  0.000  0.002  0.008
   36  0.006  0.000  0.039  0.045
   37  0.000  0.004  0.000  0.005
tot    0.165  0.014  0.607  0.785
 
band     7 # energy   -5.09863906 # occ.  2.00000000
 
ion      s      p      d    tot
    1  0.000  0.000  0.006  0.006
    2  0.000  0.000  0.002  0.003
    3  0.001  0.000  0.003  0.004
    4  0.000  0.000  0.002  0.003
    5  0.000  0.000  0.007  0.007
    6  0.001  0.000  0.004  0.005
    7  0.001  0.000  0.003  0.004
    8  0.001  0.000  0.004  0.006
    9  0.000  0.000  0.001  0.001
   10  0.014  0.001  0.007  0.021
   11  0.005  0.001  0.029  0.035
   12  0.004  0.000  0.045  0.048
   13  0.005  0.001  0.029  0.035
   14  0.019  0.001  0.020  0.040
   15  0.000  0.001  0.024  0.025
   16  0.003  0.000  0.045  0.049
   17  0.000  0.001  0.024  0.025
   18  0.001  0.000  0.026  0.027
   19  0.001  0.001  0.022  0.023
   20  0.031  0.001  0.021  0.053
   21  0.008  0.001  0.037  0.046
   22  0.004  0.000  0.072  0.076
   23  0.007  0.001  0.037  0.046
   24  0.014  0.001  0.004  0.019
   25  0.002  0.000  0.035  0.037
   26  0.001  0.001  0.022  0.024
   27  0.003  0.000  0.073  0.077
   28  0.000  0.000  0.000  0.000
   29  0.002  0.001  0.006  0.009
   30  0.001  0.000  0.005  0.006
   31  0.002  0.001  0.006  0.009
   32  0.000  0.000  0.003  0.004
   33  0.001  0.000  0.005  0.005
   34  0.000  0.000  0.003  0.004
   35  0.000  0.000  0.006  0.007
   36  0.000  0.001  0.011  0.012
   37  0.000  0.001  0.000  0.001
tot    0.131  0.018  0.651  0.800
 
band     8 # energy   -5.09862183 # occ.  2.00000000
 
ion      s      p      d    tot
    1  0.000  0.000  0.006  0.006
    2  0.002  0.000  0.004  0.006
    3  0.001  0.000  0.003  0.004
    4  0.002  0.000  0.004  0.006
    5  0.000  0.000  0.007  0.007
    6  0.000  0.000  0.003  0.003
    7  0.001  0.000  0.003  0.004
    8  0.000  0.000  0.003  0.003
    9  0.000  0.000  0.001  0.001
   10  0.000  0.000  0.058  0.058
   11  0.014  0.001  0.023  0.038
   12  0.010  0.001  0.020  0.031
   13  0.014  0.001  0.023  0.038
   14  0.000  0.001  0.032  0.033
   15  0.000  0.000  0.025  0.026
   16  0.011  0.001  0.019  0.030
   17  0.000  0.000  0.025  0.026
   18  0.000  0.001  0.023  0.024
   19  0.002  0.001  0.030  0.033
   20  0.000  0.001  0.043  0.044
   21  0.023  0.001  0.027  0.050
   22  0.011  0.001  0.028  0.039
   23  0.023  0.001  0.027  0.051
   24  0.000  0.000  0.095  0.095
   25  0.000  0.002  0.017  0.019
   26  0.002  0.001  0.030  0.032
   27  0.011  0.001  0.026  0.038
   28  0.000  0.000  0.000  0.000
   29  0.000  0.000  0.003  0.003
   30  0.001  0.001  0.005  0.006
   31  0.000  0.000  0.003  0.003
   32  0.001  0.001  0.006  0.008
   33  0.001  0.001  0.005  0.006
   34  0.002  0.001  0.006  0.008
   35  0.000  0.000  0.006  0.007
   36  0.000  0.001  0.011  0.012
   37  0.000  0.001  0.000  0.001
tot    0.131  0.018  0.651  0.800
 
band     9 # energy   -5.09140367 # occ.  2.00000000
 
ion      s      p      d    tot
    1  0.000  0.000  0.003  0.003
    2  0.001  0.000  0.003  0.004
    3  0.001  0.000  0.004  0.005
    4  0.000  0.000  0.002  0.003
    5  0.000  0.000  0.002  0.002
    6  0.002  0.000  0.005  0.007
    7  0.000  0.000  0.003  0.003
    8  0.001  0.001  0.004  0.006
    9  0.000  0.000  0.010  0.010
   10  0.001  0.001  0.013  0.015
   11  0.002  0.000  0.040  0.043
   12  0.008  0.000  0.033  0.041
   13  0.004  0.000  0.016  0.021
   14  0.000  0.000  0.059  0.060
   15  0.012  0.001  0.038  0.051
   16  0.004  0.001  0.022  0.027
   17  0.025  0.001  0.014  0.039
   18  0.002  0.001  0.057  0.059
   19  0.010  0.001  0.041  0.052
   20  0.000  0.001  0.049  0.049
   21  0.001  0.000  0.022  0.023
   22  0.013  0.000  0.032  0.045
   23  0.001  0.000  0.037  0.038
   24  0.001  0.001  0.018  0.020
   25  0.002  0.000  0.064  0.066
   26  0.021  0.001  0.011  0.033
   27  0.006  0.001  0.024  0.031
   28  0.000  0.000  0.008  0.008
   29  0.001  0.000  0.004  0.005
   30  0.001  0.000  0.003  0.004
   31  0.001  0.000  0.005  0.007
   32  0.000  0.000  0.002  0.002
   33  0.001  0.000  0.005  0.006
   34  0.000  0.000  0.002  0.003
   35  0.000  0.000  0.005  0.005
   36  0.000  0.000  0.003  0.003
   37  0.000  0.000  0.000  0.000
tot    0.124  0.017  0.661  0.802
 
band    10 # energy   -5.09140318 # occ.  2.00000000
 
ion      s      p      d    tot
    1  0.000  0.000  0.003  0.003
    2  0.001  0.000  0.004  0.005
    3  0.001  0.000  0.003  0.004
    4  0.002  0.000  0.005  0.007
    5  0.000  0.000  0.002  0.002
    6  0.000  0.000  0.002  0.003
    7  0.001  0.001  0.005  0.007
    8  0.000  0.000  0.003  0.003
    9  0.000  0.000  0.010  0.010
   10  0.008  0.000  0.032  0.040
   11  0.002  0.000  0.037  0.040
   12  0.000  0.001  0.012  0.014
   13  0.000  0.000  0.061  0.062
   14  0.004  0.000  0.018  0.022
   15  0.014  0.001  0.034  0.049
   16  0.005  0.001  0.023  0.029
   17  0.001  0.001  0.058  0.060
   18  0.024  0.001  0.016  0.040
   19  0.012  0.001  0.036  0.049
   20  0.001  0.000  0.023  0.025
   21  0.000  0.001  0.050  0.050
   22  0.001  0.001  0.017  0.019
   23  0.001  0.000  0.035  0.036
   24  0.012  0.001  0.031  0.044
   25  0.020  0.001  0.013  0.034
   26  0.001  0.000  0.066  0.068
   27  0.007  0.001  0.025  0.033
   28  0.000  0.000  0.008  0.008
   29  0.001  0.000  0.003  0.004
   30  0.001  0.000  0.004  0.005
   31  0.000  0.000  0.002  0.002
   32  0.001  0.000  0.005  0.006
   33  0.000  0.000  0.002  0.003
   34  0.001  0.000  0.004  0.006
   35  0.000  0.000  0.005  0.005
   36  0.000  0.000  0.003  0.003
   37  0.000  0.000  0.000  0.000
tot    0.124  0.017  0.661  0.802
 
band    11 # energy   -5.08175022 # occ.  2.00000000
 
ion      s      p      d    tot
    1  0.002  0.000  0.000  0.003
    2  0.000  0.000  0.006  0.006
    3  0.000  0.000  0.006  0.006
    4  0.000  0.000  0.006  0.006
    5  0.002  0.001  0.010  0.014
    6  0.000  0.000  0.006  0.006
    7  0.000  0.000  0.006  0.006
    8  0.000  0.000  0.006  0.006
    9  0.004  0.000  0.001  0.005
   10  0.006  0.001  0.003  0.010
   11  0.014  0.001  0.037  0.052
   12  0.006  0.001  0.003  0.010
   13  0.014  0.001  0.037  0.052
   14  0.014  0.001  0.037  0.052
   15  0.000  0.000  0.057  0.058
   16  0.006  0.001  0.003  0.010
   17  0.000  0.000  0.057  0.058
   18  0.000  0.000  0.057  0.058
   19  0.009  0.000  0.025  0.035
   20  0.005  0.001  0.013  0.020
   21  0.005  0.001  0.013  0.020
   22  0.002  0.000  0.052  0.054
   23  0.005  0.001  0.013  0.020
   24  0.003  0.000  0.052  0.054
   25  0.009  0.000  0.025  0.035
   26  0.009  0.000  0.025  0.035
   27  0.002  0.000  0.052  0.054
   28  0.007  0.001  0.001  0.009
   29  0.000  0.000  0.005  0.005
   30  0.000  0.000  0.005  0.005
   31  0.000  0.000  0.005  0.005
   32  0.000  0.000  0.005  0.005
   33  0.000  0.000  0.005  0.005
   34  0.000  0.000  0.005  0.005
   35  0.001  0.001  0.011  0.013
   36  0.000  0.000  0.001  0.001
   37  0.000  0.000  0.000  0.000
tot    0.134  0.016  0.651  0.801
 
band    12 # energy   -5.06268213 # occ.  2.00000000
 
ion      s      p      d    tot
    1  0.000  0.000  0.000  0.000
    2  0.000  0.000  0.007  0.008
    3  0.000  0.000  0.007  0.008
    4  0.000  0.000  0.007  0.008
    5  0.001  0.000  0.000  0.002
    6  0.000  0.000  0.007  0.008
    7  0.000  0.000  0.007  0.008
    8  0.000  0.000  0.007  0.008
    9  0.001  0.000  0.015  0.016
   10  0.000  0.000  0.038  0.038
   11  0.003  0.001  0.007  0.011
   12  0.000  0.000  0.038  0.038
   13  0.003  0.001  0.007  0.011
   14  0.003  0.001  0.007  0.011
   15  0.005  0.000  0.072  0.077
   16  0.000  0.000  0.038  0.038
   17  0.005  0.000  0.072  0.077
   18  0.005  0.000  0.072  0.077
   19  0.002  0.000  0.016  0.019
   20  0.001  0.000  0.023  0.024
   21  0.001  0.000  0.023  0.023
   22  0.002  0.000  0.061  0.063
   23  0.001  0.000  0.023  0.023
   24  0.002  0.000  0.061  0.063
   25  0.002  0.000  0.016  0.019
   26  0.002  0.000  0.016  0.019
   27  0.002  0.000  0.061  0.063
   28  0.001  0.000  0.000  0.002
   29  0.001  0.000  0.008  0.009
   30  0.001  0.000  0.008  0.009
   31  0.001  0.000  0.008  0.009
   32  0.001  0.000  0.008  0.009
   33  0.001  0.000  0.008  0.009
   34  0.001  0.000  0.008  0.009
   35  0.003  0.000  0.014  0.017
   36  0.001  0.000  0.003  0.004
   37  0.000  0.001  0.000  0.001
tot    0.054  0.010  0.776  0.840
 
band    13 # energy   -5.05282728 # occ.  2.00000000
 
ion      s      p      d    tot
    1  0.000  0.000  0.020  0.021
    2  0.000  0.000  0.009  0.010
    3  0.001  0.000  0.009  0.009
    4  0.000  0.000  0.009  0.010
    5  0.001  0.000  0.001  0.002
    6  0.000  0.000  0.008  0.009
    7  0.001  0.000  0.009  0.009
    8  0.000  0.000  0.008  0.009
    9  0.005  0.001  0.000  0.006
   10  0.004  0.000  0.065  0.069
   11  0.001  0.000  0.051  0.052
   12  0.004  0.000  0.067  0.071
   13  0.001  0.000  0.051  0.052
   14  0.001  0.000  0.047  0.048
   15  0.004  0.000  0.003  0.007
   16  0.004  0.000  0.067  0.071
   17  0.004  0.000  0.003  0.007
   18  0.004  0.000  0.003  0.008
   19  0.000  0.000  0.025  0.025
   20  0.000  0.000  0.041  0.041
   21  0.000  0.000  0.039  0.040
   22  0.002  0.000  0.024  0.027
   23  0.000  0.000  0.039  0.040
   24  0.002  0.000  0.023  0.025
   25  0.000  0.000  0.024  0.024
   26  0.000  0.000  0.025  0.025
   27  0.002  0.000  0.024  0.027
   28  0.008  0.000  0.006  0.014
   29  0.001  0.000  0.011  0.012
   30  0.001  0.000  0.011  0.012
   31  0.001  0.000  0.011  0.012
   32  0.001  0.000  0.010  0.011
   33  0.001  0.000  0.011  0.012
   34  0.001  0.000  0.010  0.011
   35  0.000  0.000  0.012  0.012
   36  0.000  0.000  0.004  0.004
   37  0.000  0.001  0.000  0.001
tot    0.058  0.008  0.780  0.845
 
band    14 # energy   -5.05211076 # occ.  2.00000000
 
ion      s      p      d    tot
    1  0.000  0.000  0.016  0.016
    2  0.002  0.000  0.005  0.007
    3  0.000  0.000  0.009  0.009
    4  0.002  0.000  0.005  0.007
    5  0.000  0.000  0.003  0.004
    6  0.001  0.000  0.008  0.009
    7  0.001  0.000  0.008  0.009
    8  0.001  0.000  0.008  0.009
    9  0.000  0.000  0.008  0.009
   10  0.000  0.000  0.033  0.034
   11  0.001  0.000  0.028  0.029
   12  0.003  0.000  0.039  0.042
   13  0.001  0.000  0.028  0.029
   14  0.000  0.000  0.028  0.028
   15  0.006  0.000  0.029  0.036
   16  0.003  0.000  0.039  0.041
   17  0.006  0.000  0.027  0.034
   18  0.000  0.000  0.088  0.088
   19  0.005  0.000  0.033  0.038
   20  0.000  0.000  0.057  0.057
   21  0.004  0.000  0.021  0.026
   22  0.000  0.000  0.037  0.037
   23  0.004  0.000  0.023  0.027
   24  0.000  0.000  0.009  0.009
   25  0.000  0.000  0.066  0.066
   26  0.005  0.000  0.031  0.037
   27  0.000  0.000  0.035  0.036
   28  0.000  0.000  0.014  0.015
   29  0.000  0.000  0.008  0.008
   30  0.002  0.000  0.006  0.009
   31  0.000  0.000  0.008  0.008
   32  0.002  0.000  0.005  0.007
   33  0.002  0.000  0.007  0.009
   34  0.002  0.000  0.005  0.007
   35  0.000  0.000  0.009  0.009
   36  0.000  0.001  0.004  0.004
   37  0.000  0.000  0.000  0.000
tot    0.053  0.007  0.786  0.846
 
band    15 # energy   -5.05209133 # occ.  2.00000000
 
ion      s      p      d    tot
    1  0.000  0.000  0.016  0.016
    2  0.000  0.000  0.009  0.009
    3  0.002  0.000  0.005  0.008
    4  0.000  0.000  0.009  0.009
    5  0.000  0.000  0.003  0.004
    6  0.002  0.000  0.006  0.008
    7  0.002  0.000  0.005  0.008
    8  0.002  0.000  0.007  0.009
    9  0.000  0.000  0.009  0.009
   10  0.003  0.000  0.042  0.045
   11  0.000  0.000  0.027  0.027
   12  0.001  0.000  0.034  0.035
   13  0.000  0.000  0.027  0.027
   14  0.001  0.000  0.031  0.031
   15  0.002  0.000  0.066  0.069
   16  0.001  0.000  0.034  0.036
   17  0.002  0.000  0.069  0.071
   18  0.008  0.000  0.008  0.017
   19  0.002  0.000  0.054  0.056
   20  0.005  0.000  0.010  0.015
   21  0.001  0.000  0.046  0.048
   22  0.000  0.000  0.017  0.017
   23  0.001  0.000  0.045  0.046
   24  0.000  0.000  0.046  0.046
   25  0.007  0.000  0.021  0.028
   26  0.002  0.000  0.055  0.057
   27  0.000  0.000  0.018  0.018
   28  0.000  0.000  0.014  0.015
   29  0.002  0.000  0.005  0.007
   30  0.000  0.000  0.006  0.007
   31  0.002  0.000  0.005  0.007
   32  0.001  0.000  0.009  0.010
   33  0.001  0.000  0.006  0.007
   34  0.001  0.000  0.009  0.010
   35  0.000  0.000  0.009  0.009
   36  0.000  0.001  0.004  0.004
   37  0.000  0.000  0.000  0.000
tot    0.053  0.007  0.786  0.846
 
band    16 # energy   -5.04717061 # occ.  2.00000000
 
ion      s      p      d    tot
    1  0.000  0.000  0.006  0.006
    2  0.003  0.001  0.005  0.009
    3  0.001  0.000  0.009  0.010
    4  0.003  0.001  0.005  0.009
    5  0.000  0.000  0.014  0.014
    6  0.001  0.001  0.009  0.010
    7  0.001  0.000  0.009  0.010
    8  0.001  0.001  0.009  0.010
    9  0.000  0.000  0.011  0.011
   10  0.010  0.000  0.007  0.017
   11  0.003  0.000  0.052  0.055
   12  0.002  0.000  0.063  0.065
   13  0.003  0.000  0.053  0.055
   14  0.011  0.000  0.023  0.034
   15  0.000  0.000  0.022  0.022
   16  0.003  0.000  0.062  0.064
   17  0.000  0.000  0.021  0.021
   18  0.000  0.000  0.045  0.045
   19  0.001  0.000  0.029  0.030
   20  0.001  0.000  0.038  0.039
   21  0.000  0.000  0.030  0.031
   22  0.002  0.000  0.050  0.052
   23  0.000  0.000  0.030  0.031
   24  0.007  0.000  0.009  0.017
   25  0.003  0.000  0.021  0.024
   26  0.001  0.000  0.029  0.030
   27  0.002  0.000  0.049  0.051
   28  0.000  0.000  0.004  0.004
   29  0.000  0.000  0.008  0.008
   30  0.002  0.000  0.004  0.006
   31  0.000  0.000  0.008  0.008
   32  0.002  0.001  0.006  0.008
   33  0.002  0.000  0.004  0.006
   34  0.002  0.001  0.006  0.008
   35  0.000  0.000  0.007  0.008
   36  0.000  0.000  0.009  0.009
   37  0.000  0.000  0.000  0.000
tot    0.064  0.008  0.768  0.840
 
band    17 # energy   -5.04715711 # occ.  2.00000000
 
ion      s      p      d    tot
    1  0.000  0.000  0.006  0.006
    2  0.000  0.000  0.010  0.010
    3  0.003  0.001  0.006  0.009
    4  0.000  0.000  0.010  0.010
    5  0.000  0.000  0.014  0.014
    6  0.002  0.000  0.006  0.009
    7  0.003  0.001  0.006  0.009
    8  0.002  0.000  0.006  0.009
    9  0.000  0.000  0.011  0.011
   10  0.000  0.000  0.080  0.080
   11  0.008  0.000  0.033  0.041
   12  0.007  0.000  0.025  0.032
   13  0.008  0.000  0.032  0.041
   14  0.000  0.000  0.063  0.063
   15  0.000  0.000  0.037  0.037
   16  0.007  0.000  0.026  0.034
   17  0.000  0.000  0.038  0.038
   18  0.000  0.000  0.013  0.014
   19  0.002  0.000  0.024  0.026
   20  0.000  0.000  0.028  0.028
   21  0.001  0.000  0.036  0.037
   22  0.006  0.000  0.022  0.028
   23  0.001  0.000  0.036  0.036
   24  0.000  0.000  0.064  0.064
   25  0.000  0.000  0.033  0.033
   26  0.002  0.000  0.024  0.026
   27  0.006  0.000  0.023  0.029
   28  0.000  0.000  0.004  0.004
   29  0.003  0.000  0.004  0.007
   30  0.000  0.000  0.008  0.009
   31  0.003  0.000  0.004  0.007
   32  0.001  0.000  0.006  0.007
   33  0.001  0.000  0.008  0.009
   34  0.001  0.000  0.006  0.007
   35  0.000  0.000  0.007  0.008
   36  0.000  0.000  0.009  0.009
   37  0.000  0.000  0.000  0.000
tot    0.064  0.008  0.768  0.840
 
band    18 # energy   -4.91180078 # occ.  2.00000000
 
ion      s      p      d    tot
    1  0.000  0.000  0.001  0.002
    2  0.000  0.000  0.008  0.009
    3  0.000  0.000  0.008  0.009
    4  0.000  0.000  0.008  0.009
    5  0.000  0.000  0.007  0.007
    6  0.000  0.000  0.008  0.009
    7  0.000  0.000  0.008  0.009
    8  0.000  0.000  0.008  0.009
    9  0.000  0.000  0.010  0.010
   10  0.000  0.000  0.009  0.010
   11  0.001  0.000  0.042  0.043
   12  0.000  0.000  0.009  0.010
   13  0.001  0.000  0.042  0.043
   14  0.001  0.000  0.042  0.042
   15  0.003  0.001  0.050  0.054
   16  0.000  0.000  0.009  0.010
   17  0.003  0.001  0.050  0.054
   18  0.003  0.001  0.050  0.054
   19  0.001  0.000  0.024  0.025
   20  0.001  0.001  0.043  0.045
   21  0.001  0.001  0.043  0.045
   22  0.003  0.001  0.042  0.046
   23  0.001  0.001  0.043  0.045
   24  0.003  0.001  0.042  0.046
   25  0.001  0.000  0.024  0.025
   26  0.001  0.000  0.024  0.025
   27  0.003  0.001  0.042  0.046
   28  0.006  0.000  0.006  0.012
   29  0.000  0.001  0.013  0.013
   30  0.000  0.001  0.013  0.014
   31  0.000  0.001  0.013  0.013
   32  0.000  0.001  0.013  0.013
   33  0.000  0.001  0.013  0.014
   34  0.000  0.001  0.013  0.013
   35  0.000  0.000  0.003  0.003
   36  0.005  0.001  0.012  0.018
   37  0.001  0.007  0.000  0.008
tot    0.041  0.022  0.796  0.859
 
band    19 # energy   -4.89556388 # occ.  2.00000000
 
ion      s      p      d    tot
    1  0.000  0.000  0.005  0.006
    2  0.000  0.000  0.009  0.010
    3  0.001  0.000  0.006  0.007
    4  0.001  0.000  0.009  0.010
    5  0.000  0.000  0.005  0.006
    6  0.002  0.001  0.005  0.008
    7  0.001  0.000  0.006  0.007
    8  0.002  0.001  0.005  0.008
    9  0.000  0.001  0.017  0.018
   10  0.001  0.001  0.033  0.035
   11  0.000  0.000  0.046  0.046
   12  0.000  0.000  0.009  0.009
   13  0.000  0.000  0.046  0.046
   14  0.001  0.000  0.026  0.027
   15  0.001  0.000  0.060  0.061
   16  0.000  0.000  0.009  0.009
   17  0.001  0.000  0.060  0.060
   18  0.003  0.000  0.043  0.046
   19  0.000  0.000  0.014  0.014
   20  0.002  0.000  0.052  0.054
   21  0.001  0.000  0.043  0.043
   22  0.000  0.000  0.070  0.070
   23  0.001  0.000  0.042  0.043
   24  0.001  0.000  0.030  0.032
   25  0.000  0.001  0.026  0.027
   26  0.000  0.000  0.014  0.014
   27  0.000  0.000  0.070  0.071
   28  0.000  0.000  0.000  0.000
   29  0.000  0.000  0.009  0.009
   30  0.001  0.001  0.008  0.010
   31  0.000  0.000  0.009  0.009
   32  0.001  0.001  0.005  0.007
   33  0.001  0.001  0.008  0.010
   34  0.001  0.001  0.005  0.007
   35  0.000  0.001  0.010  0.010
   36  0.000  0.001  0.017  0.018
   37  0.000  0.002  0.000  0.002
tot    0.022  0.016  0.829  0.867
 
band    20 # energy   -4.89552641 # occ.  2.00000000
 
ion      s      p      d    tot
    1  0.000  0.000  0.005  0.006
    2  0.002  0.001  0.005  0.007
    3  0.002  0.001  0.007  0.010
    4  0.002  0.000  0.005  0.007
    5  0.000  0.000  0.005  0.006
    6  0.000  0.000  0.008  0.009
    7  0.002  0.001  0.007  0.010
    8  0.000  0.000  0.008  0.009
    9  0.000  0.001  0.017  0.018
   10  0.000  0.000  0.001  0.001
   11  0.000  0.000  0.032  0.033
   12  0.001  0.001  0.025  0.026
   13  0.000  0.000  0.033  0.033
   14  0.000  0.000  0.053  0.053
   15  0.002  0.000  0.048  0.051
   16  0.001  0.001  0.025  0.026
   17  0.002  0.000  0.049  0.051
   18  0.000  0.000  0.065  0.066
   19  0.000  0.001  0.022  0.022
   20  0.000  0.000  0.039  0.039
   21  0.002  0.000  0.049  0.051
   22  0.001  0.000  0.044  0.045
   23  0.002  0.000  0.049  0.051
   24  0.000  0.000  0.083  0.084
   25  0.000  0.000  0.010  0.010
   26  0.000  0.001  0.021  0.022
   27  0.001  0.000  0.043  0.044
   28  0.000  0.000  0.000  0.001
   29  0.002  0.001  0.006  0.009
   30  0.000  0.000  0.006  0.007
   31  0.002  0.001  0.006  0.009
   32  0.000  0.000  0.010  0.010
   33  0.000  0.000  0.006  0.007
   34  0.000  0.000  0.010  0.010
   35  0.000  0.001  0.010  0.010
   36  0.000  0.001  0.017  0.018
   37  0.000  0.002  0.000  0.002
tot    0.023  0.016  0.829  0.867
 
band    21 # energy   -4.88472386 # occ.  2.00000000
 
ion      s      p      d    tot
    1  0.000  0.000  0.005  0.005
    2  0.000  0.000  0.011  0.011
    3  0.000  0.000  0.011  0.011
    4  0.000  0.000  0.011  0.011
    5  0.003  0.001  0.003  0.007
    6  0.000  0.000  0.011  0.011
    7  0.000  0.000  0.011  0.011
    8  0.000  0.000  0.011  0.011
    9  0.004  0.001  0.000  0.004
   10  0.002  0.000  0.039  0.042
   11  0.000  0.001  0.048  0.049
   12  0.002  0.000  0.039  0.041
   13  0.000  0.001  0.048  0.049
   14  0.000  0.001  0.048  0.049
   15  0.001  0.000  0.012  0.014
   16  0.002  0.000  0.039  0.041
   17  0.001  0.000  0.012  0.014
   18  0.001  0.000  0.012  0.014
   19  0.001  0.001  0.055  0.056
   20  0.002  0.000  0.027  0.029
   21  0.002  0.000  0.027  0.029
   22  0.000  0.001  0.029  0.030
   23  0.002  0.000  0.027  0.029
   24  0.000  0.001  0.029  0.030
   25  0.001  0.001  0.054  0.056
   26  0.001  0.001  0.055  0.056
   27  0.000  0.001  0.029  0.030
   28  0.000  0.000  0.014  0.014
   29  0.000  0.001  0.012  0.013
   30  0.000  0.001  0.012  0.013
   31  0.000  0.001  0.012  0.013
   32  0.000  0.001  0.012  0.013
   33  0.000  0.001  0.012  0.013
   34  0.000  0.001  0.012  0.013
   35  0.008  0.001  0.000  0.009
   36  0.001  0.000  0.007  0.008