 vasp.6.2.0 18Jan21 (build Jun 12 2021 23:27:24) complex                        
  
 executed on             LinuxIFC date 2022.05.26  19:35:40
 running on   28 total cores
 distrk:  each k-point on   28 cores,    1 groups
 distr:  one band on NCORE=   1 cores,   28 groups


--------------------------------------------------------------------------------------------------------


 INCAR:
   ISMEAR = -5
   SIGMA = 0.1
   ISPIN = 1
   EDIFF = 1.d-5
   EDIFFG = -0.01
   NSW = 0
   NELM = 150
   ENCUT = 500
   ISIF = 2
   IBRION = 2
   LREAL = Auto
   ALGO = Fast
   ICHARG = 11
   LORBIT = 10
   LCHARG = .F.
   LWAVE = .F.

 POTCAR:    PAW_PBE Au 04Oct2007                  
 POTCAR:    PAW_PBE Ir 06Sep2000                  
 POTCAR:    PAW_PBE O 08Apr2002                   
 -----------------------------------------------------------------------------
|                                                                             |
|           W    W    AA    RRRRR   N    N  II  N    N   GGGG   !!!           |
|           W    W   A  A   R    R  NN   N  II  NN   N  G    G  !!!           |
|           W    W  A    A  R    R  N N  N  II  N N  N  G       !!!           |
|           W WW W  AAAAAA  RRRRR   N  N N  II  N  N N  G  GGG   !            |
|           WW  WW  A    A  R   R   N   NN  II  N   NN  G    G                |
|           W    W  A    A  R    R  N    N  II  N    N   GGGG   !!!           |
|                                                                             |
|     For optimal performance we recommend to set                             |
|       NCORE = 2 up to number-of-cores-per-socket                            |
|     NCORE specifies how many cores store one orbital (NPAR=cpu/NCORE).      |
|     This setting can greatly improve the performance of VASP for DFT.       |
|     The default, NCORE=1 might be grossly inefficient on modern             |
|     multi-core architectures or massively parallel machines. Do your        |
|     own testing! More info at https://www.vasp.at/wiki/index.php/NCORE      |
|     Unfortunately you need to use the default for GW and RPA                |
|     calculations (for HF NCORE is supported but not extensively tested      |
|     yet).                                                                   |
|                                                                             |
 -----------------------------------------------------------------------------

 POTCAR:    PAW_PBE Au 04Oct2007                  
   VRHFIN =Au: s1d10                                                                                
   LEXCH  = PE                                                                                      
   EATOM  =   926.0867 eV,   68.0654 Ry                                                             
                                                                                                    
   TITEL  = PAW_PBE Au 04Oct2007                                                                    
   LULTRA =        F    use ultrasoft PP ?                                                          
   IUNSCR =        1    unscreen: 0-lin 1-nonlin 2-no                                               
   RPACOR =    2.330    partial core radius                                                         
   POMASS =  196.966; ZVAL   =   11.000    mass and valenz                                          
   RCORE  =    2.500    outmost cutoff radius                                                       
   RWIGS  =    2.840; RWIGS  =    1.503    wigner-seitz radius (au A)                               
   ENMAX  =  229.943; ENMIN  =  172.457 eV                                                          
   ICORE  =        3    local potential                                                             
   LCOR   =        T    correct aug charges                                                         
   LPAW   =        T    paw PP                                                                      
   EAUG   =  356.670                                                                                
   DEXC   =    0.000                                                                                
   RMAX   =    2.562    core radius for proj-oper                                                   
   RAUG   =    1.300    factor for augmentation sphere                                              
   RDEP   =    2.598    radius for radial grids                                                     
   RDEPT  =    2.193    core radius for aug-charge                                                  
                                                                                                    
   Atomic configuration                                                                             
   16 entries                                                                                       
     n  l   j            E        occ.                                                              
     1  0  0.50    -80748.5001   2.0000                                                             
     2  0  0.50    -14244.7466   2.0000                                                             
     2  1  1.50    -12310.9591   6.0000                                                             
     3  0  0.50     -3362.1768   2.0000                                                             
     3  1  1.50     -2801.5463   6.0000                                                             
     3  2  2.50     -2203.8206  10.0000                                                             
     4  0  0.50      -729.8168   2.0000                                                             
     4  1  1.50      -546.0527   6.0000                                                             
     4  2  2.50      -325.7302  10.0000                                                             
     4  3  3.50       -81.1472  14.0000                                                             
     5  0  0.50      -108.3201   2.0000                                                             
     5  1  1.50       -59.7479   6.0000                                                             
     5  2  2.50        -6.8783  10.0000                                                             
     6  0  0.50        -5.7602   1.0000                                                             
     6  1  1.50        -6.8029   0.0000                                                             
     5  3  2.50        -1.3606   0.0000                                                             
   Description                                                                                      
     l       E           TYP  RCUT    TYP  RCUT                                                     
     2     -6.8782861     23  2.500                                                                 
     2     -8.2388687     23  2.500                                                                 
     0     -5.7601759     23  2.500                                                                 
     0     -0.8493231     23  2.500                                                                 
     1     -2.7211652     23  2.500                                                                 
     1     27.2116520     23  2.500                                                                 
     3     -1.3605826     23  2.500                                                                 
  local pseudopotential read in
  partial core-charges read in
  partial kinetic energy density read in
  atomic valenz-charges read in
  non local Contribution for L=           2  read in
    real space projection operators read in
  non local Contribution for L=           2  read in
    real space projection operators read in
  non local Contribution for L=           0  read in
    real space projection operators read in
  non local Contribution for L=           0  read in
    real space projection operators read in
  non local Contribution for L=           1  read in
    real space projection operators read in
  non local Contribution for L=           1  read in
    real space projection operators read in
    PAW grid and wavefunctions read in
 
   number of l-projection  operators is LMAX  =           6
   number of lm-projection operators is LMMAX =          18
 
 POTCAR:    PAW_PBE Ir 06Sep2000                  
   VRHFIN =Ir: s1d8                                                                                 
   LEXCH  = PE                                                                                      
   EATOM  =   560.1833 eV,   41.1723 Ry                                                             
                                                                                                    
   TITEL  = PAW_PBE Ir 06Sep2000                                                                    
   LULTRA =        F    use ultrasoft PP ?                                                          
   IUNSCR =        1    unscreen: 0-lin 1-nonlin 2-no                                               
   RPACOR =    2.250    partial core radius                                                         
   POMASS =  192.220; ZVAL   =    9.000    mass and valenz                                          
   RCORE  =    2.600    outmost cutoff radius                                                       
   RWIGS  =    2.690; RWIGS  =    1.423    wigner-seitz radius (au A)                               
   ENMAX  =  210.864; ENMIN  =  158.148 eV                                                          
   RCLOC  =    1.857    cutoff for local pot                                                        
   LCOR   =        T    correct aug charges                                                         
   LPAW   =        T    paw PP                                                                      
   EAUG   =  318.962                                                                                
   DEXC   =    0.000                                                                                
   RMAX   =    2.667    core radius for proj-oper                                                   
   RAUG   =    1.300    factor for augmentation sphere                                              
   RDEP   =    2.748    radius for radial grids                                                     
   RDEPT  =    2.300    core radius for aug-charge                                                  
                                                                                                    
   Atomic configuration                                                                             
   16 entries                                                                                       
     n  l   j            E        occ.                                                              
     1  0  0.50    -76100.0449   2.0000                                                             
     2  0  0.50    -13308.1683   2.0000                                                             
     2  1  1.50    -11558.0021   6.0000                                                             
     3  0  0.50     -3110.7274   2.0000                                                             
     3  1  1.50     -2599.2109   6.0000                                                             
     3  2  2.50     -2037.1515  10.0000                                                             
     4  0  0.50      -661.6001   2.0000                                                             
     4  1  1.50      -493.8981   6.0000                                                             
     4  2  2.50      -288.1909  10.0000                                                             
     4  3  3.50       -59.5718  14.0000                                                             
     5  0  0.50       -95.3879   2.0000                                                             
     5  1  1.50       -52.2747   6.0000                                                             
     5  2  2.50        -5.4180   8.0000                                                             
     6  0  0.50        -5.5479   1.0000                                                             
     6  1  1.50        -6.8029   0.0000                                                             
     5  3  2.50        -1.3606   0.0000                                                             
   Description                                                                                      
     l       E           TYP  RCUT    TYP  RCUT                                                     
     2     -5.4179967     23  2.600                                                                 
     2     -6.7785793     23  2.600                                                                 
     0     -5.5478636     23  2.600                                                                 
     0      2.2542272     23  2.600                                                                 
     1     -2.7211652     23  2.600                                                                 
     1     20.4087390     23  2.600                                                                 
  local pseudopotential read in
  partial core-charges read in
  partial kinetic energy density read in
  atomic valenz-charges read in
  non local Contribution for L=           2  read in
    real space projection operators read in
  non local Contribution for L=           2  read in
    real space projection operators read in
  non local Contribution for L=           0  read in
    real space projection operators read in
  non local Contribution for L=           0  read in
    real space projection operators read in
  non local Contribution for L=           1  read in
    real space projection operators read in
  non local Contribution for L=           1  read in
    real space projection operators read in
    PAW grid and wavefunctions read in
 
   number of l-projection  operators is LMAX  =           6
   number of lm-projection operators is LMMAX =          18
 
 POTCAR:    PAW_PBE O 08Apr2002                   
   VRHFIN =O: s2p4                                                                                  
   LEXCH  = PE                                                                                      
   EATOM  =   432.3788 eV,   31.7789 Ry                                                             
                                                                                                    
   TITEL  = PAW_PBE O 08Apr2002                                                                     
   LULTRA =        F    use ultrasoft PP ?                                                          
   IUNSCR =        1    unscreen: 0-lin 1-nonlin 2-no                                               
   RPACOR =    1.200    partial core radius                                                         
   POMASS =   16.000; ZVAL   =    6.000    mass and valenz                                          
   RCORE  =    1.520    outmost cutoff radius                                                       
   RWIGS  =    1.550; RWIGS  =    0.820    wigner-seitz radius (au A)                               
   ENMAX  =  400.000; ENMIN  =  300.000 eV                                                          
   ICORE  =        2    local potential                                                             
   LCOR   =        T    correct aug charges                                                         
   LPAW   =        T    paw PP                                                                      
   EAUG   =  605.392                                                                                
   DEXC   =    0.000                                                                                
   RMAX   =    1.553    core radius for proj-oper                                                   
   RAUG   =    1.300    factor for augmentation sphere                                              
   RDEP   =    1.550    radius for radial grids                                                     
   RDEPT  =    1.329    core radius for aug-charge                                                  
                                                                                                    
   Atomic configuration                                                                             
    4 entries                                                                                       
     n  l   j            E        occ.                                                              
     1  0  0.50      -514.6923   2.0000                                                             
     2  0  0.50       -23.9615   2.0000                                                             
     2  1  0.50        -9.0305   4.0000                                                             
     3  2  1.50        -9.5241   0.0000                                                             
   Description                                                                                      
     l       E           TYP  RCUT    TYP  RCUT                                                     
     0    -23.9615318     23  1.200                                                                 
     0     -9.5240782     23  1.200                                                                 
     1     -9.0304911     23  1.520                                                                 
     1      8.1634956     23  1.520                                                                 
     2     -9.5240782      7  1.500                                                                 
  local pseudopotential read in
  partial core-charges read in
  partial kinetic energy density read in
  kinetic energy density of atom read in
  atomic valenz-charges read in
  non local Contribution for L=           0  read in
    real space projection operators read in
  non local Contribution for L=           0  read in
    real space projection operators read in
  non local Contribution for L=           1  read in
    real space projection operators read in
  non local Contribution for L=           1  read in
    real space projection operators read in
    PAW grid and wavefunctions read in
 
   number of l-projection  operators is LMAX  =           4
   number of lm-projection operators is LMMAX =           8
 
 Optimization of the real space projectors (new method)

 maximal supplied QI-value         = 15.12
 optimisation between [QCUT,QGAM] = [ 11.34, 22.83] = [ 36.00,145.93] Ry 
 Optimized for a Real-space Cutoff    1.39 Angstroem

   l    n(q)    QCUT    max X(q) W(low)/X(q) W(high)/X(q)  e(spline) 
   2      9    11.338    60.898    0.39E-03    0.42E-03    0.21E-06
   2      9    11.338    58.894    0.40E-03    0.42E-03    0.22E-06
   0      9    11.338   109.617    0.13E-03    0.20E-04    0.13E-06
   0      9    11.338    75.026    0.13E-03    0.20E-04    0.13E-06
   1      9    11.338    16.344    0.33E-04    0.24E-03    0.18E-06
   1      9    11.338    10.160    0.26E-04    0.19E-03    0.15E-06
 Optimization of the real space projectors (new method)

 maximal supplied QI-value         = 14.36
 optimisation between [QCUT,QGAM] = [ 11.35, 22.84] = [ 36.05,146.02] Ry 
 Optimized for a Real-space Cutoff    1.52 Angstroem

   l    n(q)    QCUT    max X(q) W(low)/X(q) W(high)/X(q)  e(spline) 
   2      9    11.346   134.116    0.47E-03    0.13E-03    0.92E-06
   2      9    11.346   130.192    0.47E-03    0.13E-03    0.92E-06
   0     10    11.346    60.310    0.74E-04    0.13E-03    0.69E-06
   0     10    11.346    39.218    0.68E-04    0.12E-03    0.65E-06
   1     10    11.346    18.439    0.15E-03    0.34E-04    0.20E-06
   1     10    11.346    12.760    0.12E-03    0.31E-04    0.16E-06
 Optimization of the real space projectors (new method)

 maximal supplied QI-value         = 24.76
 optimisation between [QCUT,QGAM] = [ 11.39, 22.77] = [ 36.31,145.25] Ry 
 Optimized for a Real-space Cutoff    1.00 Angstroem

   l    n(q)    QCUT    max X(q) W(low)/X(q) W(high)/X(q)  e(spline) 
   0      7    11.387    20.381    0.39E-03    0.13E-02    0.15E-06
   0      7    11.387    15.268    0.42E-03    0.14E-02    0.17E-06
   1      6    11.387     5.964    0.41E-03    0.11E-02    0.17E-06
   1      6    11.387     5.382    0.39E-03    0.87E-03    0.15E-06
  PAW_PBE Au 04Oct2007                  :
 energy of atom  1       EATOM= -926.0867
 kinetic energy error for atom=    0.0042 (will be added to EATOM!!)
  PAW_PBE Ir 06Sep2000                  :
 energy of atom  2       EATOM= -560.1833
 kinetic energy error for atom=    0.0018 (will be added to EATOM!!)
  PAW_PBE O 08Apr2002                   :
 energy of atom  3       EATOM= -432.3788
 kinetic energy error for atom=    0.0224 (will be added to EATOM!!)
 
 
 POSCAR: Au-Ir-O
  positions in direct lattice
  velocities in cartesian coordinates
 exchange correlation table for  LEXCH =        8
   RHO(1)=    0.500       N(1)  =     2000
   RHO(2)=  100.500       N(2)  =     4000

 VTST: version 3.2, (02/03/18)

 CHAIN: initializing optimizer
 
 OPT: Using VASP Conjugate-Gradient optimizer
 CHAIN: Read ICHAIN            0
 
 POSCAR: Au-Ir-O
  positions in direct lattice
  velocities in cartesian coordinates
 


--------------------------------------------------------------------------------------------------------


 ion  position               nearest neighbor table
   1  0.000  0.000  0.238-  16 2.94  12 2.94   6 2.94   8 2.94   7 2.94   3 2.94  10 2.94   4 2.94
                             2 2.94
   2  0.333  0.000  0.238-   9 2.94  11 2.94  17 2.94  10 2.94   8 2.94   4 2.94   5 2.94   1 2.94
                             3 2.94
   3  0.667  0.000  0.238-   7 2.94  18 2.94  12 2.94   1 2.94  11 2.94   5 2.94   6 2.94   9 2.94
                             2 2.94
   4  0.000  0.333  0.238-  10 2.94   6 2.94   5 2.94  13 2.94   2 2.94  15 2.94   9 2.94   1 2.94
                             7 2.94
   5  0.333  0.333  0.238-  13 2.94   7 2.94  11 2.94   4 2.94   2 2.94  14 2.94   3 2.94   8 2.94
                             6 2.94
   6  0.667  0.333  0.238-  15 2.94  14 2.94   1 2.94  12 2.94   4 2.94   9 2.94   8 2.94   3 2.94
                             5 2.94
   7  0.000  0.667  0.238-  18 2.94   3 2.94  16 2.94   5 2.94   1 2.94  13 2.94   8 2.94   4 2.94
                             9 2.94
   8  0.333  0.667  0.238-   9 2.94  17 2.94   1 2.94   2 2.94  14 2.94  16 2.94   6 2.94   7 2.94
                             5 2.94
   9  0.667  0.667  0.238-   2 2.94   8 2.94  17 2.94   6 2.94  15 2.94   4 2.94   3 2.94  18 2.94
                             7 2.94
  10  0.111  0.111  0.346-  20 2.90  11 2.94  17 2.94   2 2.94   4 2.94   1 2.94  12 2.94  16 2.94
                            13 2.94  15 2.94  26 2.94  19 2.94
  11  0.444  0.111  0.346-  20 2.91  21 2.91  27 2.93  13 2.94   2 2.94  10 2.94  17 2.94   5 2.94
                             3 2.94  18 2.94  14 2.94  12 2.94
  12  0.778  0.111  0.346-  21 2.90  16 2.94  18 2.94   1 2.94  14 2.94  15 2.94   3 2.94   6 2.94
                            10 2.94  11 2.94  25 2.94  19 2.94
  13  0.111  0.444  0.346-  23 2.91  20 2.91  22 2.93   5 2.94  18 2.94  11 2.94   7 2.94   4 2.94
                            16 2.94  10 2.94  14 2.94  15 2.94
  14  0.444  0.444  0.346-  21 2.91  23 2.91  24 2.93  15 2.94   6 2.94  12 2.94   8 2.94  17 2.94
                             5 2.94  16 2.94  13 2.94  11 2.94
  15  0.778  0.444  0.346-  24 2.92  22 2.92  14 2.94   6 2.94  17 2.94  12 2.94   9 2.94   4 2.94
                            10 2.94  13 2.94  18 2.94  19 2.94
  16  0.111  0.778  0.346-  23 2.90  18 2.94  12 2.94   7 2.94   1 2.94   8 2.94  13 2.94  10 2.94
                            14 2.94  17 2.94  25 2.94  26 2.94
  17  0.444  0.778  0.346-  27 2.92  24 2.92   9 2.94  15 2.94   2 2.94  10 2.94  11 2.94   8 2.94
                            14 2.94  16 2.94  18 2.94  26 2.94
  18  0.778  0.778  0.346-  22 2.92  27 2.92  16 2.94   7 2.94  13 2.94  12 2.94   3 2.94  11 2.94
                             9 2.94  15 2.94  17 2.94  25 2.94
  19  0.889  0.223  0.454-  21 2.93  20 2.93  24 2.93  22 2.93  15 2.94  10 2.94  12 2.94  26 2.95
                            25 2.95  28 2.95  32 2.96  31 2.96
  20  0.222  0.222  0.452-  36 2.78  10 2.90  11 2.91  13 2.91  26 2.93  19 2.93  29 2.95  31 2.95
                            27 2.95  22 2.95  23 2.95  21 2.95
  21  0.557  0.222  0.452-  36 2.78  12 2.90  14 2.91  11 2.91  25 2.93  19 2.93  30 2.95  32 2.95
                            24 2.95  27 2.95  20 2.95  23 2.95
  22  0.887  0.557  0.453-  24 2.91  27 2.91  18 2.92  15 2.92  13 2.93  25 2.93  19 2.93  23 2.95
                            20 2.95  35 2.95  33 2.96  31 2.96
  23  0.222  0.557  0.452-  36 2.78  16 2.90  13 2.91  14 2.91  25 2.93  26 2.93  33 2.95  34 2.95
                            22 2.95  24 2.95  20 2.95  21 2.95
  24  0.557  0.557  0.453-  27 2.91  22 2.91  15 2.92  17 2.92  14 2.93  26 2.93  19 2.93  21 2.95
                            23 2.95  35 2.95  32 2.96  34 2.96
  25  0.889  0.889  0.454-  23 2.93  21 2.93  22 2.93  27 2.93  18 2.94  16 2.94  12 2.94  19 2.95
                            26 2.95  28 2.95  33 2.96  30 2.96
  26  0.223  0.889  0.454-  20 2.93  23 2.93  27 2.93  24 2.93  17 2.94  10 2.94  16 2.94  19 2.95
                            25 2.95  28 2.95  29 2.96  34 2.96
  27  0.557  0.887  0.453-  24 2.91  22 2.91  17 2.92  18 2.92  11 2.93  26 2.93  25 2.93  20 2.95
                            21 2.95  35 2.95  29 2.96  30 2.96
  28  0.000  0.000  0.563-  25 2.95  19 2.95  26 2.95  34 2.96  32 2.96  33 2.96  30 2.96  31 2.96
                            29 2.96
  29  0.333  0.005  0.562-  31 2.89  30 2.89  36 2.90  20 2.95  28 2.96  35 2.96  27 2.96  26 2.96
                            34 3.03
  30  0.661  0.005  0.562-  32 2.89  29 2.89  36 2.90  21 2.95  28 2.96  35 2.96  27 2.96  25 2.96
                            33 3.03
  31  0.005  0.333  0.562-  29 2.89  33 2.89  36 2.90  20 2.95  28 2.96  35 2.96  22 2.96  19 2.96
                            32 3.03
  32  0.661  0.333  0.562-  30 2.89  34 2.89  36 2.90  21 2.95  28 2.96  35 2.96  24 2.96  19 2.96
                            31 3.03
  33  0.005  0.661  0.562-  34 2.89  31 2.89  36 2.90  23 2.95  28 2.96  35 2.96  22 2.96  25 2.96
                            30 3.03
  34  0.333  0.661  0.562-  33 2.89  32 2.89  36 2.90  23 2.95  28 2.96  35 2.96  24 2.96  26 2.96
                            29 3.03
  35  0.667  0.667  0.563-  24 2.95  27 2.95  22 2.95  29 2.96  34 2.96  32 2.96  31 2.96  30 2.96
                            33 2.96
  36  0.333  0.333  0.551-  37 1.78  20 2.78  23 2.78  21 2.78  33 2.90  31 2.90  29 2.90  30 2.90
                            34 2.90  32 2.90
  37  0.333  0.333  0.632-  36 1.78
 
  LATTYP: Found a hexagonal cell.
 ALAT       =     8.8135128021
 C/A-ratio  =     2.5184286595
  
  Lattice vectors:
  
 A1 = (  -4.4067569092,  -7.6327256898,   0.0000000000)
 A2 = (   8.8135128021,   0.0000000000,   0.0000000000)
 A3 = (   0.0000000000,   0.0000000000,  22.1962032318)


Analysis of symmetry for initial positions (statically):
=====================================================================
 Subroutine PRICEL returns:
 Original cell was already a primitive cell.
 

 Routine SETGRP: Setting up the symmetry group for a 
 hexagonal supercell.


 Subroutine GETGRP returns: Found  6 space group operations
 (whereof  6 operations were pure point group operations)
 out of a pool of 24 trial point group operations.


The static configuration has the point symmetry C_3v.


Analysis of symmetry for dynamics (positions and initial velocities):
=====================================================================
 Subroutine PRICEL returns:
 Original cell was already a primitive cell.
 

 Routine SETGRP: Setting up the symmetry group for a 
 hexagonal supercell.


 Subroutine GETGRP returns: Found  6 space group operations
 (whereof  6 operations were pure point group operations)
 out of a pool of 24 trial point group operations.


The dynamic configuration has the point symmetry C_3v.


Analysis of constrained symmetry for selective dynamics:
=====================================================================
 Subroutine PRICEL returns:
 Original cell was already a primitive cell.
 

 Routine SETGRP: Setting up the symmetry group for a 
 hexagonal supercell.


 Subroutine GETGRP returns: Found  6 space group operations
 (whereof  6 operations were pure point group operations)
 out of a pool of 24 trial point group operations.


The constrained configuration has the point symmetry C_3v.


 Subroutine INISYM returns: Found  6 space group operations
 (whereof  6 operations are pure point group operations),
 and found     1 'primitive' translations


----------------------------------------------------------------------------------------

                                     Primitive cell                                     

  volume of cell :    1493.1636

  direct lattice vectors                    reciprocal lattice vectors
     8.813512802  0.000000000  0.000000000     0.113462137 -0.065507406  0.000000000
     4.406756909  7.632725690  0.000000000     0.000000000  0.131014796  0.000000000
     0.000000000  0.000000000 22.196203232     0.000000000  0.000000000  0.045052750

  length of vectors
     8.813512802  8.813512802 22.196203232     0.131014796  0.131014796  0.045052750

  position of ions in fractional coordinates (direct lattice)
     0.000000000  0.000000000  0.237895638
     0.333333343  0.000000000  0.237895638
     0.666666687  0.000000000  0.237895638
     1.000000000  0.333333343  0.237895638
     0.333333313  0.333333343  0.237895638
     0.666666687  0.333333343  0.237895638
     1.000000000  0.666666687  0.237895638
     0.333333343  0.666666687  0.237895638
     0.666666627  0.666666687  0.237895638
     0.111111119  0.111111112  0.345965207
     0.444444418  0.111111112  0.345965207
     0.777777791  0.111111112  0.345965207
     0.111111127  0.444444448  0.345965207
     0.444444478  0.444444448  0.345965207
     0.777777731  0.444444448  0.345965207
     0.111111090  0.777777791  0.345965207
     0.444444448  0.777777791  0.345965207
     0.777777851  0.777777791  0.345965207
     0.888612642  0.222774731  0.454189609
     0.221664881  0.221664866  0.452247465
     0.556670299  0.221664866  0.452247465
     0.886693588  0.556653236  0.453286612
     0.221664836  0.556670299  0.452247465
     0.556653236  0.556653236  0.453286612
     0.888612642  0.888612642  0.454189609
     0.222774761  0.888612642  0.454189609
     0.556653176  0.886693588  0.453286612
     0.000000000  0.000000000  0.562987663
     0.333314187  0.005253655  0.562397179
     0.661432188  0.005253655  0.562397179
     0.005253655  0.333314187  0.562397179
     0.661432188  0.333314187  0.562397179
     0.005253655  0.661432188  0.562397179
     0.333314187  0.661432188  0.562397179
     0.666666627  0.666666687  0.562786091
     0.333333313  0.333333343  0.551286840
     0.333333313  0.333333343  0.631691623

  ion indices of the primitive-cell ions
   primitive index   ion index
                 1           1
                 2           2
                 3           3
                 4           4
                 5           5
                 6           6
                 7           7
                 8           8
                 9           9
                10          10
                11          11
                12          12
                13          13
                14          14
                15          15
                16          16
                17          17
                18          18
                19          19
                20          20
                21          21
                22          22
                23          23
                24          24
                25          25
                26          26
                27          27
                28          28
                29          29
                30          30
                31          31
                32          32
                33          33
                34          34
                35          35
                36          36
                37          37

----------------------------------------------------------------------------------------

 
 
 KPOINTS: Automatic mesh                          

Automatic generation of k-mesh.
 Grid dimensions read from file:
 generate k-points for:    8    8    1

 Generating k-lattice:

  Cartesian coordinates                     Fractional coordinates (reciprocal lattice)
     0.014182767 -0.008188426  0.000000000     0.125000000 -0.000000000  0.000000000
     0.000000000  0.016376850  0.000000000     0.000000000  0.125000000  0.000000000
     0.000000000  0.000000000  0.045052750     0.000000000  0.000000000  1.000000000

  Length of vectors
     0.016376850  0.016376850  0.045052750

  Shift w.r.t. Gamma in fractional coordinates (k-lattice)
     0.000000000  0.000000000  0.000000000

 TETIRR: Found     36 inequivalent tetrahedra from      384
 
 Subroutine IBZKPT returns following result:
 ===========================================
 
 Found     10 irreducible k-points:
 
 Following reciprocal coordinates:
            Coordinates               Weight
  0.000000  0.000000  0.000000      1.000000
  0.125000 -0.000000  0.000000      6.000000
  0.250000 -0.000000  0.000000      6.000000
  0.375000  0.000000  0.000000      6.000000
  0.500000 -0.000000  0.000000      3.000000
  0.250000  0.125000  0.000000      6.000000
  0.375000  0.125000  0.000000     12.000000
  0.500000  0.125000  0.000000     12.000000
  0.500000  0.250000  0.000000      6.000000
 -0.375000  0.250000  0.000000      6.000000
 
 Following cartesian coordinates:
            Coordinates               Weight
  0.000000  0.000000  0.000000      1.000000
  0.014183 -0.008188  0.000000      6.000000
  0.028366 -0.016377  0.000000      6.000000
  0.042548 -0.024565  0.000000      6.000000
  0.056731 -0.032754  0.000000      3.000000
  0.028366 -0.000000  0.000000      6.000000
  0.042548 -0.008188  0.000000     12.000000
  0.056731 -0.016377  0.000000     12.000000
  0.056731 -0.000000  0.000000      6.000000
 -0.042548  0.057319  0.000000      6.000000
 


--------------------------------------------------------------------------------------------------------




 Dimension of arrays:
   k-points           NKPTS =     10   k-points in BZ     NKDIM =     10   number of bands    NBANDS=    252
   number of dos      NEDOS =    301   number of ions     NIONS =     37
   non local maximal  LDIM  =      6   non local SUM 2l+1 LMDIM =     18
   total plane-waves  NPLWV = 290304
   max r-space proj   IRMAX =   2902   max aug-charges    IRDMAX=  14257
   dimension x,y,z NGX =    48 NGY =   48 NGZ =  126
   dimension x,y,z NGXF=    96 NGYF=   96 NGZF=  252
   support grid    NGXF=    96 NGYF=   96 NGZF=  252
   ions per type =              35   1   1
   NGX,Y,Z   is equivalent  to a cutoff of   9.05,  9.05,  9.44 a.u.
   NGXF,Y,Z  is equivalent  to a cutoff of  18.11, 18.11, 18.87 a.u.

 SYSTEM =  unknown system                          
 POSCAR =  Au-Ir-O                                 

 Startparameter for this run:
   NWRITE =      2    write-flag & timer
   PREC   = normal    normal or accurate (medium, high low for compatibility)
   ISTART =      0    job   : 0-new  1-cont  2-samecut
   ICHARG =     11    charge: 1-file 2-atom 10-const
   ISPIN  =      1    spin polarized calculation?
   LNONCOLLINEAR =      F non collinear calculations
   LSORBIT =      F    spin-orbit coupling
   INIWAV =      1    electr: 0-lowe 1-rand  2-diag
   LASPH  =      F    aspherical Exc in radial PAW
   METAGGA=      F    non-selfconsistent MetaGGA calc.

 Electronic Relaxation 1
   ENCUT  =  500.0 eV  36.75 Ry    6.06 a.u.  16.07 16.07 40.47*2*pi/ulx,y,z
   ENINI  =  500.0     initial cutoff
   ENAUG  =  605.4 eV  augmentation charge cutoff
   NELM   =    150;   NELMIN=  2; NELMDL= -5     # of ELM steps 
   EDIFF  = 0.1E-04   stopping-criterion for ELM
   LREAL  =      T    real-space projection
   NLSPLINE    = F    spline interpolate recip. space projectors
   LCOMPAT=      F    compatible to vasp.4.4
   GGA_COMPAT  = T    GGA compatible to vasp.4.4-vasp.4.6
   LMAXPAW     = -100 max onsite density
   LMAXMIX     =    2 max onsite mixed and CHGCAR
   VOSKOWN=      0    Vosko Wilk Nusair interpolation
   ROPT   =   -0.00050  -0.00050  -0.00050
 Ionic relaxation
   EDIFFG = -.1E-01   stopping-criterion for IOM
   NSW    =      0    number of steps for IOM
   NBLOCK =      1;   KBLOCK =      1    inner block; outer block 
   IBRION =     -1    ionic relax: 0-MD 1-quasi-New 2-CG
   NFREE  =      1    steps in history (QN), initial steepest desc. (CG)
   ISIF   =      2    stress and relaxation
   IWAVPR =     10    prediction:  0-non 1-charg 2-wave 3-comb
   ISYM   =      2    0-nonsym 1-usesym 2-fastsym
   LCORR  =      T    Harris-Foulkes like correction to forces

   POTIM  = 0.5000    time-step for ionic-motion
   TEIN   =    0.0    initial temperature
   TEBEG  =    0.0;   TEEND  =   0.0 temperature during run
   SMASS  =  -3.00    Nose mass-parameter (am)
   estimated Nose-frequenzy (Omega)   =  0.10E-29 period in steps = 0.13E+47 mass=  -0.178E-26a.u.
   SCALEE = 1.0000    scale energy and forces
   NPACO  =    256;   APACO  = 16.0  distance and # of slots for P.C.
   PSTRESS=    0.0 pullay stress

  Mass of Ions in am
   POMASS = 196.97192.22 16.00
  Ionic Valenz
   ZVAL   =  11.00  9.00  6.00
  Atomic Wigner-Seitz radii
   RWIGS  =  -1.00 -1.00 -1.00
  virtual crystal weights 
   VCA    =   1.00  1.00  1.00
   NELECT =     400.0000    total number of electrons
   NUPDOWN=      -1.0000    fix difference up-down

 DOS related values:
   EMIN   =  10.00;   EMAX   =-10.00  energy-range for DOS
   EFERMI =   0.00
   ISMEAR =    -5;   SIGMA  =   0.10  broadening in eV -4-tet -1-fermi 0-gaus

 Electronic relaxation 2 (details)
   IALGO  =     68    algorithm
   LDIAG  =      T    sub-space diagonalisation (order eigenvalues)
   LSUBROT=      F    optimize rotation matrix (better conditioning)
   TURBO    =      0    0=normal 1=particle mesh
   IRESTART =      0    0=no restart 2=restart with 2 vectors
   NREBOOT  =      0    no. of reboots
   NMIN     =      0    reboot dimension
   EREF     =   0.00    reference energy to select bands
   IMIX   =      4    mixing-type and parameters
     AMIX     =   0.40;   BMIX     =  1.00
     AMIX_MAG =   1.60;   BMIX_MAG =  1.00
     AMIN     =   0.10
     WC   =   100.;   INIMIX=   1;  MIXPRE=   1;  MAXMIX= -45

 Intra band minimization:
   WEIMIN = 0.0000     energy-eigenvalue tresh-hold
   EBREAK =  0.99E-08  absolut break condition
   DEPER  =   0.30     relativ break condition  

   TIME   =   0.40     timestep for ELM

  volume/ion in A,a.u.               =      40.36       272.33
  Fermi-wavevector in a.u.,A,eV,Ry     =   1.055340  1.994303 15.153385  1.113742
  Thomas-Fermi vector in A             =   2.190534
 
 Write flags
   LWAVE        =      F    write WAVECAR
   LDOWNSAMPLE  =      F    k-point downsampling of WAVECAR
   LCHARG       =      F    write CHGCAR
   LVTOT        =      F    write LOCPOT, total local potential
   LVHAR        =      F    write LOCPOT, Hartree potential only
   LELF         =      F    write electronic localiz. function (ELF)
   LORBIT       =     10    0 simple, 1 ext, 2 COOP (PROOUT), +10 PAW based schemes


 Dipole corrections
   LMONO  =      F    monopole corrections only (constant potential shift)
   LDIPOL =      F    correct potential (dipole corrections)
   IDIPOL =      0    1-x, 2-y, 3-z, 4-all directions 
   EPSILON=  1.0000000 bulk dielectric constant

 Exchange correlation treatment:
   GGA     =    --    GGA type
   LEXCH   =     8    internal setting for exchange type
   VOSKOWN=      0    Vosko Wilk Nusair interpolation
   LHFCALC =     F    Hartree Fock is set to
   LHFONE  =     F    Hartree Fock one center treatment
   AEXX    =    0.0000 exact exchange contribution

 Linear response parameters
   LEPSILON=     F    determine dielectric tensor
   LRPA    =     F    only Hartree local field effects (RPA)
   LNABLA  =     F    use nabla operator in PAW spheres
   LVEL    =     F    velocity operator in full k-point grid
   LINTERFAST=   F  fast interpolation
   KINTER  =     0    interpolate to denser k-point grid
   CSHIFT  =0.1000    complex shift for real part using Kramers Kronig
   OMEGAMAX=  -1.0    maximum frequency
   DEG_THRESHOLD= 0.2000000E-02 threshold for treating states as degnerate
   RTIME   =   -0.100 relaxation time in fs
  (WPLASMAI=    0.000 imaginary part of plasma frequency in eV, 0.658/RTIME)
   DFIELD  = 0.0000000 0.0000000 0.0000000 field for delta impulse in time
 
 Orbital magnetization related:
   ORBITALMAG=     F  switch on orbital magnetization
   LCHIMAG   =     F  perturbation theory with respect to B field
   DQ        =  0.001000  dq finite difference perturbation B field
   LLRAUG    =     F  two centre corrections for induced B field



--------------------------------------------------------------------------------------------------------


 Static calculation
 charge density and potential remain constant during run
 non-spin polarized calculation
 RMM-DIIS sequential band-by-band and
  variant of blocked Davidson during initial phase
 perform sub-space diagonalisation
    before iterative eigenvector-optimisation
 no mixing
 using additional bands           52
 real space projection scheme for non local part
 use partial core corrections
 calculate Harris-corrections to forces 
   (improved forces if not selfconsistent)
 use gradient corrections 
 WARNING: stress and forces are not correct
  (second derivative of E(xc) not defined)
 use of overlap-Matrix (Vanderbilt PP)
 Fermi weights with tetrahedron method with Bloechl corrections


--------------------------------------------------------------------------------------------------------


  energy-cutoff  :      500.00
  volume of cell :     1493.16
      direct lattice vectors                 reciprocal lattice vectors
     8.813512802  0.000000000  0.000000000     0.113462137 -0.065507406  0.000000000
     4.406756909  7.632725690  0.000000000     0.000000000  0.131014796  0.000000000
     0.000000000  0.000000000 22.196203232     0.000000000  0.000000000  0.045052750

  length of vectors
     8.813512802  8.813512802 22.196203232     0.131014796  0.131014796  0.045052750


 
 k-points in units of 2pi/SCALE and weight: Automatic mesh                          
   0.00000000  0.00000000  0.00000000       0.016
   0.01418277 -0.00818843  0.00000000       0.094
   0.02836553 -0.01637685  0.00000000       0.094
   0.04254830 -0.02456528  0.00000000       0.094
   0.05673107 -0.03275370  0.00000000       0.047
   0.02836553 -0.00000000  0.00000000       0.094
   0.04254830 -0.00818843  0.00000000       0.188
   0.05673107 -0.01637685  0.00000000       0.188
   0.05673107 -0.00000000  0.00000000       0.094
  -0.04254830  0.05731898  0.00000000       0.094
 
 k-points in reciprocal lattice and weights: Automatic mesh                          
   0.00000000  0.00000000  0.00000000       0.016
   0.12500000 -0.00000000  0.00000000       0.094
   0.25000000 -0.00000000  0.00000000       0.094
   0.37500000  0.00000000  0.00000000       0.094
   0.50000000 -0.00000000  0.00000000       0.047
   0.25000000  0.12500000  0.00000000       0.094
   0.37500000  0.12500000  0.00000000       0.188
   0.50000000  0.12500000  0.00000000       0.188
   0.50000000  0.25000000  0.00000000       0.094
  -0.37500000  0.25000000  0.00000000       0.094
 
 position of ions in fractional coordinates (direct lattice) 
   0.00000000  0.00000000  0.23789564
   0.33333334  0.00000000  0.23789564
   0.66666669  0.00000000  0.23789564
   0.00000000  0.33333334  0.23789564
   0.33333331  0.33333334  0.23789564
   0.66666669  0.33333334  0.23789564
   0.00000000  0.66666669  0.23789564
   0.33333334  0.66666669  0.23789564
   0.66666663  0.66666669  0.23789564
   0.11111112  0.11111111  0.34596521
   0.44444442  0.11111111  0.34596521
   0.77777779  0.11111111  0.34596521
   0.11111113  0.44444445  0.34596521
   0.44444448  0.44444445  0.34596521
   0.77777773  0.44444445  0.34596521
   0.11111109  0.77777779  0.34596521
   0.44444445  0.77777779  0.34596521
   0.77777785  0.77777779  0.34596521
   0.88861264  0.22277473  0.45418961
   0.22166488  0.22166487  0.45224747
   0.55667030  0.22166487  0.45224747
   0.88669359  0.55665324  0.45328661
   0.22166484  0.55667030  0.45224747
   0.55665324  0.55665324  0.45328661
   0.88861264  0.88861264  0.45418961
   0.22277476  0.88861264  0.45418961
   0.55665318  0.88669359  0.45328661
   0.00000000  0.00000000  0.56298766
   0.33331419  0.00525366  0.56239718
   0.66143219  0.00525366  0.56239718
   0.00525366  0.33331419  0.56239718
   0.66143219  0.33331419  0.56239718
   0.00525366  0.66143219  0.56239718
   0.33331419  0.66143219  0.56239718
   0.66666663  0.66666669  0.56278609
   0.33333331  0.33333334  0.55128684
   0.33333331  0.33333334  0.63169162
 
 position of ions in cartesian coordinates  (Angst):
   0.00000000  0.00000000  5.28037993
   2.93783769  0.00000000  5.28037993
   5.87567538  0.00000000  5.28037993
   1.46891901  2.54424197  5.28037993
   4.40675643  2.54424197  5.28037993
   7.34459439  2.54424197  5.28037993
   2.93783803  5.08848395  5.28037993
   5.87567571  5.08848395  5.28037993
   8.81351288  5.08848395  5.28037993
   1.46891893  0.84808064  7.67911405
   4.40675623  0.84808064  7.67911405
   7.34459418  0.84808064  7.67911405
   2.93783798  3.39232256  7.67911405
   5.87567574  3.39232256  7.67911405
   8.81351263  3.39232256  7.67911405
   4.40675667  5.93656453  7.67911405
   7.34459449  5.93656453  7.67911405
  10.28243270  5.93656453  7.67911405
   8.81351299  1.70037842 10.08128487
   2.93046944  1.69190711 10.03817665
   5.88304398  1.69190711 10.03817665
  10.26792078  4.24878146 10.06124176
   4.40675655  4.24891169 10.03817665
   7.35910592  4.24878146 10.06124176
  11.74769880  6.78253654 10.08128487
   5.87932811  6.78253654 10.08128487
   8.81351299  6.76788893 10.06124176
   0.00000000  0.00000000 12.49618859
   2.96082043  0.04009971 12.48308208
   5.85269264  0.04009971 12.48308208
   1.51513775  2.54409576 12.48308208
   7.29837565  2.54409576 12.48308208
   2.96107402  5.04853045 12.48308208
   5.85243972  5.04853045 12.48308208
   8.81351288  5.08848395 12.49171444
   4.40675643  2.54424197 12.23647475
   4.40675643  2.54424197 14.02115565
 


--------------------------------------------------------------------------------------------------------


 k-point   1 :   0.0000 0.0000 0.0000  plane waves:   37827
 k-point   2 :   0.1250-0.0000 0.0000  plane waves:   37876
 k-point   3 :   0.2500-0.0000 0.0000  plane waves:   37924
 k-point   4 :   0.3750 0.0000 0.0000  plane waves:   37904
 k-point   5 :   0.5000-0.0000 0.0000  plane waves:   37912
 k-point   6 :   0.2500 0.1250 0.0000  plane waves:   37858
 k-point   7 :   0.3750 0.1250 0.0000  plane waves:   37928
 k-point   8 :   0.5000 0.1250 0.0000  plane waves:   37924
 k-point   9 :   0.5000 0.2500 0.0000  plane waves:   37926
 k-point  10 :  -0.3750 0.2500 0.0000  plane waves:   37916

 maximum and minimum number of plane-waves per node :     37928    37827

 maximum number of plane-waves:     37928
 maximum index in each direction: 
   IXMAX=   16   IYMAX=   16   IZMAX=   40
   IXMIN=  -16   IYMIN=  -16   IZMIN=  -40


 serial   3D FFT for wavefunctions
 parallel 3D FFT for charge:
    minimum data exchange during FFTs selected (reduces bandwidth)


 total amount of memory used by VASP MPI-rank0   122390. kBytes
=======================================================================

   base      :      30000. kBytes
   nonlr-proj:      14005. kBytes
   fftplans  :       4330. kBytes
   grid      :      17879. kBytes
   one-center:        575. kBytes
   wavefun   :      55601. kBytes
 
     INWAV:  cpu time    0.0000: real time    0.0000
 initial charge density was supplied:
 number of electron     399.9999958 magnetization 
 keeping initial charge density in first step


--------------------------------------------------------------------------------------------------------


 Maximum index for non-local projection operator         2759
 Maximum index for augmentation-charges          861 (set IRDMAX)


--------------------------------------------------------------------------------------------------------


 First call to EWALD:  gamma=   0.155
 Maximum number of real-space cells 4x 4x 2
 Maximum number of reciprocal cells 2x 2x 5

    FEWALD:  cpu time    0.0013: real time    0.0013


--------------------------------------- Iteration      1(   1)  ---------------------------------------


    POTLOK:  cpu time    0.0415: real time    0.0419
    SETDIJ:  cpu time    0.0051: real time    0.0053
     EDDAV:  cpu time    7.1111: real time    7.1145
 BZINTS: Fermi energy:   11.652039;  400.000000 electrons
         Band energy: 0.155754E+04;  BLOECHL correction:   -0.007023
       DOS:  cpu time    0.0101: real time    0.0101
    --------------------------------------------
      LOOP:  cpu time    7.1678: real time    7.1719

 eigenvalue-minimisations  :  5040
 total energy-change (2. order) : 0.2691158E+04  (-0.1820732E+05)
 number of electron     399.9999958 magnetization 
 augmentation part      399.9999958 magnetization 

 Free energy of the ion-electron system (eV)
  ---------------------------------------------------
  alpha Z        PSCENC =      1032.98005669
  Ewald energy   TEWEN  =     97051.29646556
  -Hartree energ DENC   =   -131649.70658327
  -exchange      EXHF   =         0.00000000
  -V(xc)+E(xc)   XCENC  =       528.20756708
  PAW double counting   =     36471.12344401   -35705.71209490
  entropy T*S    EENTRO =         0.00000000
  eigenvalues    EBANDS =      1557.54475087
  atomic energy  EATOM  =     33405.42415150
  Solvation  Ediel_sol  =         0.00000000
  ---------------------------------------------------
  free energy    TOTEN  =      2691.15775753 eV

  energy without entropy =     2691.15775753  energy(sigma->0) =     2691.15775753


--------------------------------------------------------------------------------------------------------




--------------------------------------- Iteration      1(   2)  ---------------------------------------


     EDDAV:  cpu time    7.7192: real time    7.7214
 BZINTS: Fermi energy:    1.446377;  400.000000 electrons
         Band energy:-0.111579E+04;  BLOECHL correction:   -0.062998
       DOS:  cpu time    0.0100: real time    0.0100
    --------------------------------------------
      LOOP:  cpu time    7.7292: real time    7.7314

 eigenvalue-minimisations  :  5600
 total energy-change (2. order) :-0.2673336E+04  (-0.2474196E+04)
 number of electron     399.9999958 magnetization 
 augmentation part      399.9999958 magnetization 

 Free energy of the ion-electron system (eV)
  ---------------------------------------------------
  alpha Z        PSCENC =      1032.98005669
  Ewald energy   TEWEN  =     97051.29646556
  -Hartree energ DENC   =   -131649.70658327
  -exchange      EXHF   =         0.00000000
  -V(xc)+E(xc)   XCENC  =       528.20756708
  PAW double counting   =     36471.12344401   -35705.71209490
  entropy T*S    EENTRO =         0.00000000
  eigenvalues    EBANDS =     -1115.79128224
  atomic energy  EATOM  =     33405.42415150
  Solvation  Ediel_sol  =         0.00000000
  ---------------------------------------------------
  free energy    TOTEN  =        17.82172443 eV

  energy without entropy =       17.82172443  energy(sigma->0) =       17.82172443


--------------------------------------------------------------------------------------------------------




--------------------------------------- Iteration      1(   3)  ---------------------------------------


     EDDAV:  cpu time    8.0354: real time    8.0377
 BZINTS: Fermi energy:    0.689111;  400.000000 electrons
         Band energy:-0.125035E+04;  BLOECHL correction:   -0.053301
       DOS:  cpu time    0.0103: real time    0.0103
    --------------------------------------------
      LOOP:  cpu time    8.0456: real time    8.0480

 eigenvalue-minimisations  :  5880
 total energy-change (2. order) :-0.1345538E+03  (-0.1299360E+03)
 number of electron     399.9999958 magnetization 
 augmentation part      399.9999958 magnetization 

 Free energy of the ion-electron system (eV)
  ---------------------------------------------------
  alpha Z        PSCENC =      1032.98005669
  Ewald energy   TEWEN  =     97051.29646556
  -Hartree energ DENC   =   -131649.70658327
  -exchange      EXHF   =         0.00000000
  -V(xc)+E(xc)   XCENC  =       528.20756708
  PAW double counting   =     36471.12344401   -35705.71209490
  entropy T*S    EENTRO =         0.00000000
  eigenvalues    EBANDS =     -1250.34507047
  atomic energy  EATOM  =     33405.42415150
  Solvation  Ediel_sol  =         0.00000000
  ---------------------------------------------------
  free energy    TOTEN  =      -116.73206380 eV

  energy without entropy =     -116.73206380  energy(sigma->0) =     -116.73206380


--------------------------------------------------------------------------------------------------------




--------------------------------------- Iteration      1(   4)  ---------------------------------------


     EDDAV:  cpu time    7.6914: real time    7.6939
 BZINTS: Fermi energy:    0.666430;  400.000000 electrons
         Band energy:-0.125317E+04;  BLOECHL correction:   -0.052370
       DOS:  cpu time    0.0100: real time    0.0100
    --------------------------------------------
      LOOP:  cpu time    7.7014: real time    7.7039

 eigenvalue-minimisations  :  5572
 total energy-change (2. order) :-0.2826072E+01  (-0.2818946E+01)
 number of electron     399.9999958 magnetization 
 augmentation part      399.9999958 magnetization 

 Free energy of the ion-electron system (eV)
  ---------------------------------------------------
  alpha Z        PSCENC =      1032.98005669
  Ewald energy   TEWEN  =     97051.29646556
  -Hartree energ DENC   =   -131649.70658327
  -exchange      EXHF   =         0.00000000
  -V(xc)+E(xc)   XCENC  =       528.20756708
  PAW double counting   =     36471.12344401   -35705.71209490
  entropy T*S    EENTRO =         0.00000000
  eigenvalues    EBANDS =     -1253.17114228
  atomic energy  EATOM  =     33405.42415150
  Solvation  Ediel_sol  =         0.00000000
  ---------------------------------------------------
  free energy    TOTEN  =      -119.55813561 eV

  energy without entropy =     -119.55813561  energy(sigma->0) =     -119.55813561


--------------------------------------------------------------------------------------------------------




--------------------------------------- Iteration      1(   5)  ---------------------------------------


     EDDAV:  cpu time    8.5761: real time    8.5789
 BZINTS: Fermi energy:    0.665909;  400.000000 electrons
         Band energy:-0.125327E+04;  BLOECHL correction:   -0.052373
       DOS:  cpu time    0.0102: real time    0.0102
    --------------------------------------------
      LOOP:  cpu time    8.5863: real time    8.5891

 eigenvalue-minimisations  :  6356
 total energy-change (2. order) :-0.9553941E-01  (-0.9548430E-01)
 number of electron     399.9999958 magnetization 
 augmentation part      399.9999958 magnetization 

 Free energy of the ion-electron system (eV)
  ---------------------------------------------------
  alpha Z        PSCENC =      1032.98005669
  Ewald energy   TEWEN  =     97051.29646556
  -Hartree energ DENC   =   -131649.70658327
  -exchange      EXHF   =         0.00000000
  -V(xc)+E(xc)   XCENC  =       528.20756708
  PAW double counting   =     36471.12344401   -35705.71209490
  entropy T*S    EENTRO =         0.00000000
  eigenvalues    EBANDS =     -1253.26668169
  atomic energy  EATOM  =     33405.42415150
  Solvation  Ediel_sol  =         0.00000000
  ---------------------------------------------------
  free energy    TOTEN  =      -119.65367503 eV

  energy without entropy =     -119.65367503  energy(sigma->0) =     -119.65367503


--------------------------------------------------------------------------------------------------------




--------------------------------------- Iteration      1(   6)  ---------------------------------------


    EDDIAG:  cpu time    1.4015: real time    1.4021
  RMM-DIIS:  cpu time    3.9953: real time    3.9965
    ORTHCH:  cpu time    0.2606: real time    0.2606
 BZINTS: Fermi energy:    0.665907;  400.000000 electrons
         Band energy:-0.125327E+04;  BLOECHL correction:   -0.052374
       DOS:  cpu time    0.0100: real time    0.0100
    --------------------------------------------
      LOOP:  cpu time    5.6673: real time    5.6691

 eigenvalue-minimisations  :  5138
 total energy-change (2. order) :-0.2023381E-02  (-0.2022971E-02)
 number of electron     399.9999958 magnetization 
 augmentation part      399.9999958 magnetization 

 Free energy of the ion-electron system (eV)
  ---------------------------------------------------
  alpha Z        PSCENC =      1032.98005669
  Ewald energy   TEWEN  =     97051.29646556
  -Hartree energ DENC   =   -131649.70658327
  -exchange      EXHF   =         0.00000000
  -V(xc)+E(xc)   XCENC  =       528.20756708
  PAW double counting   =     36471.12344401   -35705.71209490
  entropy T*S    EENTRO =         0.00000000
  eigenvalues    EBANDS =     -1253.26870507
  atomic energy  EATOM  =     33405.42415150
  Solvation  Ediel_sol  =         0.00000000
  ---------------------------------------------------
  free energy    TOTEN  =      -119.65569841 eV

  energy without entropy =     -119.65569841  energy(sigma->0) =     -119.65569841


--------------------------------------------------------------------------------------------------------




--------------------------------------- Iteration      1(   7)  ---------------------------------------


    EDDIAG:  cpu time    1.4017: real time    1.4023
  RMM-DIIS:  cpu time    5.4386: real time    5.4401
    ORTHCH:  cpu time    0.2606: real time    0.2608
 BZINTS: Fermi energy:    0.665907;  400.000000 electrons
         Band energy:-0.125327E+04;  BLOECHL correction:   -0.052374
       DOS:  cpu time    0.0100: real time    0.0100
    --------------------------------------------
      LOOP:  cpu time    7.1108: real time    7.1132

 eigenvalue-minimisations  :  7093
 total energy-change (2. order) :-0.6814282E-03  (-0.6774010E-03)
 number of electron     399.9999958 magnetization 
 augmentation part      399.9999958 magnetization 

 Free energy of the ion-electron system (eV)
  ---------------------------------------------------
  alpha Z        PSCENC =      1032.98005669
  Ewald energy   TEWEN  =     97051.29646556
  -Hartree energ DENC   =   -131649.70658327
  -exchange      EXHF   =         0.00000000
  -V(xc)+E(xc)   XCENC  =       528.20756708
  PAW double counting   =     36471.12344401   -35705.71209490
  entropy T*S    EENTRO =         0.00000000
  eigenvalues    EBANDS =     -1253.26938650
  atomic energy  EATOM  =     33405.42415150
  Solvation  Ediel_sol  =         0.00000000
  ---------------------------------------------------
  free energy    TOTEN  =      -119.65637983 eV

  energy without entropy =     -119.65637983  energy(sigma->0) =     -119.65637983


--------------------------------------------------------------------------------------------------------




--------------------------------------- Iteration      1(   8)  ---------------------------------------


    EDDIAG:  cpu time    1.4043: real time    1.4047
  RMM-DIIS:  cpu time    4.3445: real time    4.3456
    ORTHCH:  cpu time    0.2604: real time    0.2607
 BZINTS: Fermi energy:    0.665907;  400.000000 electrons
         Band energy:-0.125327E+04;  BLOECHL correction:   -0.052374
       DOS:  cpu time    0.0096: real time    0.0096
    --------------------------------------------
      LOOP:  cpu time    6.0188: real time    6.0206

 eigenvalue-minimisations  :  5533
 total energy-change (2. order) :-0.3822832E-04  (-0.3792886E-04)
 number of electron     399.9999958 magnetization 
 augmentation part      399.9999958 magnetization 

 Free energy of the ion-electron system (eV)
  ---------------------------------------------------
  alpha Z        PSCENC =      1032.98005669
  Ewald energy   TEWEN  =     97051.29646556
  -Hartree energ DENC   =   -131649.70658327
  -exchange      EXHF   =         0.00000000
  -V(xc)+E(xc)   XCENC  =       528.20756708
  PAW double counting   =     36471.12344401   -35705.71209490
  entropy T*S    EENTRO =         0.00000000
  eigenvalues    EBANDS =     -1253.26942473
  atomic energy  EATOM  =     33405.42415150
  Solvation  Ediel_sol  =         0.00000000
  ---------------------------------------------------
  free energy    TOTEN  =      -119.65641806 eV

  energy without entropy =     -119.65641806  energy(sigma->0) =     -119.65641806


--------------------------------------------------------------------------------------------------------




--------------------------------------- Iteration      1(   9)  ---------------------------------------


    EDDIAG:  cpu time    1.4028: real time    1.4031
  RMM-DIIS:  cpu time    3.4211: real time    3.4220
    ORTHCH:  cpu time    0.2605: real time    0.2607
 BZINTS: Fermi energy:    0.665907;  400.000000 electrons
         Band energy:-0.125327E+04;  BLOECHL correction:   -0.052374
       DOS:  cpu time    0.0098: real time    0.0098
    --------------------------------------------
      LOOP:  cpu time    5.0940: real time    5.0956

 eigenvalue-minimisations  :  3756
 total energy-change (2. order) :-0.7133931E-05  (-0.7095901E-05)
 number of electron     399.9999958 magnetization 
 augmentation part      399.9999958 magnetization 

 Free energy of the ion-electron system (eV)
  ---------------------------------------------------
  alpha Z        PSCENC =      1032.98005669
  Ewald energy   TEWEN  =     97051.29646556
  -Hartree energ DENC   =   -131649.70658327
  -exchange      EXHF   =         0.00000000
  -V(xc)+E(xc)   XCENC  =       528.20756708
  PAW double counting   =     36471.12344401   -35705.71209490
  entropy T*S    EENTRO =         0.00000000
  eigenvalues    EBANDS =     -1253.26943186
  atomic energy  EATOM  =     33405.42415150
  Solvation  Ediel_sol  =         0.00000000
  ---------------------------------------------------
  free energy    TOTEN  =      -119.65642520 eV

  energy without entropy =     -119.65642520  energy(sigma->0) =     -119.65642520


--------------------------------------------------------------------------------------------------------




 average (electrostatic) potential at core
  the test charge radii are     1.2098  1.2793  0.7215
  (the norm of the test charge is              1.0000)
       1 -72.3943       2 -72.3655       3 -72.3655       4 -72.3656       5 -72.3722
       6 -72.3653       7 -72.3655       8 -72.3653       9 -72.3933      10 -72.7176
      11 -72.6950      12 -72.7173      13 -72.6950      14 -72.6947      15 -72.7096
      16 -72.7173      17 -72.7096      18 -72.7096      19 -72.6646      20 -72.8083
      21 -72.8080      22 -72.7026      23 -72.8080      24 -72.7024      25 -72.6644
      26 -72.6646      27 -72.7026      28 -72.2822      29 -72.3477      30 -72.3476
      31 -72.3477      32 -72.3474      33 -72.3476      34 -72.3474      35 -72.2860
      36 -58.1841      37 -75.4497
 
 
 
 E-fermi :   0.6659     XC(G=0):  -6.1327     alpha+bet : -5.7648

 Fermi energy:         0.6659068916

 k-point     1 :       0.0000    0.0000    0.0000
  band No.  band energies     occupation 
      1     -17.6460      2.00000
      2      -8.1878      2.00000
      3      -7.0265      2.00000
      4      -6.1075      2.00000
      5      -6.0412      2.00000
      6      -6.0401      2.00000
      7      -6.0401      2.00000
      8      -6.0062      2.00000
      9      -5.9900      2.00000
     10      -5.9900      2.00000
     11      -5.9818      2.00000
     12      -5.5990      2.00000
     13      -5.5461      2.00000
     14      -5.5461      2.00000
     15      -5.5386      2.00000
     16      -5.5048      2.00000
     17      -5.5048      2.00000
     18      -5.2009      2.00000
     19      -5.1706      2.00000
     20      -5.1581      2.00000
     21      -5.1581      2.00000
     22      -5.1245      2.00000
     23      -5.1244      2.00000
     24      -5.0832      2.00000
     25      -4.9956      2.00000
     26      -4.9955      2.00000
     27      -4.9641      2.00000
     28      -4.9640      2.00000
     29      -4.9610      2.00000
     30      -4.8398      2.00000
     31      -4.8397      2.00000
     32      -4.8240      2.00000
     33      -4.8042      2.00000
     34      -4.8042      2.00000
     35      -4.7850      2.00000
     36      -4.7840      2.00000
     37      -4.7839      2.00000
     38      -4.7832      2.00000
     39      -4.7616      2.00000
     40      -4.7430      2.00000
     41      -4.7430      2.00000
     42      -4.5392      2.00000
     43      -4.4636      2.00000
     44      -4.4636      2.00000
     45      -4.2893      2.00000
     46      -4.2893      2.00000
     47      -4.2400      2.00000
     48      -4.2400      2.00000
     49      -4.2376      2.00000
     50      -4.2352      2.00000
     51      -4.2352      2.00000
     52      -4.1981      2.00000
     53      -4.1260      2.00000
     54      -4.1189      2.00000
     55      -4.0742      2.00000
     56      -3.9886      2.00000
     57      -3.9885      2.00000
     58      -3.8958      2.00000
     59      -3.7055      2.00000
     60      -3.6983      2.00000
     61      -3.6859      2.00000
     62      -3.6820      2.00000
     63      -3.6820      2.00000
     64      -3.6549      2.00000
     65      -3.6549      2.00000
     66      -3.6348      2.00000
     67      -3.6348      2.00000
     68      -3.5723      2.00000
     69      -3.5723      2.00000
     70      -3.5406      2.00000
     71      -3.5204      2.00000
     72      -3.5204      2.00000
     73      -3.4826      2.00000
     74      -3.4825      2.00000
     75      -3.4573      2.00000
     76      -3.4419      2.00000
     77      -3.4376      2.00000
     78      -3.4376      2.00000
     79      -3.4227      2.00000
     80      -3.4227      2.00000
     81      -3.4222      2.00000
     82      -3.4189      2.00000
     83      -3.4189      2.00000
     84      -3.3594      2.00000
     85      -3.3593      2.00000
     86      -3.3463      2.00000
     87      -3.3205      2.00000
     88      -3.3205      2.00000
     89      -3.2977      2.00000
     90      -3.2976      2.00000
     91      -3.2863      2.00000
     92      -3.2093      2.00000
     93      -3.2093      2.00000
     94      -3.1943      2.00000
     95      -3.1101      2.00000
     96      -3.1101      2.00000
     97      -3.0134      2.00000
     98      -3.0134      2.00000
     99      -3.0074      2.00000
    100      -3.0074      2.00000
    101      -2.8564      2.00000
    102      -2.8564      2.00000
    103      -2.8442      2.00000
    104      -2.8442      2.00000
    105      -2.8370      2.00000
    106      -2.7706      2.00000
    107      -2.7666      2.00000
    108      -2.7666      2.00000
    109      -2.6806      2.00000
    110      -2.6806      2.00000
    111      -2.6313      2.00000
    112      -2.6113      2.00000
    113      -2.6113      2.00000
    114      -2.5946      2.00000
    115      -2.5577      2.00000
    116      -2.5158      2.00000
    117      -2.5158      2.00000
    118      -2.5134      2.00000
    119      -2.4841      2.00000
    120      -2.3632      2.00000
    121      -2.3328      2.00000
    122      -2.3328      2.00000
    123      -2.3040      2.00000
    124      -2.2767      2.00000
    125      -2.2767      2.00000
    126      -2.2586      2.00000
    127      -2.2586      2.00000
    128      -2.2419      2.00000
    129      -2.2419      2.00000
    130      -2.1809      2.00000
    131      -2.1809      2.00000
    132      -2.0883      2.00000
    133      -2.0723      2.00000
    134      -2.0722      2.00000
    135      -2.0567      2.00000
    136      -2.0567      2.00000
    137      -2.0540      2.00000
    138      -2.0443      2.00000
    139      -2.0405      2.00000
    140      -2.0405      2.00000
    141      -1.9878      2.00000
    142      -1.9878      2.00000
    143      -1.9698      2.00000
    144      -1.8485      2.00000
    145      -1.8484      2.00000
    146      -1.8144      2.00000
    147      -1.8139      2.00000
    148      -1.8139      2.00000
    149      -1.7845      2.00000
    150      -1.7748      2.00000
    151      -1.7748      2.00000
    152      -1.7493      2.00000
    153      -1.7493      2.00000
    154      -1.7411      2.00000
    155      -1.7370      2.00000
    156      -1.7129      2.00000
    157      -1.7129      2.00000
    158      -1.6403      2.00000
    159      -1.6157      2.00000
    160      -1.6083      2.00000
    161      -1.6019      2.00000
    162      -1.6019      2.00000
    163      -1.5882      2.00000
    164      -1.5882      2.00000
    165      -1.5823      2.00000
    166      -1.5501      2.00000
    167      -1.5501      2.00000
    168      -1.5268      2.00000
    169      -1.5268      2.00000
    170      -1.5171      2.00000
    171      -1.5171      2.00000
    172      -1.5133      2.00000
    173      -1.4952      2.00000
    174      -1.4890      2.00000
    175      -1.4749      2.00000
    176      -1.4749      2.00000
    177      -1.4628      2.00000
    178      -1.4504      2.00000
    179      -1.4504      2.00000
    180      -1.4470      2.00000
    181      -1.4368      2.00000
    182      -1.3965      2.00000
    183      -1.3965      2.00000
    184      -1.3844      2.00000
    185      -1.3844      2.00000
    186      -1.3800      2.00000
    187      -1.2648      2.00000
    188      -1.2647      2.00000
    189      -1.2163      2.00000
    190      -1.2163      2.00000
    191      -1.1743      2.00000
    192      -1.1733      2.00000
    193      -1.1732      2.00000
    194      -1.1561      2.00000
    195      -0.4411      2.00000
    196      -0.4411      2.00000
    197      -0.3950      2.00000
    198      -0.2170      2.00000
    199       0.0751      2.00000
    200       0.0751      2.00000
    201       0.0935      2.00000
    202       0.1617      2.00000
    203       0.1617      2.00000
    204       0.6897      0.00000
    205       0.6898      0.00000
    206       1.0593      0.00000
    207       1.6677      0.00000
    208       2.2291      0.00000
    209       2.2696      0.00000
    210       2.2696      0.00000
    211       2.3756      0.00000
    212       2.3756      0.00000
    213       3.4244      0.00000
    214       3.4522      0.00000
    215       3.4522      0.00000
    216       3.4795      0.00000
    217       3.5235      0.00000
    218       3.5236      0.00000
    219       3.7361      0.00000
    220       4.0659      0.00000
    221       4.5729      0.00000
    222       5.3144      0.00000
    223       5.3409      0.00000
    224       5.3409      0.00000
    225       5.3628      0.00000
    226       5.3628      0.00000
    227       5.3895      0.00000
    228       5.5018      0.00000
    229       5.5018      0.00000
    230       5.5333      0.00000
    231       5.5334      0.00000
    232       5.7307      0.00000
    233       5.8288      0.00000
    234       6.1142      0.00000
    235       6.7284      0.00000
    236       6.9847      0.00000
    237       7.0261      0.00000
    238       7.0277      0.00000
    239       7.0412      0.00000
    240       7.0679      0.00000
    241       7.0693      0.00000
    242       7.1443      0.00000
    243       7.1458      0.00000
    244       7.1570      0.00000
    245       7.1962      0.00000
    246       7.2000      0.00000
    247       7.2323      0.00000
    248       7.4206      0.00000
    249       7.4224      0.00000
    250       7.4421      0.00000
    251       7.5372      0.00000
    252       7.5883      0.00000

 k-point     2 :       0.1250   -0.0000    0.0000
  band No.  band energies     occupation 
      1     -17.6460      2.00000
      2      -8.1369      2.00000
      3      -6.9770      2.00000
      4      -6.2856      2.00000
      5      -6.1162      2.00000
      6      -6.0944      2.00000
      7      -5.9940      2.00000
      8      -5.9649      2.00000
      9      -5.9231      2.00000
     10      -5.8977      2.00000
     11      -5.8811      2.00000
     12      -5.6054      2.00000
     13      -5.5742      2.00000
     14      -5.5231      2.00000
     15      -5.5173      2.00000
     16      -5.5118      2.00000
     17      -5.4810      2.00000
     18      -5.2367      2.00000
     19      -5.1857      2.00000
     20      -5.1546      2.00000
     21      -5.1290      2.00000
     22      -5.1066      2.00000
     23      -5.0959      2.00000
     24      -5.0817      2.00000
     25      -5.0345      2.00000
     26      -5.0040      2.00000
     27      -4.9563      2.00000
     28      -4.9472      2.00000
     29      -4.9091      2.00000
     30      -4.8874      2.00000
     31      -4.8828      2.00000
     32      -4.8538      2.00000
     33      -4.8484      2.00000
     34      -4.8353      2.00000
     35      -4.7964      2.00000
     36      -4.7737      2.00000
     37      -4.7385      2.00000
     38      -4.7058      2.00000
     39      -4.6913      2.00000
     40      -4.6752      2.00000
     41      -4.6698      2.00000
     42      -4.5443      2.00000
     43      -4.4739      2.00000
     44      -4.4736      2.00000
     45      -4.3496      2.00000
     46      -4.3400      2.00000
     47      -4.3061      2.00000
     48      -4.2773      2.00000
     49      -4.2562      2.00000
     50      -4.2163      2.00000
     51      -4.1962      2.00000
     52      -4.1574      2.00000
     53      -4.0986      2.00000
     54      -4.0936      2.00000
     55      -4.0670      2.00000
     56      -3.9894      2.00000
     57      -3.9864      2.00000
     58      -3.9200      2.00000
     59      -3.7551      2.00000
     60      -3.7322      2.00000
     61      -3.7142      2.00000
     62      -3.7064      2.00000
     63      -3.6994      2.00000
     64      -3.6836      2.00000
     65      -3.6794      2.00000
     66      -3.6644      2.00000
     67      -3.6530      2.00000
     68      -3.6113      2.00000
     69      -3.6007      2.00000
     70      -3.5883      2.00000
     71      -3.5880      2.00000
     72      -3.5504      2.00000
     73      -3.5398      2.00000
     74      -3.5379      2.00000
     75      -3.5061      2.00000
     76      -3.4884      2.00000
     77      -3.4843      2.00000
     78      -3.4642      2.00000
     79      -3.4579      2.00000
     80      -3.4419      2.00000
     81      -3.3986      2.00000
     82      -3.3875      2.00000
     83      -3.3759      2.00000
     84      -3.3557      2.00000
     85      -3.3266      2.00000
     86      -3.3199      2.00000
     87      -3.2895      2.00000
     88      -3.2831      2.00000
     89      -3.2698      2.00000
     90      -3.2391      2.00000
     91      -3.2335      2.00000
     92      -3.2193      2.00000
     93      -3.1809      2.00000
     94      -3.1304      2.00000
     95      -3.1223      2.00000
     96      -3.1168      2.00000
     97      -3.0930      2.00000
     98      -3.0760      2.00000
     99      -2.9690      2.00000
    100      -2.9530      2.00000
    101      -2.9141      2.00000
    102      -2.8991      2.00000
    103      -2.8834      2.00000
    104      -2.8612      2.00000
    105      -2.8592      2.00000
    106      -2.8117      2.00000
    107      -2.7986      2.00000
    108      -2.7216      2.00000
    109      -2.6767      2.00000
    110      -2.6675      2.00000
    111      -2.6462      2.00000
    112      -2.6403      2.00000
    113      -2.6359      2.00000
    114      -2.6212      2.00000
    115      -2.6124      2.00000
    116      -2.6076      2.00000
    117      -2.5636      2.00000
    118      -2.5622      2.00000
    119      -2.5434      2.00000
    120      -2.5320      2.00000
    121      -2.5158      2.00000
    122      -2.4564      2.00000
    123      -2.4442      2.00000
    124      -2.3284      2.00000
    125      -2.3047      2.00000
    126      -2.3028      2.00000
    127      -2.2681      2.00000
    128      -2.2463      2.00000
    129      -2.2331      2.00000
    130      -2.2242      2.00000
    131      -2.2082      2.00000
    132      -2.2000      2.00000
    133      -2.1928      2.00000
    134      -2.1734      2.00000
    135      -2.1485      2.00000
    136      -2.0788      2.00000
    137      -2.0769      2.00000
    138      -2.0572      2.00000
    139      -2.0307      2.00000
    140      -2.0167      2.00000
    141      -1.9939      2.00000
    142      -1.9798      2.00000
    143      -1.9792      2.00000
    144      -1.9747      2.00000
    145      -1.9074      2.00000
    146      -1.9027      2.00000
    147      -1.8391      2.00000
    148      -1.8231      2.00000
    149      -1.7905      2.00000
    150      -1.7763      2.00000
    151      -1.7594      2.00000
    152      -1.7539      2.00000
    153      -1.7462      2.00000
[...]
  0.000   0.000   0.000   0.000   0.000   0.000   0.000   0.000   0.000   0.000   0.000   0.000   0.000   0.000   0.000   0.000
  0.000   0.000   0.000   0.000   0.000   0.000   0.000   0.000   0.000   0.000   0.000   0.000   0.000   0.000   0.000   0.000
  0.000   0.000   0.000   0.000   0.000   0.000   0.000   0.000   0.000   0.000   0.000   0.000   0.000   0.000   0.000   0.000
  0.000   0.000   0.000   0.000   0.000   0.000   0.000   0.000   0.000   0.000   0.000   0.000   0.000   0.000   0.000   0.000
  0.000   0.000   0.000   0.000   0.000   0.000   0.000   0.000   0.000   0.000   0.000   0.000   0.000   0.000   0.000   0.000
  0.000   0.000   0.000   0.000   0.000   0.000   0.000   0.000   0.000   0.000   1.000   0.000   0.000   0.000   0.000   0.000
  0.000   0.000   0.000   0.000   0.000   0.000   0.000   0.000   0.000   0.000   0.000   0.000   0.000   0.000   0.000   0.000
  0.000   0.000   0.000   0.000   0.000   0.000   0.000   0.000   0.000   0.000   0.000   0.000   0.000   0.000   0.000   0.000
  0.000   0.000   0.000   0.000   0.000   0.000   0.000   0.000   0.000   0.000   0.000   0.000   0.000   0.000   0.000   0.000
  0.000   0.000   0.000   0.000   0.000   0.000   0.000   0.000   0.000   0.000   0.000   0.000   0.000   0.000   0.000   0.000
  0.000   0.000   0.000   0.000   0.000   0.000   0.000   0.000   0.000   0.000   0.000   0.000   0.000   0.000   0.000   0.000
  0.000   0.000   0.000   0.000   0.000   0.000   0.000   0.000   0.000   0.000   0.000   0.000   0.000   0.000   0.000   0.000
  0.000   0.000   0.000   0.000   0.000   0.000   0.000   0.000   0.000   0.000   0.000   0.000   0.000   0.000   0.000   0.000


------------------------ aborting loop because EDIFF is reached ----------------------------------------





 total charge

# of ion       s       p       d       tot
------------------------------------------
    1        0.546   0.238   8.769   9.553
    2        0.544   0.241   8.765   9.550
    3        0.544   0.241   8.765   9.550
    4        0.544   0.241   8.765   9.550
    5        0.543   0.241   8.763   9.548
    6        0.544   0.241   8.765   9.550
    7        0.544   0.241   8.765   9.550
    8        0.544   0.241   8.765   9.550
    9        0.541   0.240   8.765   9.546
   10        0.525   0.309   8.770   9.605
   11        0.519   0.311   8.777   9.607
   12        0.525   0.309   8.770   9.605
   13        0.519   0.311   8.777   9.607
   14        0.519   0.311   8.777   9.607
   15        0.515   0.308   8.779   9.602
   16        0.525   0.309   8.770   9.605
   17        0.515   0.308   8.779   9.602
   18        0.515   0.308   8.779   9.602
   19        0.516   0.303   8.776   9.595
   20        0.547   0.336   8.746   9.628
   21        0.547   0.336   8.746   9.628
   22        0.511   0.307   8.778   9.596
   23        0.547   0.336   8.746   9.628
   24        0.511   0.307   8.778   9.596
   25        0.516   0.303   8.776   9.595
   26        0.516   0.303   8.776   9.595
   27        0.511   0.307   8.778   9.596
   28        0.543   0.227   8.771   9.540
   29        0.533   0.240   8.770   9.542
   30        0.533   0.240   8.770   9.542
   31        0.533   0.240   8.770   9.542
   32        0.533   0.240   8.770   9.542
   33        0.533   0.240   8.770   9.542
   34        0.533   0.240   8.770   9.542
   35        0.535   0.230   8.769   9.534
   36        0.639   0.614   6.907   8.160
   37        1.608   3.207   0.000   4.815
--------------------------------------------------
tot         20.815  13.510 313.829 348.154
 
    CHARGE:  cpu time    0.3330: real time    0.3332
    FORLOC:  cpu time    0.0100: real time    0.0100
    FORNL :  cpu time    1.4475: real time    1.4479
    STRESS:  cpu time    4.3240: real time    4.3256
    FORCOR:  cpu time    0.0450: real time    0.0452
    FORHAR:  cpu time    0.0165: real time    0.0166
    OFIELD:  cpu time    0.0002: real time    0.0002

  FORCE on cell =-STRESS in cart. coord.  units (eV):
  Direction    XX          YY          ZZ          XY          YZ          ZX
  --------------------------------------------------------------------------------------
  Alpha Z  1032.98006  1032.98006  1032.98006
  Ewald  119832.10442119832.10485************    -0.00033    -0.00008    -0.00013
  Hartree128621.95959128621.95960************     0.00001    -0.00002    -0.00003
  E(xc)   -1798.36963 -1798.36964 -1804.67342     0.00001     0.00000     0.00000
  Local  ************************260952.93933     0.00201     0.00001    -0.00001
  n-local  -113.94350   -61.46076   -58.38763    25.48344    -1.22761     1.65012
  augment  2414.35466  2414.35620  2423.02030    -0.00133     0.00002     0.00005
  Kinetic  5593.99439  5604.49553  5625.67331     5.26477     0.26189     0.32578
  Fock        0.00000     0.00000     0.00000     0.00000     0.00000     0.00000
  -------------------------------------------------------------------------------------
  Total     -20.02206   -20.02206     2.92904    -0.00000     0.00000    -0.00000
  in kB     -21.48384   -21.48384     3.14288    -0.00000     0.00000    -0.00000
  external pressure =      -13.27 kB  Pullay stress =        0.00 kB


 VOLUME and BASIS-vectors are now :
 -----------------------------------------------------------------------------
  energy-cutoff  :      500.00
  volume of cell :     1493.16
      direct lattice vectors                 reciprocal lattice vectors
     8.813512802  0.000000000  0.000000000     0.113462137 -0.065507406  0.000000000
     4.406756909  7.632725690  0.000000000     0.000000000  0.131014796  0.000000000
     0.000000000  0.000000000 22.196203232     0.000000000  0.000000000  0.045052750

  length of vectors
     8.813512802  8.813512802 22.196203232     0.131014796  0.131014796  0.045052750


 FORCES acting on ions
    electron-ion (+dipol)            ewald-force                    non-local-force                 convergence-correction
 -----------------------------------------------------------------------------------------------
   -.195E-04 -.162E-04 0.250E+04   0.519E-04 0.434E-04 -.249E+04   0.232E-17 -.165E-18 -.916E+00   -.296E-03 -.184E-03 -.469E+00
   0.395E+00 0.283E+00 0.250E+04   -.549E+00 -.367E+00 -.250E+04   0.492E-01 0.946E-01 -.280E+00   0.969E-01 0.103E-02 -.489E+00
   -.395E+00 0.283E+00 0.250E+04   0.549E+00 -.367E+00 -.250E+04   -.492E-01 0.946E-01 -.280E+00   -.965E-01 0.297E-02 -.489E+00
   0.443E+00 0.201E+00 0.250E+04   -.593E+00 -.292E+00 -.250E+04   0.106E+00 -.471E-02 -.280E+00   0.494E-01 0.833E-01 -.489E+00
   0.903E-05 -.230E-04 0.250E+04   0.952E-04 0.174E-05 -.250E+04   0.145E-17 -.207E-18 -.244E+00   0.432E-02 0.263E-02 -.467E+00
   -.443E+00 0.201E+00 0.250E+04   0.593E+00 -.292E+00 -.250E+04   -.106E+00 -.471E-02 -.280E+00   -.510E-01 0.842E-01 -.488E+00
   0.476E-01 -.484E+00 0.250E+04   -.437E-01 0.659E+00 -.250E+04   0.573E-01 -.899E-01 -.280E+00   -.456E-01 -.851E-01 -.489E+00
   -.476E-01 -.484E+00 0.250E+04   0.436E-01 0.659E+00 -.250E+04   -.573E-01 -.899E-01 -.280E+00   0.474E-01 -.862E-01 -.488E+00
   0.193E-04 -.416E-04 0.250E+04   0.166E-03 -.201E-04 -.250E+04   0.170E-17 -.286E-17 -.540E+00   -.456E-02 -.236E-02 -.460E+00
   0.620E+01 0.358E+01 0.854E+03   -.580E+01 -.335E+01 -.854E+03   -.391E+00 -.226E+00 -.722E+00   0.253E-01 0.145E-01 0.418E+00
   0.140E-04 0.424E+01 0.860E+03   0.149E-03 -.432E+01 -.860E+03   0.425E-08 0.638E-01 -.203E+00   0.437E-02 -.288E-01 0.504E+00
   -.620E+01 0.358E+01 0.854E+03   0.580E+01 -.335E+01 -.854E+03   0.391E+00 -.226E+00 -.722E+00   -.272E-01 0.158E-01 0.419E+00
   0.367E+01 -.212E+01 0.860E+03   -.374E+01 0.216E+01 -.860E+03   0.553E-01 -.319E-01 -.203E+00   -.225E-01 0.185E-01 0.504E+00
   -.367E+01 -.212E+01 0.860E+03   0.374E+01 0.216E+01 -.860E+03   -.553E-01 -.319E-01 -.203E+00   0.302E-01 0.173E-01 0.504E+00
   0.310E-04 0.302E+01 0.856E+03   0.236E-03 -.312E+01 -.856E+03   -.580E-09 -.872E-02 -.473E+00   -.250E-02 0.722E-01 0.389E+00
   -.213E-04 -.716E+01 0.854E+03   0.163E-03 0.670E+01 -.854E+03   0.301E-07 0.451E+00 -.722E+00   -.175E-03 -.314E-01 0.419E+00
   0.261E+01 -.151E+01 0.856E+03   -.270E+01 0.156E+01 -.856E+03   -.755E-02 0.436E-02 -.473E+00   0.615E-01 -.378E-01 0.389E+00
   -.261E+01 -.151E+01 0.856E+03   0.270E+01 0.156E+01 -.856E+03   0.755E-02 0.436E-02 -.473E+00   -.609E-01 -.354E-01 0.390E+00
   -.415E-04 0.431E+01 -.824E+03   0.530E-04 -.461E+01 0.822E+03   0.466E-08 0.700E-01 0.571E+00   -.466E-02 0.168E+00 0.123E+01
   0.144E+02 0.832E+01 -.778E+03   -.139E+02 -.801E+01 0.776E+03   -.852E+00 -.492E+00 -.607E+00   0.399E+00 0.230E+00 0.176E+01
   -.144E+02 0.832E+01 -.778E+03   0.139E+02 -.801E+01 0.776E+03   0.852E+00 -.492E+00 -.607E+00   -.397E+00 0.230E+00 0.176E+01
   0.619E+00 -.358E+00 -.810E+03   -.111E+01 0.640E+00 0.808E+03   0.383E+00 -.221E+00 0.699E+00   0.145E+00 -.821E-01 0.129E+01
   -.133E-04 -.166E+02 -.778E+03   0.143E-03 0.160E+02 0.776E+03   0.655E-07 0.983E+00 -.607E+00   0.470E-03 -.459E+00 0.176E+01
   -.619E+00 -.358E+00 -.810E+03   0.111E+01 0.640E+00 0.808E+03   -.383E+00 -.221E+00 0.699E+00   -.146E+00 -.840E-01 0.129E+01
   -.374E+01 -.216E+01 -.824E+03   0.399E+01 0.231E+01 0.822E+03   -.606E-01 -.350E-01 0.571E+00   -.150E+00 -.866E-01 0.123E+01
   0.374E+01 -.216E+01 -.824E+03   -.399E+01 0.231E+01 0.822E+03   0.606E-01 -.350E-01 0.571E+00   0.143E+00 -.880E-01 0.123E+01
   0.924E-05 0.715E+00 -.810E+03   0.200E-03 -.128E+01 0.808E+03   0.294E-07 0.442E+00 0.699E+00   0.106E-02 0.167E+00 0.129E+01
   -.116E-04 -.124E-04 -.246E+04   0.286E-04 0.341E-04 0.246E+04   0.459E-17 0.434E-18 0.437E+00   -.391E-03 -.244E-03 0.102E+01
   0.256E+02 0.444E+02 -.244E+04   -.260E+02 -.455E+02 0.244E+04   -.136E+00 0.210E-01 0.546E+00   0.418E+00 0.663E+00 0.105E+01
   -.256E+02 0.444E+02 -.244E+04   0.260E+02 -.455E+02 0.244E+04   0.136E+00 0.210E-01 0.546E+00   -.418E+00 0.664E+00 0.105E+01
   0.512E+02 -.476E-01 -.244E+04   -.524E+02 0.182E+00 0.244E+04   -.498E-01 -.128E+00 0.546E+00   0.783E+00 0.309E-01 0.105E+01
   -.512E+02 -.475E-01 -.244E+04   0.524E+02 0.182E+00 0.244E+04   0.498E-01 -.128E+00 0.546E+00   -.784E+00 0.313E-01 0.105E+01
   0.257E+02 -.443E+02 -.244E+04   -.264E+02 0.453E+02 0.244E+04   0.862E-01 0.107E+00 0.546E+00   0.366E+00 -.694E+00 0.105E+01
   -.257E+02 -.443E+02 -.244E+04   0.264E+02 0.453E+02 0.244E+04   -.862E-01 0.107E+00 0.546E+00   -.365E+00 -.695E+00 0.105E+01
   0.301E-04 -.284E-04 -.246E+04   0.145E-03 -.495E-04 0.246E+04   0.131E-17 0.169E-17 0.618E+00   -.430E-02 -.219E-02 0.942E+00
   -.113E-04 -.205E-04 -.171E+04   0.926E-04 0.834E-05 0.171E+04   -.368E-17 -.381E-17 0.243E+00   0.260E-02 0.158E-02 0.168E+01
   0.182E-03 -.999E-04 -.165E+04   0.229E-04 0.146E-05 0.168E+04   0.569E-17 0.974E-19 -.313E+02   0.366E-02 0.224E-02 -.423E+00
 -----------------------------------------------------------------------------------------------
   -.539E-03 -.850E-03 0.110E+02   -.123E-12 0.843E-13 0.864E-11   0.114E-15 0.535E-16 -.323E+02   0.334E-02 0.264E-02 0.219E+02
 
 
 POSITION                                       TOTAL-FORCE (eV/Angst)
 -----------------------------------------------------------------------------------
      0.00000      0.00000      5.28038        -0.000000     -0.000000     -0.118683
      2.93784      0.00000      5.28038        -0.007736      0.012126     -0.067027
      5.87568      0.00000      5.28038         0.007736      0.012126     -0.067027
      1.46892      2.54424      5.28038         0.006634     -0.012762     -0.067027
      4.40676      2.54424      5.28038        -0.000000     -0.000000     -0.085014
      7.34459      2.54424      5.28038        -0.006634     -0.012762     -0.067027
      2.93784      5.08848      5.28038         0.014369      0.000636     -0.067027
      5.87568      5.08848      5.28038        -0.014369      0.000636     -0.067027
      8.81351      5.08848      5.28038        -0.000000     -0.000000     -0.090861
      1.46892      0.84808      7.67911         0.031052      0.017928      0.146438
      4.40676      0.84808      7.67911        -0.000000     -0.050751      0.049172
      7.34459      0.84808      7.67911        -0.031052      0.017928      0.146438
      2.93784      3.39232      7.67911        -0.043952      0.025375      0.049172
      5.87568      3.39232      7.67911         0.043952      0.025375      0.049172
      8.81351      3.39232      7.67911        -0.000000     -0.041327      0.089564
      4.40676      5.93656      7.67911        -0.000000     -0.035856      0.146438
      7.34459      5.93656      7.67911        -0.035790      0.020663      0.089564
     10.28243      5.93656      7.67911         0.035790      0.020663      0.089564
      8.81351      1.70038     10.08128        -0.000000     -0.056934     -0.061928
      2.93047      1.69191     10.03818         0.087832      0.050710     -0.076029
      5.88304      1.69191     10.03818        -0.087832      0.050710     -0.076029
     10.26792      4.24878     10.06124         0.038378     -0.022158     -0.033085
      4.40676      4.24891     10.03818        -0.000000     -0.101419     -0.076029
      7.35911      4.24878     10.06124        -0.038378     -0.022158     -0.033085
     11.74770      6.78254     10.08128         0.049306      0.028467     -0.061928
      5.87933      6.78254     10.08128        -0.049306      0.028467     -0.061928
      8.81351      6.76789     10.06124         0.000000      0.044315     -0.033085
      0.00000      0.00000     12.49619        -0.000000     -0.000000     -0.020668
      2.96082      0.04010     12.48308        -0.195729     -0.412679     -0.138566
      5.85269      0.04010     12.48308         0.195729     -0.412679     -0.138566
      1.51514      2.54410     12.48308        -0.455255      0.036833     -0.138566
      7.29838      2.54410     12.48308         0.455255      0.036833     -0.138566
      2.96107      5.04853     12.48308        -0.259526      0.375846     -0.138566
      5.85244      5.04853     12.48308         0.259526      0.375846     -0.138566
      8.81351      5.08848     12.49171        -0.000000     -0.000000      0.047861
      4.40676      2.54424     12.23647        -0.000000     -0.000000      1.199617
      4.40676      2.54424     14.02116        -0.000000     -0.000000     -0.041089
 -----------------------------------------------------------------------------------
    total drift:                                0.002800      0.001790      0.638048


--------------------------------------------------------------------------------------------------------



  FREE ENERGIE OF THE ION-ELECTRON SYSTEM (eV)
  ---------------------------------------------------
  free  energy   TOTEN  =      -119.65642520 eV

  energy  without entropy=     -119.65642520  energy(sigma->0) =     -119.65642520
 


--------------------------------------------------------------------------------------------------------


    POTLOK:  cpu time    0.0429: real time    0.0429


--------------------------------------------------------------------------------------------------------


 stress matrix after NEB project (eV)
    -20.02206     -0.00000     -0.00000
     -0.00000    -20.02206      0.00000
      0.00000      0.00000      2.92904
  FORCES: max atom, RMS     0.041089    0.006755
  FORCE total and by dimension    0.041089    0.041089
  Stress total and by dimension   28.466561   20.022061
     LOOP+:  cpu time   69.3879: real time   69.4187
 -----------------------------------------------------------------------------
|                                                                             |
|           W    W    AA    RRRRR   N    N  II  N    N   GGGG   !!!           |
|           W    W   A  A   R    R  NN   N  II  NN   N  G    G  !!!           |
|           W    W  A    A  R    R  N N  N  II  N N  N  G       !!!           |
|           W WW W  AAAAAA  RRRRR   N  N N  II  N  N N  G  GGG   !            |
|           WW  WW  A    A  R   R   N   NN  II  N   NN  G    G                |
|           W    W  A    A  R    R  N    N  II  N    N   GGGG   !!!           |
|                                                                             |
|     Tetrahedron method does not include variations of the Fermi             |
|     occupations, so forces and stress will be inaccurate. We suggest        |
|     using a different smearing scheme ISMEAR = 1 or 2 for metals in         |
|     relaxations.                                                            |
|                                                                             |
 -----------------------------------------------------------------------------

    4ORBIT:  cpu time    0.0000: real time    0.0000



 total charge

# of ion       s       p       d       tot
------------------------------------------
    1        0.546   0.238   8.769   9.553
    2        0.544   0.241   8.765   9.550
    3        0.544   0.241   8.765   9.550
    4        0.544   0.241   8.765   9.550
    5        0.543   0.241   8.763   9.548
    6        0.544   0.241   8.765   9.550
    7        0.544   0.241   8.765   9.550
    8        0.544   0.241   8.765   9.550
    9        0.541   0.240   8.765   9.546
   10        0.525   0.309   8.770   9.605
   11        0.519   0.311   8.777   9.607
   12        0.525   0.309   8.770   9.605
   13        0.519   0.311   8.777   9.607
   14        0.519   0.311   8.777   9.607
   15        0.515   0.308   8.779   9.602
   16        0.525   0.309   8.770   9.605
   17        0.515   0.308   8.779   9.602
   18        0.515   0.308   8.779   9.602
   19        0.516   0.303   8.776   9.595
   20        0.547   0.336   8.746   9.628
   21        0.547   0.336   8.746   9.628
   22        0.511   0.307   8.778   9.596
   23        0.547   0.336   8.746   9.628
   24        0.511   0.307   8.778   9.596
   25        0.516   0.303   8.776   9.595
   26        0.516   0.303   8.776   9.595
   27        0.511   0.307   8.778   9.596
   28        0.543   0.227   8.771   9.540
   29        0.533   0.240   8.770   9.542
   30        0.533   0.240   8.770   9.542
   31        0.533   0.240   8.770   9.542
   32        0.533   0.240   8.770   9.542
   33        0.533   0.240   8.770   9.542
   34        0.533   0.240   8.770   9.542
   35        0.535   0.230   8.769   9.534
   36        0.639   0.614   6.907   8.160
   37        1.608   3.207   0.000   4.815
--------------------------------------------------
tot         20.815  13.510 313.829 348.154
 
 BZINTS: Fermi energy:    0.665907;  400.000000 electrons
         Band energy:-0.125327E+04;  BLOECHL correction:   -0.052374

 total amount of memory used by VASP MPI-rank0   122390. kBytes
=======================================================================

   base      :      30000. kBytes
   nonlr-proj:      14005. kBytes
   fftplans  :       4330. kBytes
   grid      :      17879. kBytes
   one-center:        575. kBytes
   wavefun   :      55601. kBytes
 
  
  
 General timing and accounting informations for this job:
 ========================================================
  
                  Total CPU time used (sec):       76.706
                            User time (sec):       73.812
                          System time (sec):        2.894
                         Elapsed time (sec):       77.083
  
                   Maximum memory used (kb):      381796.
                   Average memory used (kb):          N/A
  
                          Minor page faults:        70387
                          Major page faults:            0
                 Voluntary context switches:         4777
