PROCAR new format
# of k-points:   10         # of bands:  252         # of ions:   37

 k-point     1 :    0.00000000 0.00000000 0.00000000     weight = 0.01562500

band     1 # energy  -17.64597811 # occ.  2.00000000
 
ion      s      p      d    tot
    1  0.000  0.000  0.000  0.000
    2  0.000  0.000  0.000  0.000
    3  0.000  0.000  0.000  0.000
    4  0.000  0.000  0.000  0.000
    5  0.000  0.000  0.000  0.000
    6  0.000  0.000  0.000  0.000
    7  0.000  0.000  0.000  0.000
    8  0.000  0.000  0.000  0.000
    9  0.000  0.000  0.000  0.000
   10  0.000  0.000  0.000  0.000
   11  0.000  0.000  0.000  0.000
   12  0.000  0.000  0.000  0.000
   13  0.000  0.000  0.000  0.000
   14  0.000  0.000  0.000  0.000
   15  0.000  0.000  0.000  0.000
   16  0.000  0.000  0.000  0.000
   17  0.000  0.000  0.000  0.000
   18  0.000  0.000  0.000  0.000
   19  0.000  0.000  0.000  0.000
   20  0.000  0.000  0.000  0.000
   21  0.000  0.000  0.000  0.000
   22  0.000  0.000  0.000  0.000
   23  0.000  0.000  0.000  0.000
   24  0.000  0.000  0.000  0.000
   25  0.000  0.000  0.000  0.000
   26  0.000  0.000  0.000  0.000
   27  0.000  0.000  0.000  0.000
   28  0.000  0.000  0.000  0.000
   29  0.000  0.000  0.000  0.000
   30  0.000  0.000  0.000  0.000
   31  0.000  0.000  0.000  0.000
   32  0.000  0.000  0.000  0.000
   33  0.000  0.000  0.000  0.000
   34  0.000  0.000  0.000  0.000
   35  0.000  0.000  0.000  0.000
   36  0.043  0.045  0.086  0.173
   37  0.755  0.017  0.000  0.773
tot    0.798  0.062  0.086  0.947
 
band     2 # energy   -8.18775899 # occ.  2.00000000
 
ion      s      p      d    tot
    1  0.006  0.001  0.000  0.007
    2  0.006  0.001  0.000  0.007
    3  0.006  0.001  0.000  0.007
    4  0.006  0.001  0.000  0.007
    5  0.006  0.001  0.000  0.007
    6  0.006  0.001  0.000  0.007
    7  0.006  0.001  0.000  0.007
    8  0.006  0.001  0.000  0.007
    9  0.006  0.001  0.000  0.007
   10  0.026  0.000  0.000  0.026
   11  0.026  0.000  0.000  0.026
   12  0.026  0.000  0.000  0.026
   13  0.026  0.000  0.000  0.026
   14  0.026  0.000  0.000  0.026
   15  0.025  0.000  0.000  0.026
   16  0.026  0.000  0.000  0.026
   17  0.025  0.000  0.000  0.026
   18  0.025  0.000  0.000  0.026
   19  0.024  0.000  0.000  0.024
   20  0.028  0.000  0.000  0.028
   21  0.028  0.000  0.000  0.028
   22  0.025  0.000  0.000  0.025
   23  0.028  0.000  0.000  0.028
   24  0.025  0.000  0.000  0.025
   25  0.024  0.000  0.000  0.024
   26  0.024  0.000  0.000  0.024
   27  0.025  0.000  0.000  0.025
   28  0.005  0.000  0.000  0.005
   29  0.005  0.000  0.000  0.006
   30  0.005  0.000  0.000  0.006
   31  0.005  0.000  0.000  0.006
   32  0.005  0.000  0.000  0.006
   33  0.005  0.000  0.000  0.006
   34  0.005  0.000  0.000  0.006
   35  0.005  0.000  0.000  0.006
   36  0.009  0.001  0.000  0.010
   37  0.001  0.000  0.000  0.001
tot    0.568  0.013  0.003  0.583
 
band     3 # energy   -7.02651302 # occ.  2.00000000
 
ion      s      p      d    tot
    1  0.017  0.000  0.001  0.018
    2  0.017  0.000  0.001  0.018
    3  0.017  0.000  0.001  0.018
    4  0.017  0.000  0.001  0.018
    5  0.016  0.000  0.001  0.018
    6  0.016  0.000  0.001  0.018
    7  0.017  0.000  0.001  0.018
    8  0.016  0.000  0.001  0.018
    9  0.017  0.000  0.001  0.018
   10  0.011  0.001  0.003  0.015
   11  0.011  0.001  0.003  0.015
   12  0.011  0.001  0.003  0.015
   13  0.011  0.001  0.003  0.015
   14  0.011  0.001  0.003  0.015
   15  0.012  0.001  0.002  0.016
   16  0.011  0.001  0.003  0.015
   17  0.012  0.001  0.002  0.016
   18  0.012  0.001  0.002  0.016
   19  0.011  0.001  0.003  0.016
   20  0.015  0.002  0.003  0.019
   21  0.015  0.002  0.003  0.019
   22  0.012  0.001  0.003  0.016
   23  0.015  0.002  0.003  0.019
   24  0.012  0.001  0.003  0.016
   25  0.011  0.001  0.003  0.016
   26  0.011  0.001  0.003  0.016
   27  0.012  0.001  0.003  0.016
   28  0.013  0.000  0.001  0.014
   29  0.015  0.001  0.001  0.016
   30  0.015  0.001  0.001  0.016
   31  0.015  0.001  0.001  0.016
   32  0.015  0.001  0.001  0.016
   33  0.015  0.001  0.001  0.016
   34  0.015  0.001  0.001  0.016
   35  0.013  0.000  0.001  0.014
   36  0.022  0.001  0.001  0.024
   37  0.001  0.001  0.000  0.002
tot    0.502  0.035  0.064  0.601
 
band     4 # energy   -6.10754524 # occ.  2.00000000
 
ion      s      p      d    tot
    1  0.005  0.001  0.002  0.007
    2  0.000  0.000  0.004  0.004
    3  0.000  0.000  0.004  0.004
    4  0.000  0.000  0.004  0.004
    5  0.000  0.000  0.000  0.000
    6  0.000  0.000  0.003  0.004
    7  0.000  0.000  0.004  0.004
    8  0.000  0.000  0.003  0.004
    9  0.010  0.001  0.001  0.012
   10  0.007  0.000  0.022  0.029
   11  0.004  0.002  0.010  0.016
   12  0.007  0.000  0.022  0.029
   13  0.004  0.002  0.010  0.016
   14  0.004  0.002  0.010  0.016
   15  0.021  0.002  0.005  0.028
   16  0.007  0.000  0.022  0.029
   17  0.021  0.002  0.005  0.028
   18  0.021  0.002  0.005  0.028
   19  0.000  0.001  0.024  0.025
   20  0.029  0.001  0.028  0.058
   21  0.029  0.001  0.028  0.058
   22  0.018  0.003  0.003  0.024
   23  0.029  0.001  0.028  0.058
   24  0.018  0.003  0.003  0.024
   25  0.000  0.001  0.024  0.025
   26  0.000  0.001  0.024  0.025
   27  0.018  0.003  0.003  0.024
   28  0.004  0.000  0.000  0.005
   29  0.002  0.001  0.005  0.007
   30  0.002  0.001  0.005  0.007
   31  0.002  0.001  0.005  0.007
   32  0.002  0.001  0.005  0.007
   33  0.002  0.001  0.005  0.007
   34  0.002  0.001  0.005  0.007
   35  0.014  0.001  0.000  0.015
   36  0.020  0.004  0.026  0.050
   37  0.004  0.017  0.000  0.021
tot    0.305  0.056  0.354  0.715
 
band     5 # energy   -6.04121936 # occ.  2.00000000
 
ion      s      p      d    tot
    1  0.024  0.000  0.016  0.040
    2  0.020  0.000  0.018  0.038
    3  0.020  0.000  0.018  0.038
    4  0.020  0.000  0.018  0.038
    5  0.021  0.000  0.018  0.039
    6  0.020  0.000  0.018  0.038
    7  0.020  0.000  0.018  0.038
    8  0.020  0.000  0.018  0.038
    9  0.017  0.000  0.019  0.036
   10  0.004  0.001  0.015  0.020
   11  0.005  0.001  0.014  0.020
   12  0.004  0.001  0.015  0.020
   13  0.005  0.001  0.014  0.020
   14  0.005  0.001  0.014  0.020
   15  0.009  0.001  0.013  0.023
   16  0.004  0.001  0.015  0.020
   17  0.009  0.001  0.013  0.023
   18  0.009  0.001  0.013  0.023
   19  0.001  0.001  0.001  0.002
   20  0.000  0.001  0.001  0.002
   21  0.000  0.001  0.001  0.002
   22  0.002  0.001  0.000  0.004
   23  0.000  0.001  0.001  0.002
   24  0.002  0.001  0.000  0.003
   25  0.001  0.001  0.001  0.002
   26  0.001  0.001  0.001  0.002
   27  0.002  0.001  0.000  0.004
   28  0.008  0.000  0.005  0.014
   29  0.009  0.000  0.006  0.015
   30  0.010  0.000  0.006  0.015
   31  0.009  0.000  0.006  0.015
   32  0.009  0.000  0.006  0.015
   33  0.010  0.000  0.006  0.015
   34  0.009  0.000  0.006  0.015
   35  0.007  0.000  0.006  0.012
   36  0.012  0.000  0.008  0.020
   37  0.000  0.000  0.000  0.000
tot    0.333  0.018  0.343  0.694
 
band     6 # energy   -6.04011149 # occ.  2.00000000
 
ion      s      p      d    tot
    1  0.000  0.001  0.008  0.009
    2  0.003  0.001  0.002  0.006
    3  0.000  0.000  0.003  0.004
    4  0.003  0.001  0.002  0.006
    5  0.000  0.001  0.006  0.007
    6  0.006  0.001  0.003  0.010
    7  0.000  0.000  0.003  0.004
    8  0.006  0.001  0.003  0.010
    9  0.000  0.000  0.001  0.001
   10  0.038  0.002  0.005  0.045
   11  0.012  0.003  0.019  0.034
   12  0.010  0.001  0.027  0.037
   13  0.012  0.003  0.019  0.034
   14  0.047  0.001  0.011  0.059
   15  0.000  0.002  0.007  0.009
   16  0.009  0.001  0.027  0.037
   17  0.000  0.002  0.007  0.009
   18  0.001  0.000  0.012  0.013
   19  0.003  0.003  0.006  0.012
   20  0.065  0.001  0.010  0.076
   21  0.016  0.002  0.029  0.047
   22  0.004  0.001  0.021  0.026
   23  0.016  0.002  0.029  0.047
   24  0.015  0.002  0.005  0.021
   25  0.013  0.000  0.014  0.027
   26  0.003  0.003  0.006  0.012
   27  0.004  0.001  0.021  0.026
   28  0.000  0.000  0.001  0.002
   29  0.006  0.001  0.004  0.012
   30  0.002  0.001  0.003  0.006
   31  0.006  0.001  0.004  0.012
   32  0.001  0.000  0.003  0.004
   33  0.002  0.001  0.003  0.006
   34  0.001  0.000  0.003  0.004
   35  0.000  0.000  0.004  0.004
   36  0.000  0.002  0.015  0.017
   37  0.000  0.001  0.000  0.001
tot    0.305  0.044  0.347  0.696
 
band     7 # energy   -6.04005577 # occ.  2.00000000
 
ion      s      p      d    tot
    1  0.000  0.001  0.008  0.009
    2  0.003  0.001  0.003  0.007
    3  0.006  0.001  0.003  0.010
    4  0.003  0.001  0.003  0.007
    5  0.000  0.001  0.006  0.007
    6  0.000  0.000  0.003  0.003
    7  0.006  0.001  0.003  0.010
    8  0.000  0.000  0.003  0.003
    9  0.000  0.000  0.001  0.001
   10  0.000  0.000  0.035  0.035
   11  0.035  0.001  0.014  0.051
   12  0.028  0.002  0.012  0.042
   13  0.035  0.001  0.014  0.051
   14  0.000  0.004  0.022  0.026
   15  0.000  0.001  0.010  0.012
   16  0.029  0.002  0.012  0.042
   17  0.000  0.001  0.010  0.012
   18  0.000  0.003  0.005  0.008
   19  0.009  0.001  0.011  0.022
   20  0.000  0.002  0.035  0.037
   21  0.049  0.001  0.016  0.066
   22  0.011  0.001  0.010  0.023
   23  0.049  0.001  0.016  0.066
   24  0.000  0.001  0.027  0.027
   25  0.000  0.004  0.003  0.007
   26  0.009  0.001  0.011  0.022
   27  0.011  0.001  0.010  0.023
   28  0.000  0.000  0.001  0.002
   29  0.000  0.000  0.003  0.003
   30  0.004  0.001  0.004  0.009
   31  0.000  0.000  0.003  0.003
   32  0.005  0.001  0.004  0.010
   33  0.004  0.001  0.004  0.009
   34  0.005  0.001  0.004  0.010
   35  0.000  0.000  0.004  0.004
   36  0.000  0.002  0.015  0.017
   37  0.000  0.001  0.000  0.001
tot    0.305  0.044  0.347  0.696
 
band     8 # energy   -6.00618317 # occ.  2.00000000
 
ion      s      p      d    tot
    1  0.005  0.000  0.002  0.008
    2  0.001  0.000  0.004  0.005
    3  0.001  0.000  0.004  0.005
    4  0.001  0.000  0.004  0.005
    5  0.001  0.001  0.005  0.007
    6  0.001  0.000  0.004  0.005
    7  0.001  0.000  0.004  0.005
    8  0.001  0.000  0.004  0.005
    9  0.005  0.000  0.001  0.005
   10  0.001  0.001  0.015  0.017
   11  0.019  0.001  0.007  0.027
   12  0.001  0.001  0.015  0.017
   13  0.019  0.001  0.007  0.027
   14  0.019  0.001  0.007  0.027
   15  0.000  0.000  0.020  0.020
   16  0.001  0.001  0.015  0.017
   17  0.000  0.000  0.020  0.020
   18  0.000  0.000  0.020  0.020
   19  0.026  0.001  0.012  0.039
   20  0.000  0.001  0.031  0.031
   21  0.000  0.001  0.030  0.031
   22  0.001  0.000  0.028  0.029
   23  0.000  0.001  0.030  0.031
   24  0.001  0.000  0.028  0.029
   25  0.025  0.001  0.012  0.039
   26  0.026  0.001  0.012  0.039
   27  0.001  0.000  0.028  0.029
   28  0.001  0.001  0.013  0.014
   29  0.010  0.000  0.011  0.021
   30  0.010  0.000  0.011  0.021
   31  0.010  0.000  0.011  0.021
   32  0.010  0.000  0.011  0.021
   33  0.010  0.000  0.011  0.021
   34  0.010  0.000  0.011  0.021
   35  0.014  0.000  0.005  0.019
   36  0.016  0.000  0.022  0.038
   37  0.000  0.001  0.000  0.001
tot    0.247  0.016  0.480  0.743
 
band     9 # energy   -5.99000306 # occ.  2.00000000
 
ion      s      p      d    tot
    1  0.000  0.001  0.003  0.004
    2  0.004  0.001  0.003  0.008
    3  0.000  0.000  0.003  0.004
    4  0.004  0.001  0.003  0.008
    5  0.000  0.000  0.005  0.005
    6  0.007  0.001  0.004  0.013
    7  0.000  0.000  0.003  0.004
    8  0.007  0.001  0.004  0.012
    9  0.000  0.001  0.010  0.012
   10  0.000  0.005  0.003  0.008
   11  0.008  0.001  0.011  0.020
   12  0.016  0.001  0.013  0.030
   13  0.007  0.001  0.012  0.020
   14  0.000  0.001  0.025  0.026
   15  0.047  0.001  0.014  0.063
   16  0.016  0.001  0.013  0.030
   17  0.046  0.001  0.015  0.062
   18  0.000  0.001  0.040  0.041
   19  0.031  0.002  0.011  0.043
   20  0.000  0.003  0.009  0.012
   21  0.000  0.001  0.012  0.013
   22  0.030  0.001  0.014  0.045
   23  0.000  0.001  0.012  0.013
   24  0.000  0.004  0.018  0.022
   25  0.000  0.000  0.038  0.038
   26  0.030  0.002  0.012  0.043
   27  0.031  0.001  0.014  0.045
   28  0.000  0.000  0.007  0.007
   29  0.005  0.001  0.003  0.009
   30  0.003  0.001  0.003  0.006
   31  0.005  0.001  0.003  0.009
   32  0.001  0.000  0.002  0.003
   33  0.002  0.001  0.003  0.006
   34  0.000  0.000  0.002  0.003
   35  0.000  0.001  0.004  0.005
   36  0.000  0.000  0.001  0.001
   37  0.000  0.000  0.000  0.000
tot    0.301  0.042  0.351  0.694
 
band    10 # energy   -5.98996882 # occ.  2.00000000
 
ion      s      p      d    tot
    1  0.000  0.001  0.003  0.004
    2  0.004  0.001  0.004  0.009
    3  0.008  0.001  0.004  0.012
    4  0.004  0.001  0.004  0.008
    5  0.000  0.000  0.005  0.005
    6  0.001  0.000  0.003  0.004
    7  0.007  0.001  0.004  0.012
    8  0.001  0.000  0.003  0.004
    9  0.000  0.001  0.010  0.012
   10  0.022  0.000  0.016  0.038
   11  0.002  0.001  0.021  0.024
   12  0.005  0.003  0.007  0.015
   13  0.003  0.001  0.021  0.024
   14  0.010  0.001  0.007  0.018
   15  0.015  0.001  0.032  0.048
   16  0.005  0.003  0.006  0.015
   17  0.016  0.001  0.031  0.049
   18  0.062  0.002  0.006  0.069
   19  0.010  0.001  0.029  0.040
   20  0.000  0.001  0.013  0.014
   21  0.000  0.002  0.010  0.012
   22  0.011  0.003  0.016  0.030
   23  0.000  0.002  0.010  0.012
   24  0.040  0.001  0.012  0.053
   25  0.040  0.002  0.003  0.045
   26  0.010  0.001  0.029  0.040
   27  0.010  0.003  0.016  0.029
   28  0.000  0.000  0.007  0.007
   29  0.000  0.000  0.002  0.003
   30  0.003  0.001  0.002  0.005
   31  0.000  0.000  0.002  0.003
   32  0.005  0.001  0.003  0.009
   33  0.003  0.001  0.002  0.006
   34  0.005  0.001  0.003  0.009
   35  0.000  0.001  0.004  0.005
   36  0.000  0.000  0.001  0.001
   37  0.000  0.000  0.000  0.000
tot    0.301  0.042  0.351  0.694
 
band    11 # energy   -5.98175431 # occ.  2.00000000
 
ion      s      p      d    tot
    1  0.004  0.001  0.003  0.008
    2  0.001  0.000  0.005  0.006
    3  0.001  0.000  0.005  0.006
    4  0.001  0.000  0.005  0.006
    5  0.015  0.001  0.000  0.016
    6  0.001  0.000  0.005  0.006
    7  0.001  0.000  0.005  0.006
    8  0.001  0.000  0.005  0.006
    9  0.000  0.000  0.003  0.003
   10  0.026  0.002  0.002  0.030
   11  0.009  0.000  0.026  0.035
   12  0.026  0.002  0.002  0.030
   13  0.009  0.000  0.026  0.035
   14  0.009  0.000  0.026  0.035
   15  0.000  0.001  0.019  0.020
   16  0.026  0.002  0.002  0.030
   17  0.000  0.001  0.019  0.020
   18  0.000  0.001  0.019  0.020
   19  0.009  0.002  0.015  0.025
   20  0.008  0.002  0.018  0.028
   21  0.008  0.002  0.018  0.028
   22  0.016  0.000  0.021  0.038
   23  0.008  0.002  0.018  0.028
   24  0.017  0.000  0.021  0.038
   25  0.009  0.002  0.015  0.026
   26  0.009  0.002  0.015  0.025
   27  0.016  0.000  0.021  0.038
   28  0.022  0.001  0.002  0.025
   29  0.005  0.000  0.007  0.012
   30  0.005  0.000  0.007  0.012
   31  0.005  0.000  0.007  0.012
   32  0.005  0.000  0.007  0.012
   33  0.005  0.000  0.007  0.012
   34  0.005  0.000  0.007  0.012
   35  0.000  0.001  0.010  0.011
   36  0.001  0.000  0.006  0.007
   37  0.000  0.000  0.000  0.000
tot    0.279  0.030  0.402  0.712
 
band    12 # energy   -5.59895043 # occ.  2.00000000
 
ion      s      p      d    tot
    1  0.001  0.000  0.001  0.002
    2  0.000  0.001  0.007  0.008
    3  0.000  0.001  0.007  0.008
    4  0.000  0.001  0.007  0.008
    5  0.015  0.002  0.000  0.017
    6  0.000  0.001  0.007  0.008
    7  0.000  0.001  0.007  0.008
    8  0.000  0.001  0.007  0.008
    9  0.009  0.001  0.002  0.013
   10  0.001  0.000  0.039  0.040
   11  0.009  0.002  0.004  0.014
   12  0.001  0.000  0.039  0.040
   13  0.009  0.002  0.004  0.014
   14  0.009  0.002  0.004  0.014
   15  0.016  0.002  0.021  0.039
   16  0.001  0.000  0.039  0.040
   17  0.016  0.002  0.021  0.039
   18  0.016  0.002  0.021  0.039
   19  0.009  0.001  0.019  0.029
   20  0.004  0.003  0.022  0.029
   21  0.004  0.003  0.022  0.029
   22  0.000  0.000  0.031  0.032
   23  0.004  0.003  0.022  0.029
   24  0.000  0.000  0.031  0.032
   25  0.009  0.001  0.019  0.029
   26  0.009  0.001  0.019  0.029
   27  0.000  0.000  0.031  0.032
   28  0.002  0.001  0.002  0.005
   29  0.000  0.001  0.005  0.006
   30  0.000  0.001  0.005  0.006
   31  0.000  0.001  0.005  0.006
   32  0.000  0.001  0.005  0.006
   33  0.000  0.001  0.005  0.006
   34  0.000  0.001  0.005  0.006
   35  0.003  0.000  0.000  0.003
   36  0.036  0.002  0.019  0.057
   37  0.005  0.026  0.000  0.031
tot    0.188  0.063  0.504  0.755
 
band    13 # energy   -5.54608374 # occ.  2.00000000
 
ion      s      p      d    tot
    1  0.000  0.001  0.004  0.005
    2  0.001  0.001  0.005  0.007
    3  0.010  0.001  0.005  0.016
    4  0.001  0.001  0.005  0.007
    5  0.000  0.002  0.010  0.012
    6  0.004  0.001  0.004  0.008
    7  0.010  0.001  0.005  0.016
    8  0.004  0.001  0.004  0.008
    9  0.000  0.000  0.010  0.010
   10  0.000  0.001  0.046  0.046
   11  0.018  0.001  0.020  0.039
   12  0.006  0.001  0.019  0.026
   13  0.018  0.001  0.020  0.039
   14  0.000  0.000  0.055  0.055
   15  0.003  0.000  0.020  0.023
   16  0.006  0.001  0.019  0.026
   17  0.003  0.000  0.020  0.023
   18  0.000  0.001  0.013  0.014
   19  0.003  0.000  0.018  0.021
   20  0.000  0.000  0.067  0.067
   21  0.016  0.001  0.022  0.038
   22  0.005  0.001  0.018  0.024
   23  0.016  0.001  0.022  0.038
   24  0.000  0.001  0.038  0.039
   25  0.000  0.001  0.010  0.011
   26  0.003  0.000  0.018  0.021
   27  0.005  0.001  0.018  0.024
   28  0.000  0.000  0.007  0.007
   29  0.003  0.001  0.004  0.008
   30  0.008  0.001  0.005  0.014
   31  0.003  0.001  0.004  0.008
   32  0.001  0.001  0.004  0.005
   33  0.008  0.001  0.005  0.014
   34  0.001  0.001  0.004  0.005
   35  0.000  0.000  0.003  0.003
   36  0.000  0.002  0.016  0.018
   37  0.000  0.001  0.000  0.001
tot    0.155  0.032  0.564  0.750
 
band    14 # energy   -5.54605774 # occ.  2.00000000
 
ion      s      p      d    tot
    1  0.000  0.001  0.004  0.005
    2  0.009  0.001  0.004  0.014
    3  0.000  0.000  0.005  0.005
    4  0.009  0.001  0.004  0.014
    5  0.000  0.002  0.010  0.012
    6  0.006  0.001  0.005  0.013
    7  0.000  0.000  0.005  0.005
    8  0.006  0.001  0.005  0.013
    9  0.000  0.000  0.010  0.010
   10  0.008  0.002  0.010  0.019
   11  0.006  0.000  0.043  0.050
   12  0.002  0.001  0.037  0.040
   13  0.006  0.000  0.043  0.050
   14  0.024  0.001  0.009  0.034
   15  0.001  0.001  0.015  0.017
   16  0.002  0.001  0.037  0.040
   17  0.001  0.001  0.015  0.017
   18  0.004  0.000  0.023  0.027
   19  0.001  0.001  0.012  0.014
   20  0.021  0.001  0.006  0.029
   21  0.005  0.000  0.052  0.058
   22  0.002  0.001  0.031  0.034
   23  0.005  0.000  0.052  0.057
   24  0.006  0.001  0.012  0.019
   25  0.004  0.000  0.021  0.024
   26  0.001  0.001  0.012  0.014
   27  0.002  0.001  0.031  0.034
   28  0.000  0.000  0.007  0.007
   29  0.005  0.001  0.005  0.011
   30  0.000  0.000  0.004  0.004
   31  0.005  0.001  0.005  0.011
   32  0.007  0.001  0.005  0.013
   33  0.000  0.000  0.004  0.004
   34  0.007  0.001  0.005  0.013
   35  0.000  0.000  0.003  0.003
   36  0.000  0.002  0.016  0.018
   37  0.000  0.001  0.000  0.001
tot    0.155  0.032  0.564  0.750
 
band    15 # energy   -5.53859654 # occ.  2.00000000
 
ion      s      p      d    tot
    1  0.015  0.002  0.002  0.020
    2  0.000  0.001  0.008  0.009
    3  0.000  0.001  0.008  0.009
    4  0.000  0.001  0.008  0.009
    5  0.000  0.000  0.002  0.002
    6  0.000  0.001  0.008  0.009
    7  0.000  0.001  0.008  0.009
    8  0.000  0.001  0.008  0.009
    9  0.015  0.001  0.000  0.016
   10  0.010  0.002  0.012  0.024
   11  0.003  0.000  0.042  0.046
   12  0.010  0.002  0.012  0.024
   13  0.003  0.000  0.042  0.046
   14  0.003  0.000  0.042  0.045
   15  0.002  0.001  0.025  0.029
   16  0.010  0.002  0.012  0.024
   17  0.002  0.001  0.025  0.029
   18  0.002  0.001  0.025  0.029
   19  0.004  0.001  0.012  0.017
   20  0.001  0.000  0.047  0.047
   21  0.001  0.000  0.046  0.047
   22  0.012  0.001  0.021  0.034
   23  0.001  0.000  0.046  0.047
   24  0.012  0.001  0.021  0.034
   25  0.004  0.001  0.012  0.017
   26  0.004  0.001  0.012  0.017
   27  0.012  0.001  0.021  0.034
   28  0.015  0.001  0.000  0.017
   29  0.000  0.001  0.006  0.007
   30  0.000  0.001  0.006  0.007
   31  0.000  0.001  0.006  0.007
   32  0.000  0.001  0.006  0.007
   33  0.000  0.001  0.006  0.007
   34  0.000  0.001  0.006  0.007
   35  0.005  0.001  0.004  0.010
   36  0.000  0.000  0.004  0.005
   37  0.000  0.001  0.000  0.001
tot    0.150  0.029  0.575  0.754
 
band    16 # energy   -5.50475567 # occ.  2.00000000
 
ion      s      p      d    tot
    1  0.000  0.001  0.013  0.014
    2  0.009  0.001  0.004  0.014
    3  0.000  0.000  0.005  0.006
    4  0.009  0.001  0.004  0.014
    5  0.000  0.000  0.006  0.006
    6  0.006  0.001  0.005  0.012
    7  0.000  0.000  0.005  0.005
    8  0.005  0.001  0.005  0.011
    9  0.000  0.001  0.006  0.007
   10  0.000  0.001  0.035  0.036
   11  0.000  0.001  0.020  0.021
   12  0.010  0.001  0.022  0.032
   13  0.000  0.001  0.020  0.020
   14  0.000  0.001  0.015  0.017
   15  0.011  0.002  0.019  0.032
   16  0.010  0.001  0.021  0.032
   17  0.011  0.002  0.020  0.033
   18  0.000  0.000  0.061  0.061
   19  0.015  0.001  0.019  0.035
   20  0.000  0.002  0.021  0.023
   21  0.000  0.001  0.022  0.022
   22  0.014  0.001  0.021  0.036
   23  0.000  0.001  0.022  0.022
   24  0.000  0.001  0.028  0.029
   25  0.000  0.000  0.066  0.066
   26  0.015  0.001  0.021  0.037
   27  0.015  0.001  0.021  0.036
   28  0.000  0.001  0.005  0.006
   29  0.005  0.001  0.004  0.010
   30  0.000  0.000  0.005  0.005
   31  0.005  0.001  0.004  0.010
   32  0.006  0.001  0.003  0.010
   33  0.000  0.000  0.005  0.005
   34  0.006  0.001  0.003  0.010
   35  0.000  0.001  0.009  0.010
   36  0.000  0.000  0.003  0.003
   37  0.000  0.000  0.000  0.000
tot    0.153  0.030  0.566  0.749
 
band    17 # energy   -5.50475450 # occ.  2.00000000
 
ion      s      p      d    tot
    1  0.000  0.001  0.013  0.014
    2  0.001  0.001  0.005  0.007
    3  0.009  0.001  0.005  0.015
    4  0.001  0.001  0.005  0.007
    5  0.000  0.000  0.006  0.006
    6  0.004  0.001  0.004  0.009
    7  0.009  0.001  0.004  0.015
    8  0.004  0.001  0.004  0.009
    9  0.000  0.001  0.006  0.007
   10  0.014  0.001  0.017  0.031
   11  0.000  0.001  0.017  0.018
   12  0.004  0.001  0.030  0.034
   13  0.000  0.001  0.017  0.018
   14  0.000  0.001  0.021  0.022
   15  0.003  0.001  0.048  0.052
   16  0.003  0.001  0.031  0.034
   17  0.004  0.001  0.046  0.051
   18  0.015  0.002  0.006  0.023
   19  0.005  0.001  0.052  0.057
   20  0.000  0.000  0.022  0.022
   21  0.000  0.001  0.021  0.023
   22  0.005  0.001  0.026  0.031
   23  0.000  0.001  0.021  0.023
   24  0.019  0.001  0.019  0.038
   25  0.020  0.002  0.004  0.026
   26  0.005  0.001  0.050  0.056
   27  0.004  0.001  0.026  0.031
   28  0.000  0.001  0.006  0.007
   29  0.003  0.001  0.004  0.007
   30  0.008  0.001  0.003  0.012
   31  0.002  0.000  0.004  0.007
   32  0.001  0.001  0.005  0.007
   33  0.008  0.001  0.003  0.012
   34  0.002  0.001  0.005  0.007
   35  0.000  0.001  0.009  0.010
   36  0.000  0.000  0.003  0.003
   37  0.000  0.000  0.000  0.000
tot    0.153  0.030  0.566  0.749
 
band    18 # energy   -5.20090805 # occ.  2.00000000
 
ion      s      p      d    tot
    1  0.000  0.000  0.000  0.000
    2  0.000  0.000  0.001  0.001
    3  0.000  0.000  0.001  0.001
    4  0.000  0.000  0.001  0.001
    5  0.001  0.000  0.007  0.009
    6  0.000  0.000  0.001  0.001
    7  0.000  0.000  0.001  0.001
    8  0.000  0.000  0.001  0.001
    9  0.001  0.000  0.003  0.005
   10  0.000  0.000  0.009  0.009
   11  0.000  0.001  0.048  0.049
   12  0.000  0.000  0.009  0.009
   13  0.000  0.001  0.048  0.049
   14  0.000  0.001  0.048  0.049
   15  0.000  0.000  0.021  0.022
   16  0.000  0.000  0.009  0.009
   17  0.000  0.000  0.021  0.022
   18  0.000  0.000  0.021  0.022
   19  0.000  0.000  0.015  0.015
   20  0.003  0.000  0.057  0.060
   21  0.003  0.000  0.057  0.060
   22  0.001  0.000  0.036  0.038
   23  0.003  0.000  0.057  0.060
   24  0.001  0.000  0.036  0.038
   25  0.000  0.000  0.015  0.015
   26  0.000  0.000  0.015  0.015
   27  0.001  0.000  0.036  0.038
   28  0.005  0.000  0.000  0.006
   29  0.000  0.001  0.014  0.015
   30  0.000  0.001  0.014  0.015
   31  0.000  0.001  0.014  0.015
   32  0.000  0.001  0.014  0.015
   33  0.000  0.001  0.014  0.015
   34  0.000  0.001  0.014  0.015
   35  0.018  0.001  0.004  0.023
   36  0.004  0.000  0.069  0.073
   37  0.006  0.045  0.000  0.051
tot    0.049  0.060  0.734  0.843
 
band    19 # energy   -5.17059434 # occ.  2.00000000
 
ion      s      p      d    tot
    1  0.008  0.000  0.010  0.017
    2  0.000  0.001  0.021  0.021
    3  0.000  0.001  0.021  0.021
    4  0.000  0.001  0.021  0.021
    5  0.003  0.000  0.000  0.004
    6  0.000  0.001  0.021  0.021
    7  0.000  0.001  0.021  0.021
    8  0.000  0.001  0.021  0.021
    9  0.023  0.000  0.007  0.030
   10  0.001  0.000  0.026  0.027
   11  0.000  0.000  0.016  0.016
   12  0.001  0.000  0.026  0.026
   13  0.000  0.000  0.016  0.016
   14  0.000  0.000  0.016  0.016
   15  0.000  0.000  0.034  0.035
   16  0.001  0.000  0.026  0.026
   17  0.000  0.000  0.034  0.035
   18  0.000  0.000  0.034  0.034
   19  0.000  0.000  0.032  0.032
   20  0.000  0.000  0.033  0.034
   21  0.000  0.000  0.033  0.033
   22  0.000  0.000  0.023  0.023
   23  0.000  0.000  0.033  0.033
   24  0.000  0.000  0.023  0.023
   25  0.000  0.000  0.032  0.032
   26  0.000  0.000  0.032  0.032
   27  0.000  0.000  0.023  0.023
   28  0.006  0.000  0.010  0.016
   29  0.000  0.001  0.016  0.017
   30  0.000  0.001  0.016  0.016
   31  0.000  0.001  0.016  0.017
   32  0.000  0.001  0.016  0.017
   33  0.000  0.001  0.016  0.016
   34  0.000  0.001  0.016  0.017
   35  0.004  0.000  0.001  0.005
   36  0.024  0.001  0.001  0.026
   37  0.001  0.003  0.000  0.003
tot    0.072  0.017  0.739  0.827
 
band    20 # energy   -5.15810626 # occ.  2.00000000
 
ion      s      p      d    tot
    1  0.000  0.000  0.020  0.020
    2  0.001  0.001  0.010  0.011
    3  0.005  0.000  0.014  0.019
    4  0.001  0.001  0.010  0.011
    5  0.000  0.001  0.025  0.025
    6  0.009  0.001  0.009  0.019
    7  0.005  0.000  0.014  0.019
    8  0.009  0.001  0.009  0.019
    9  0.000  0.001  0.004  0.006
   10  0.000  0.000  0.020  0.021
   11  0.000  0.000  0.050  0.050
   12  0.000  0.000  0.012  0.012
   13  0.000  0.000  0.050  0.050
   14  0.000  0.000  0.046  0.046
   15  0.000  0.000  0.027  0.027
   16  0.000  0.000  0.012  0.012
   17  0.000  0.000  0.027  0.027
   18  0.000  0.000  0.039  0.039
   19  0.000  0.000  0.008  0.008
   20  0.001  0.000  0.066  0.067
   21  0.000  0.000  0.041  0.041
   22  0.000  0.000  0.035  0.035
   23  0.000  0.000  0.041  0.041
   24  0.000  0.000  0.029  0.029
   25  0.000  0.000  0.014  0.014
   26  0.000  0.000  0.008  0.008
   27  0.000  0.000  0.035  0.035
   28  0.000  0.000  0.007  0.008
   29  0.006  0.001  0.012  0.019
   30  0.000  0.000  0.009  0.009
   31  0.006  0.001  0.012  0.019
   32  0.005  0.001  0.006  0.011
   33  0.000  0.000  0.009  0.009
   34  0.005  0.001  0.006  0.011
   35  0.000  0.000  0.017  0.017
   36  0.000  0.002  0.012  0.014
   37  0.000  0.000  0.000  0.000
tot    0.056  0.015  0.762  0.833
 
band    21 # energy   -5.15808861 # occ.  2.00000000
 
ion      s      p      d    tot
    1  0.000  0.000  0.020  0.020
    2  0.009  0.001  0.012  0.022
    3  0.005  0.001  0.008  0.014
    4  0.009  0.001  0.012  0.022
    5  0.000  0.001  0.025  0.025
    6  0.001  0.000  0.013  0.014
    7  0.005  0.001  0.008  0.014
    8  0.001  0.000  0.013  0.014
    9  0.000  0.001  0.004  0.006
   10  0.000  0.000  0.009  0.009
   11  0.000  0.000  0.047  0.048
   12  0.000  0.000  0.018  0.018
   13  0.000  0.000  0.047  0.048
   14  0.000  0.000  0.051  0.052
   15  0.000  0.000  0.035  0.035
   16  0.000  0.000  0.018  0.018
   17  0.000  0.000  0.035  0.035
   18  0.000  0.000  0.023  0.023
   19  0.000  0.000  0.012  0.012
   20  0.000  0.000  0.032  0.033
   21  0.001  0.000  0.058  0.059
   22  0.000  0.000  0.031  0.031
   23  0.001  0.000  0.058  0.059
   24  0.000  0.000  0.037  0.037
   25  0.000  0.000  0.006  0.006
   26  0.000  0.000  0.012  0.012
   27  0.000  0.000  0.031  0.031
   28  0.000  0.000  0.007  0.008
   29  0.001  0.000  0.006  0.008
   30  0.007  0.001  0.009  0.017
   31  0.001  0.000  0.006  0.008
   32  0.003  0.000  0.012  0.015
   33  0.007  0.001  0.009  0.017
   34  0.003  0.000  0.012  0.015
   35  0.000  0.000  0.017  0.017
   36  0.000  0.002  0.012  0.014