 vasp.6.2.0 18Jan21 (build Jun 12 2021 23:27:24) complex                        
  
 executed on             LinuxIFC date 2022.05.28  02:16:24
 running on   28 total cores
 distrk:  each k-point on   28 cores,    1 groups
 distr:  one band on NCORE=   1 cores,   28 groups


--------------------------------------------------------------------------------------------------------


 INCAR:
   ISMEAR = -5
   SIGMA = 0.1
   ISPIN = 1
   EDIFF = 1.d-5
   EDIFFG = -0.01
   NSW = 0
   NELM = 150
   ENCUT = 500
   ISIF = 2
   IBRION = 2
   LREAL = Auto
   ALGO = Fast
   ICHARG = 11
   LORBIT = 10
   LCHARG = .F.
   LWAVE = .F.

 POTCAR:    PAW_PBE Cu 22Jun2005                  
 POTCAR:    PAW_PBE V 08Apr2002                   
 POTCAR:    PAW_PBE O 08Apr2002                   
 POTCAR:    PAW_PBE H 15Jun2001                   
 -----------------------------------------------------------------------------
|                                                                             |
|           W    W    AA    RRRRR   N    N  II  N    N   GGGG   !!!           |
|           W    W   A  A   R    R  NN   N  II  NN   N  G    G  !!!           |
|           W    W  A    A  R    R  N N  N  II  N N  N  G       !!!           |
|           W WW W  AAAAAA  RRRRR   N  N N  II  N  N N  G  GGG   !            |
|           WW  WW  A    A  R   R   N   NN  II  N   NN  G    G                |
|           W    W  A    A  R    R  N    N  II  N    N   GGGG   !!!           |
|                                                                             |
|     For optimal performance we recommend to set                             |
|       NCORE = 2 up to number-of-cores-per-socket                            |
|     NCORE specifies how many cores store one orbital (NPAR=cpu/NCORE).      |
|     This setting can greatly improve the performance of VASP for DFT.       |
|     The default, NCORE=1 might be grossly inefficient on modern             |
|     multi-core architectures or massively parallel machines. Do your        |
|     own testing! More info at https://www.vasp.at/wiki/index.php/NCORE      |
|     Unfortunately you need to use the default for GW and RPA                |
|     calculations (for HF NCORE is supported but not extensively tested      |
|     yet).                                                                   |
|                                                                             |
 -----------------------------------------------------------------------------

 POTCAR:    PAW_PBE Cu 22Jun2005                  
   VRHFIN =Cu: d10 p1                                                                               
   LEXCH  = PE                                                                                      
   EATOM  =  1390.9808 eV,  102.2342 Ry                                                             
                                                                                                    
   TITEL  = PAW_PBE Cu 22Jun2005                                                                    
   LULTRA =        F    use ultrasoft PP ?                                                          
   IUNSCR =        1    unscreen: 0-lin 1-nonlin 2-no                                               
   RPACOR =    2.000    partial core radius                                                         
   POMASS =   63.546; ZVAL   =   11.000    mass and valenz                                          
   RCORE  =    2.300    outmost cutoff radius                                                       
   RWIGS  =    2.200; RWIGS  =    1.164    wigner-seitz radius (au A)                               
   ENMAX  =  295.446; ENMIN  =  221.585 eV                                                          
   ICORE  =        3    local potential                                                             
   LCOR   =        T    correct aug charges                                                         
   LPAW   =        T    paw PP                                                                      
   EAUG   =  586.980                                                                                
   DEXC   =    0.000                                                                                
   RMAX   =    2.344    core radius for proj-oper                                                   
   RAUG   =    1.300    factor for augmentation sphere                                              
   RDEP   =    2.302    radius for radial grids                                                     
   RDEPT  =    1.771    core radius for aug-charge                                                  
                                                                                                    
   Atomic configuration                                                                             
    9 entries                                                                                       
     n  l   j            E        occ.                                                              
     1  0  0.50     -8850.2468   2.0000                                                             
     2  0  0.50     -1062.3498   2.0000                                                             
     2  1  1.50      -916.8226   6.0000                                                             
     3  0  0.50      -114.6929   2.0000                                                             
     3  1  1.50       -72.1325   6.0000                                                             
     3  2  2.50        -5.0394  10.0000                                                             
     4  0  0.50        -4.6097   1.0000                                                             
     4  1  0.50        -4.0817   0.0000                                                             
     4  3  2.50        -1.3606   0.0000                                                             
   Description                                                                                      
     l       E           TYP  RCUT    TYP  RCUT                                                     
     2     -5.0393973     23  2.200                                                                 
     2     10.8846608     23  2.200                                                                 
     0     -4.6097109     23  2.200                                                                 
     0      8.2520465     23  2.200                                                                 
     1     -2.7211652     23  2.200                                                                 
     1     21.7055443     23  2.200                                                                 
     3      2.7211652     23  2.300                                                                 
  local pseudopotential read in
  partial core-charges read in
  partial kinetic energy density read in
  atomic valenz-charges read in
  non local Contribution for L=           2  read in
    real space projection operators read in
  non local Contribution for L=           2  read in
    real space projection operators read in
  non local Contribution for L=           0  read in
    real space projection operators read in
  non local Contribution for L=           0  read in
    real space projection operators read in
  non local Contribution for L=           1  read in
    real space projection operators read in
  non local Contribution for L=           1  read in
    real space projection operators read in
    PAW grid and wavefunctions read in
 
   number of l-projection  operators is LMAX  =           6
   number of lm-projection operators is LMMAX =          18
 
 POTCAR:    PAW_PBE V 08Apr2002                   
   VRHFIN =V: p6 d4 s1                                                                              
   LEXCH  = PE                                                                                      
   EATOM  =   170.8679 eV,   12.5584 Ry                                                             
                                                                                                    
   TITEL  = PAW_PBE V 08Apr2002                                                                     
   LULTRA =        F    use ultrasoft PP ?                                                          
   IUNSCR =        1    unscreen: 0-lin 1-nonlin 2-no                                               
   RPACOR =    2.000    partial core radius                                                         
   POMASS =   50.941; ZVAL   =    5.000    mass and valenz                                          
   RCORE  =    2.700    outmost cutoff radius                                                       
   RWIGS  =    2.500; RWIGS  =    1.323    wigner-seitz radius (au A)                               
   ENMAX  =  192.543; ENMIN  =  144.408 eV                                                          
   RCLOC  =    1.779    cutoff for local pot                                                        
   LCOR   =        T    correct aug charges                                                         
   LPAW   =        T    paw PP                                                                      
   EAUG   =  358.662                                                                                
   DEXC   =    0.000                                                                                
   RMAX   =    2.768    core radius for proj-oper                                                   
   RAUG   =    1.300    factor for augmentation sphere                                              
   RDEP   =    2.762    radius for radial grids                                                     
   RDEPT  =    2.240    core radius for aug-charge                                                  
                                                                                                    
   Atomic configuration                                                                             
    9 entries                                                                                       
     n  l   j            E        occ.                                                              
     1  0  0.50     -5360.7193   2.0000                                                             
     2  0  0.50      -598.4546   2.0000                                                             
     2  1  1.50      -499.0155   6.0000                                                             
     3  0  0.50       -66.5711   2.0000                                                             
     3  1  1.50       -40.5282   6.0000                                                             
     3  2  2.50        -2.4291   4.0000                                                             
     4  0  0.50        -3.8743   1.0000                                                             
     4  1  0.50        -2.7212   0.0000                                                             
     4  3  2.50        -1.3606   0.0000                                                             
   Description                                                                                      
     l       E           TYP  RCUT    TYP  RCUT                                                     
     2     -2.4290901     23  2.700                                                                 
     2     -3.7896727     23  2.700                                                                 
     0     -3.8742752     23  2.700                                                                 
     0     27.2116520     23  2.700                                                                 
     1     -2.7211652     23  2.700                                                                 
     1     27.2116520     23  2.700                                                                 
  local pseudopotential read in
  partial core-charges read in
  partial kinetic energy density read in
  atomic valenz-charges read in
  non local Contribution for L=           2  read in
    real space projection operators read in
  non local Contribution for L=           2  read in
    real space projection operators read in
  non local Contribution for L=           0  read in
    real space projection operators read in
  non local Contribution for L=           0  read in
    real space projection operators read in
  non local Contribution for L=           1  read in
    real space projection operators read in
  non local Contribution for L=           1  read in
    real space projection operators read in
    PAW grid and wavefunctions read in
 
   number of l-projection  operators is LMAX  =           6
   number of lm-projection operators is LMMAX =          18
 
 POTCAR:    PAW_PBE O 08Apr2002                   
   VRHFIN =O: s2p4                                                                                  
   LEXCH  = PE                                                                                      
   EATOM  =   432.3788 eV,   31.7789 Ry                                                             
                                                                                                    
   TITEL  = PAW_PBE O 08Apr2002                                                                     
   LULTRA =        F    use ultrasoft PP ?                                                          
   IUNSCR =        1    unscreen: 0-lin 1-nonlin 2-no                                               
   RPACOR =    1.200    partial core radius                                                         
   POMASS =   16.000; ZVAL   =    6.000    mass and valenz                                          
   RCORE  =    1.520    outmost cutoff radius                                                       
   RWIGS  =    1.550; RWIGS  =    0.820    wigner-seitz radius (au A)                               
   ENMAX  =  400.000; ENMIN  =  300.000 eV                                                          
   ICORE  =        2    local potential                                                             
   LCOR   =        T    correct aug charges                                                         
   LPAW   =        T    paw PP                                                                      
   EAUG   =  605.392                                                                                
   DEXC   =    0.000                                                                                
   RMAX   =    1.553    core radius for proj-oper                                                   
   RAUG   =    1.300    factor for augmentation sphere                                              
   RDEP   =    1.550    radius for radial grids                                                     
   RDEPT  =    1.329    core radius for aug-charge                                                  
                                                                                                    
   Atomic configuration                                                                             
    4 entries                                                                                       
     n  l   j            E        occ.                                                              
     1  0  0.50      -514.6923   2.0000                                                             
     2  0  0.50       -23.9615   2.0000                                                             
     2  1  0.50        -9.0305   4.0000                                                             
     3  2  1.50        -9.5241   0.0000                                                             
   Description                                                                                      
     l       E           TYP  RCUT    TYP  RCUT                                                     
     0    -23.9615318     23  1.200                                                                 
     0     -9.5240782     23  1.200                                                                 
     1     -9.0304911     23  1.520                                                                 
     1      8.1634956     23  1.520                                                                 
     2     -9.5240782      7  1.500                                                                 
  local pseudopotential read in
  partial core-charges read in
  partial kinetic energy density read in
  kinetic energy density of atom read in
  atomic valenz-charges read in
  non local Contribution for L=           0  read in
    real space projection operators read in
  non local Contribution for L=           0  read in
    real space projection operators read in
  non local Contribution for L=           1  read in
    real space projection operators read in
  non local Contribution for L=           1  read in
    real space projection operators read in
    PAW grid and wavefunctions read in
 
   number of l-projection  operators is LMAX  =           4
   number of lm-projection operators is LMMAX =           8
 
 POTCAR:    PAW_PBE H 15Jun2001                   
   VRHFIN =H: ultrasoft test                                                                        
   LEXCH  = PE                                                                                      
   EATOM  =    12.4884 eV,    0.9179 Ry                                                             
                                                                                                    
   TITEL  = PAW_PBE H 15Jun2001                                                                     
   LULTRA =        F    use ultrasoft PP ?                                                          
   IUNSCR =        0    unscreen: 0-lin 1-nonlin 2-no                                               
   RPACOR =    0.000    partial core radius                                                         
   POMASS =    1.000; ZVAL   =    1.000    mass and valenz                                          
   RCORE  =    1.100    outmost cutoff radius                                                       
   RWIGS  =    0.700; RWIGS  =    0.370    wigner-seitz radius (au A)                               
   ENMAX  =  250.000; ENMIN  =  200.000 eV                                                          
   RCLOC  =    0.701    cutoff for local pot                                                        
   LCOR   =        T    correct aug charges                                                         
   LPAW   =        T    paw PP                                                                      
   EAUG   =  400.000                                                                                
   RMAX   =    1.123    core radius for proj-oper                                                   
   RAUG   =    1.200    factor for augmentation sphere                                              
   RDEP   =    1.112    radius for radial grids                                                     
   RDEPT  =    0.926    core radius for aug-charge                                                  
                                                                                                    
   Atomic configuration                                                                             
    2 entries                                                                                       
     n  l   j            E        occ.                                                              
     1  0  0.50        -6.4927   1.0000                                                             
     2  1  0.50        -3.4015   0.0000                                                             
   Description                                                                                      
     l       E           TYP  RCUT    TYP  RCUT                                                     
     0     -6.4927494     23  1.100                                                                 
     0      6.8029130     23  1.100                                                                 
     1     -4.0817478     23  1.100                                                                 
  local pseudopotential read in
  atomic valenz-charges read in
  non local Contribution for L=           0  read in
    real space projection operators read in
  non local Contribution for L=           0  read in
    real space projection operators read in
  non local Contribution for L=           1  read in
    real space projection operators read in
    PAW grid and wavefunctions read in
 
   number of l-projection  operators is LMAX  =           3
   number of lm-projection operators is LMMAX =           5
 
 Optimization of the real space projectors (new method)

 maximal supplied QI-value         = 16.25
 optimisation between [QCUT,QGAM] = [ 11.38, 22.75] = [ 36.24,144.96] Ry 
 Optimized for a Real-space Cutoff    1.52 Angstroem

   l    n(q)    QCUT    max X(q) W(low)/X(q) W(high)/X(q)  e(spline) 
   2      9    11.376     4.610    0.21E-03    0.10E-03    0.26E-06
   2      9    11.376     8.522    0.33E-03    0.16E-03    0.37E-06
   0     10    11.376    51.609    0.62E-04    0.20E-04    0.13E-06
   0     10    11.376    27.747    0.54E-04    0.20E-04    0.13E-06
   1     10    11.376    20.408    0.13E-04    0.99E-04    0.19E-06
   1     10    11.376    13.425    0.12E-04    0.87E-04    0.17E-06
 Optimization of the real space projectors (new method)

 maximal supplied QI-value         = 13.98
 optimisation between [QCUT,QGAM] = [ 11.33, 22.79] = [ 35.93,145.49] Ry 
 Optimized for a Real-space Cutoff    1.56 Angstroem

   l    n(q)    QCUT    max X(q) W(low)/X(q) W(high)/X(q)  e(spline) 
   2     10    11.327    96.114    0.36E-03    0.35E-03    0.42E-06
   2     10    11.327    88.986    0.37E-03    0.35E-03    0.42E-06
   0     11    11.327    20.919    0.40E-04    0.56E-04    0.79E-06
   0     11    11.327     9.593    0.30E-04    0.41E-04    0.60E-06
   1     10    11.327    11.615    0.15E-03    0.10E-03    0.19E-06
   1     10    11.327     7.031    0.11E-03    0.73E-04    0.14E-06
 Optimization of the real space projectors (new method)

 maximal supplied QI-value         = 24.76
 optimisation between [QCUT,QGAM] = [ 11.39, 22.77] = [ 36.31,145.25] Ry 
 Optimized for a Real-space Cutoff    1.00 Angstroem

   l    n(q)    QCUT    max X(q) W(low)/X(q) W(high)/X(q)  e(spline) 
   0      7    11.387    20.381    0.39E-03    0.13E-02    0.15E-06
   0      7    11.387    15.268    0.42E-03    0.14E-02    0.17E-06
   1      6    11.387     5.964    0.41E-03    0.11E-02    0.17E-06
   1      6    11.387     5.382    0.39E-03    0.87E-03    0.15E-06
 Optimization of the real space projectors (new method)

 maximal supplied QI-value         = 34.20
 optimisation between [QCUT,QGAM] = [ 11.29, 22.57] = [ 35.68,142.71] Ry 
 Optimized for a Real-space Cutoff    1.16 Angstroem

   l    n(q)    QCUT    max X(q) W(low)/X(q) W(high)/X(q)  e(spline) 
   0      8    11.287    19.460    0.40E-03    0.73E-03    0.16E-06
   0      8    11.287    12.209    0.38E-03    0.70E-03    0.15E-06
   1      7    11.287     4.655    0.22E-03    0.25E-04    0.22E-06
  PAW_PBE Cu 22Jun2005                  :
 energy of atom  1       EATOM=-1390.9808
 kinetic energy error for atom=    0.0043 (will be added to EATOM!!)
  PAW_PBE V 08Apr2002                   :
 energy of atom  2       EATOM= -170.8679
 kinetic energy error for atom=    0.0003 (will be added to EATOM!!)
  PAW_PBE O 08Apr2002                   :
 energy of atom  3       EATOM= -432.3788
 kinetic energy error for atom=    0.0224 (will be added to EATOM!!)
  PAW_PBE H 15Jun2001                   :
 energy of atom  4       EATOM=  -12.4884
 kinetic energy error for atom=    0.0020 (will be added to EATOM!!)
 
 
 POSCAR: Cu-V-OOH
  positions in direct lattice
  velocities in cartesian coordinates
 exchange correlation table for  LEXCH =        8
   RHO(1)=    0.500       N(1)  =     2000
   RHO(2)=  100.500       N(2)  =     4000

 VTST: version 3.2, (02/03/18)

 CHAIN: initializing optimizer
 
 OPT: Using VASP Conjugate-Gradient optimizer
 CHAIN: Read ICHAIN            0
 
 POSCAR: Cu-V-OOH
  positions in direct lattice
  velocities in cartesian coordinates
 


--------------------------------------------------------------------------------------------------------


 ion  position               nearest neighbor table
   1  0.000  0.000  0.212-   7 2.57   3 2.57   4 2.57   2 2.57   6 2.57   8 2.57  12 2.57  10 2.57
                            16 2.57
   2  0.333  0.000  0.212-   8 2.57   9 2.57   5 2.57   1 2.57   3 2.57  11 2.57   4 2.57  10 2.57
                            17 2.57
   3  0.667  0.000  0.212-   1 2.57   7 2.57   6 2.57   9 2.57   2 2.57  12 2.57   5 2.57  18 2.57
                            11 2.57
   4  0.000  0.333  0.212-   5 2.57   6 2.57   1 2.57   7 2.57   2 2.57  13 2.57   9 2.57  10 2.57
                            15 2.57
   5  0.333  0.333  0.212-   4 2.57   2 2.57   7 2.57  13 2.57   8 2.57   6 2.57   3 2.57  11 2.57
                            14 2.57
   6  0.667  0.333  0.212-   4 2.57   9 2.57  15 2.57   3 2.57   1 2.57   8 2.57  14 2.57   5 2.57
                            12 2.57
   7  0.000  0.667  0.212-   1 2.57   3 2.57  16 2.57  18 2.57   4 2.57   5 2.57   8 2.57   9 2.57
                            13 2.57
   8  0.333  0.667  0.212-   9 2.57   2 2.57  17 2.57   6 2.57   1 2.57   7 2.57   5 2.57  14 2.57
                            16 2.57
   9  0.667  0.667  0.212-   8 2.57   6 2.57   2 2.57  17 2.57   3 2.57   7 2.57   4 2.57  15 2.57
                            18 2.57
  10  0.111  0.111  0.294-  26 2.56  19 2.56  20 2.56  11 2.57  12 2.57  13 2.57   1 2.57   2 2.57
                             4 2.57  15 2.57  16 2.57  17 2.57
  11  0.444  0.111  0.294-  20 2.56  21 2.56  10 2.57  13 2.57   2 2.57  17 2.57  14 2.57  12 2.57
                             5 2.57   3 2.57  18 2.57  27 2.57
  12  0.778  0.111  0.294-  19 2.56  25 2.56  21 2.56  15 2.57  10 2.57  14 2.57  18 2.57   3 2.57
                             1 2.57  16 2.57  11 2.57   6 2.57
  13  0.111  0.444  0.294-  23 2.56  20 2.56  16 2.57  18 2.57  10 2.57  11 2.57  14 2.57   5 2.57
                             4 2.57   7 2.57  15 2.57  22 2.57
  14  0.444  0.444  0.294-  21 2.56  23 2.56  15 2.57  17 2.57  12 2.57  16 2.57  13 2.57  11 2.57
                             6 2.57   8 2.57   5 2.57  24 2.57
  15  0.778  0.444  0.294-  19 2.56  24 2.57  22 2.57  14 2.57  17 2.57  12 2.57   6 2.57  18 2.57
                            10 2.57   9 2.57  13 2.57   4 2.57
  16  0.111  0.778  0.294-  25 2.56  26 2.56  23 2.56  18 2.57  13 2.57   7 2.57  14 2.57  17 2.57
                            12 2.57  10 2.57   8 2.57   1 2.57
  17  0.444  0.778  0.294-  26 2.56  27 2.57  24 2.57  14 2.57  15 2.57   8 2.57   9 2.57  11 2.57
                            16 2.57  18 2.57  10 2.57   2 2.57
  18  0.778  0.778  0.294-  25 2.56  22 2.57  27 2.57  16 2.57  13 2.57   7 2.57  15 2.57  12 2.57
                            17 2.57   9 2.57   3 2.57  11 2.57
  19  0.889  0.222  0.376-  12 2.56  10 2.56  15 2.56  28 2.56  25 2.56  26 2.56  21 2.57  20 2.57
                            22 2.57  24 2.57  32 2.58  31 2.58
  20  0.222  0.222  0.376-  36 2.54  11 2.56  13 2.56  10 2.56  23 2.56  21 2.56  26 2.57  19 2.57
                            27 2.57  22 2.57  29 2.57  31 2.57
  21  0.555  0.222  0.376-  36 2.54  14 2.56  11 2.56  12 2.56  20 2.56  23 2.56  19 2.57  25 2.57
                            24 2.57  27 2.57  32 2.57  30 2.57
  22  0.888  0.556  0.377-  24 2.56  27 2.56  35 2.56  18 2.57  15 2.57  19 2.57  25 2.57  31 2.57
                            33 2.57  13 2.57  23 2.57  20 2.57
  23  0.222  0.555  0.376-  36 2.54  13 2.56  14 2.56  16 2.56  20 2.56  21 2.56  25 2.57  26 2.57
                            22 2.57  24 2.57  33 2.57  34 2.57
  24  0.556  0.556  0.377-  22 2.56  27 2.56  35 2.56  15 2.57  17 2.57  19 2.57  26 2.57  32 2.57
                            34 2.57  14 2.57  21 2.57  23 2.57
  25  0.889  0.889  0.376-  12 2.56  16 2.56  18 2.56  28 2.56  19 2.56  26 2.56  21 2.57  23 2.57
                            22 2.57  27 2.57  33 2.58  30 2.58
  26  0.222  0.889  0.376-  10 2.56  16 2.56  17 2.56  28 2.56  25 2.56  19 2.56  20 2.57  23 2.57
                            27 2.57  24 2.57  29 2.58  34 2.58
  27  0.556  0.888  0.377-  24 2.56  22 2.56  35 2.56  17 2.57  18 2.57  26 2.57  25 2.57  29 2.57
                            30 2.57  11 2.57  20 2.57  21 2.57
  28  0.000  0.000  0.459-  38 2.04  25 2.56  19 2.56  26 2.56  33 2.57  30 2.57  31 2.57  29 2.57
                            32 2.57  34 2.57
  29  0.333  0.000  0.459-  30 2.56  36 2.56  31 2.56  27 2.57  35 2.57  28 2.57  20 2.57  34 2.57
                            26 2.58
  30  0.666  0.000  0.459-  29 2.56  36 2.56  32 2.56  27 2.57  35 2.57  28 2.57  21 2.57  33 2.57
                            25 2.58
  31  0.000  0.333  0.459-  38 2.03  33 2.56  36 2.56  29 2.56  22 2.57  35 2.57  28 2.57  20 2.57
                            32 2.57  19 2.58
  32  0.666  0.333  0.459-  38 2.06  37 2.16  34 2.56  36 2.56  30 2.56  24 2.57  35 2.57  28 2.57
                            21 2.57  31 2.57  19 2.58
  33  0.000  0.666  0.459-  31 2.56  36 2.56  34 2.56  22 2.57  35 2.57  28 2.57  23 2.57  30 2.57
                            25 2.58
  34  0.333  0.666  0.459-  37 2.10  32 2.56  36 2.56  33 2.56  24 2.57  35 2.57  28 2.57  23 2.57
                            29 2.57  26 2.58
  35  0.667  0.667  0.459-  24 2.56  27 2.56  22 2.56  34 2.57  32 2.57  29 2.57  30 2.57  33 2.57
                            31 2.57
  36  0.333  0.333  0.458-  37 1.71  23 2.54  20 2.54  21 2.54  31 2.56  29 2.56  33 2.56  32 2.56
                            34 2.56  30 2.56
  37  0.409  0.421  0.510-  36 1.71  34 2.10  32 2.16
  38  0.893  0.220  0.514-  39 0.97  31 2.03  28 2.04  32 2.06
  39  0.859  0.239  0.552-  38 0.97
 
  LATTYP: Found a hexagonal cell.
 ALAT       =     7.6967864036
 C/A-ratio  =     3.2973366172
  
  Lattice vectors:
  
 A1 = (  -3.8483927580,  -6.6656128093,   0.0000000000)
 A2 = (   7.6967864037,   0.0000000000,   0.0000000000)
 A3 = (   0.0000000000,   0.0000000000,  25.3788956434)


Analysis of symmetry for initial positions (statically):
=====================================================================
 Subroutine PRICEL returns:
 Original cell was already a primitive cell.
 

 Routine SETGRP: Setting up the symmetry group for a 
 hexagonal supercell.


 Subroutine GETGRP returns: Found  1 space group operations
 (whereof  1 operations were pure point group operations)
 out of a pool of 24 trial point group operations.


The static configuration has the point symmetry C_1 .


Analysis of symmetry for dynamics (positions and initial velocities):
=====================================================================
 Subroutine PRICEL returns:
 Original cell was already a primitive cell.
 

 Routine SETGRP: Setting up the symmetry group for a 
 hexagonal supercell.


 Subroutine GETGRP returns: Found  1 space group operations
 (whereof  1 operations were pure point group operations)
 out of a pool of 24 trial point group operations.


The dynamic configuration has the point symmetry C_1 .


Analysis of constrained symmetry for selective dynamics:
=====================================================================
 Subroutine PRICEL returns:
 Original cell was already a primitive cell.
 

 Routine SETGRP: Setting up the symmetry group for a 
 hexagonal supercell.


 Subroutine GETGRP returns: Found  1 space group operations
 (whereof  1 operations were pure point group operations)
 out of a pool of 24 trial point group operations.


The constrained configuration has the point symmetry C_1 .


 Subroutine INISYM returns: Found  1 space group operations
 (whereof  1 operations are pure point group operations),
 and found     1 'primitive' translations


----------------------------------------------------------------------------------------

                                     Primitive cell                                     

  volume of cell :    1302.0337

  direct lattice vectors                    reciprocal lattice vectors
     7.696786404  0.000000000  0.000000000     0.129924354 -0.075011849  0.000000000
     3.848392758  6.665612809  0.000000000     0.000000000  0.150023716  0.000000000
     0.000000000  0.000000000 25.378895643     0.000000000  0.000000000  0.039402818

  length of vectors
     7.696786404  7.696786404 25.378895643     0.150023716  0.150023716  0.039402818

  position of ions in fractional coordinates (direct lattice)
     0.000000000  0.000000000  0.211654586
     0.333333343  0.000000000  0.211654586
     0.666666687  0.000000000  0.211654586
     1.000000000  0.333333343  0.211654586
     0.333333313  0.333333343  0.211654586
     0.666666687  0.333333343  0.211654586
     1.000000000  0.666666687  0.211654586
     0.333333373  0.666666687  0.211654586
     0.666666627  0.666666687  0.211654586
     0.111111119  0.111111112  0.294195619
     0.444444418  0.111111112  0.294195619
     0.777777791  0.111111112  0.294195619
     0.111111119  0.444444448  0.294195619
     0.444444478  0.444444448  0.294195619
     0.777777731  0.444444448  0.294195619
     0.111111112  0.777777731  0.294195619
     0.444444478  0.777777731  0.294195619
     0.777777851  0.777777731  0.294195619
     0.888969867  0.222060282  0.376261557
     0.222289655  0.222289640  0.376344599
     0.555420751  0.222289640  0.376344599
     0.888491892  0.555754024  0.376751590
     0.222289625  0.555420691  0.376344599
     0.555754084  0.555754024  0.376751590
     0.888969867  0.888969867  0.376261557
     0.222060297  0.888969867  0.376261557
     0.555754024  0.888491892  0.376751590
     0.000000000  0.000000000  0.458677240
     0.333456448  0.000460112  0.459328197
     0.666083470  0.000460112  0.459328197
     0.000460112  0.333456448  0.459328197
     0.666083470  0.333456448  0.459328197
     0.000460112  0.666083470  0.459328197
     0.333456478  0.666083470  0.459328197
     0.666666627  0.666666687  0.459277723
     0.333333313  0.333333343  0.457869784
     0.409269016  0.421183765  0.509542048
     0.893465593  0.220220128  0.514296162
     0.858505171  0.238699723  0.551513443

  ion indices of the primitive-cell ions
   primitive index   ion index
                 1           1
                 2           2
                 3           3
                 4           4
                 5           5
                 6           6
                 7           7
                 8           8
                 9           9
                10          10
                11          11
                12          12
                13          13
                14          14
                15          15
                16          16
                17          17
                18          18
                19          19
                20          20
                21          21
                22          22
                23          23
                24          24
                25          25
                26          26
                27          27
                28          28
                29          29
                30          30
                31          31
                32          32
                33          33
                34          34
                35          35
                36          36
                37          37
                38          38
                39          39

----------------------------------------------------------------------------------------

 
 
 KPOINTS: Automatic mesh                          

Automatic generation of k-mesh.
 Grid dimensions read from file:
 generate k-points for:    8    8    1

 Generating k-lattice:

  Cartesian coordinates                     Fractional coordinates (reciprocal lattice)
     0.016240544 -0.009376481  0.000000000     0.125000000 -0.000000000  0.000000000
     0.000000000  0.018752964  0.000000000     0.000000000  0.125000000  0.000000000
     0.000000000  0.000000000  0.039402818     0.000000000  0.000000000  1.000000000

  Length of vectors
     0.018752964  0.018752964  0.039402818

  Shift w.r.t. Gamma in fractional coordinates (k-lattice)
     0.000000000  0.000000000  0.000000000

 TETIRR: Found    192 inequivalent tetrahedra from      384
 
 Subroutine IBZKPT returns following result:
 ===========================================
 
 Found     34 irreducible k-points:
 
 Following reciprocal coordinates:
            Coordinates               Weight
  0.000000  0.000000  0.000000      1.000000
  0.125000  0.000000  0.000000      2.000000
  0.125000  0.125000  0.000000      2.000000
  0.000000  0.125000  0.000000      2.000000
  0.250000  0.000000  0.000000      2.000000
  0.250000  0.250000  0.000000      2.000000
  0.000000  0.250000  0.000000      2.000000
  0.375000  0.000000  0.000000      2.000000
  0.375000  0.375000  0.000000      2.000000
  0.000000  0.375000  0.000000      2.000000
  0.500000  0.000000  0.000000      1.000000
  0.500000  0.500000  0.000000      1.000000
  0.000000  0.500000  0.000000      1.000000
  0.250000  0.125000  0.000000      2.000000
  0.125000  0.250000  0.000000      2.000000
 -0.125000  0.125000  0.000000      2.000000
  0.375000  0.125000  0.000000      2.000000
  0.250000  0.375000  0.000000      2.000000
 -0.125000  0.250000  0.000000      2.000000
  0.250000 -0.125000  0.000000      2.000000
 -0.125000 -0.375000  0.000000      2.000000
 -0.375000 -0.250000  0.000000      2.000000
  0.500000  0.125000  0.000000      2.000000
  0.375000  0.500000  0.000000      2.000000
 -0.125000  0.375000  0.000000      2.000000
  0.375000 -0.125000  0.000000      2.000000
 -0.125000  0.500000  0.000000      2.000000
  0.500000 -0.375000  0.000000      2.000000
  0.500000  0.250000  0.000000      2.000000
  0.250000  0.500000  0.000000      2.000000
 -0.250000  0.250000  0.000000      2.000000
 -0.375000  0.250000  0.000000      2.000000
  0.375000 -0.375000  0.000000      2.000000
 -0.250000  0.375000  0.000000      2.000000
 
 Following cartesian coordinates:
            Coordinates               Weight
  0.000000  0.000000  0.000000      1.000000
  0.016241 -0.009376  0.000000      2.000000
  0.016241  0.009376  0.000000      2.000000
  0.000000  0.018753  0.000000      2.000000
  0.032481 -0.018753  0.000000      2.000000
  0.032481  0.018753  0.000000      2.000000
  0.000000  0.037506  0.000000      2.000000
  0.048722 -0.028129  0.000000      2.000000
  0.048722  0.028129  0.000000      2.000000
  0.000000  0.056259  0.000000      2.000000
  0.064962 -0.037506  0.000000      1.000000
  0.064962  0.037506  0.000000      1.000000
  0.000000  0.075012  0.000000      1.000000
  0.032481  0.000000  0.000000      2.000000
  0.016241  0.028129  0.000000      2.000000
 -0.016241  0.028129  0.000000      2.000000
  0.048722 -0.009376  0.000000      2.000000
  0.032481  0.037506  0.000000      2.000000
 -0.016241  0.046882  0.000000      2.000000
  0.032481 -0.037506  0.000000      2.000000
 -0.016241 -0.046882  0.000000      2.000000
 -0.048722 -0.009376  0.000000      2.000000
  0.064962 -0.018753  0.000000      2.000000
  0.048722  0.046882  0.000000      2.000000
 -0.016241  0.065635  0.000000      2.000000
  0.048722 -0.046882  0.000000      2.000000
 -0.016241  0.084388  0.000000      2.000000
  0.064962 -0.093765  0.000000      2.000000
  0.064962  0.000000  0.000000      2.000000
  0.032481  0.056259  0.000000      2.000000
 -0.032481  0.056259  0.000000      2.000000
 -0.048722  0.065635  0.000000      2.000000
  0.048722 -0.084388  0.000000      2.000000
 -0.032481  0.075012  0.000000      2.000000
 


--------------------------------------------------------------------------------------------------------




 Dimension of arrays:
   k-points           NKPTS =     34   k-points in BZ     NKDIM =     34   number of bands    NBANDS=    252
   number of dos      NEDOS =    301   number of ions     NIONS =     39
   non local maximal  LDIM  =      6   non local SUM 2l+1 LMDIM =     18
   total plane-waves  NPLWV = 246960
   max r-space proj   IRMAX =   3090   max aug-charges    IRDMAX=  11701
   dimension x,y,z NGX =    42 NGY =   42 NGZ =  140
   dimension x,y,z NGXF=    84 NGYF=   84 NGZF=  280
   support grid    NGXF=    84 NGYF=   84 NGZF=  280
   ions per type =              35   1   2   1
   NGX,Y,Z   is equivalent  to a cutoff of   9.07,  9.07,  9.17 a.u.
   NGXF,Y,Z  is equivalent  to a cutoff of  18.14, 18.14, 18.34 a.u.

 SYSTEM =  unknown system                          
 POSCAR =  Cu-V-OOH                                

 Startparameter for this run:
   NWRITE =      2    write-flag & timer
   PREC   = normal    normal or accurate (medium, high low for compatibility)
   ISTART =      0    job   : 0-new  1-cont  2-samecut
   ICHARG =     11    charge: 1-file 2-atom 10-const
   ISPIN  =      1    spin polarized calculation?
   LNONCOLLINEAR =      F non collinear calculations
   LSORBIT =      F    spin-orbit coupling
   INIWAV =      1    electr: 0-lowe 1-rand  2-diag
   LASPH  =      F    aspherical Exc in radial PAW
   METAGGA=      F    non-selfconsistent MetaGGA calc.

 Electronic Relaxation 1
   ENCUT  =  500.0 eV  36.75 Ry    6.06 a.u.  14.03 14.03 46.27*2*pi/ulx,y,z
   ENINI  =  500.0     initial cutoff
   ENAUG  =  605.4 eV  augmentation charge cutoff
   NELM   =    150;   NELMIN=  2; NELMDL= -5     # of ELM steps 
   EDIFF  = 0.1E-04   stopping-criterion for ELM
   LREAL  =      T    real-space projection
   NLSPLINE    = F    spline interpolate recip. space projectors
   LCOMPAT=      F    compatible to vasp.4.4
   GGA_COMPAT  = T    GGA compatible to vasp.4.4-vasp.4.6
   LMAXPAW     = -100 max onsite density
   LMAXMIX     =    2 max onsite mixed and CHGCAR
   VOSKOWN=      0    Vosko Wilk Nusair interpolation
   ROPT   =   -0.00050  -0.00050  -0.00050  -0.00050
 Ionic relaxation
   EDIFFG = -.1E-01   stopping-criterion for IOM
   NSW    =      0    number of steps for IOM
   NBLOCK =      1;   KBLOCK =      1    inner block; outer block 
   IBRION =     -1    ionic relax: 0-MD 1-quasi-New 2-CG
   NFREE  =      1    steps in history (QN), initial steepest desc. (CG)
   ISIF   =      2    stress and relaxation
   IWAVPR =     10    prediction:  0-non 1-charg 2-wave 3-comb
   ISYM   =      2    0-nonsym 1-usesym 2-fastsym
   LCORR  =      T    Harris-Foulkes like correction to forces

   POTIM  = 0.5000    time-step for ionic-motion
   TEIN   =    0.0    initial temperature
   TEBEG  =    0.0;   TEEND  =   0.0 temperature during run
   SMASS  =  -3.00    Nose mass-parameter (am)
   estimated Nose-frequenzy (Omega)   =  0.10E-29 period in steps = 0.13E+47 mass=  -0.135E-26a.u.
   SCALEE = 1.0000    scale energy and forces
   NPACO  =    256;   APACO  = 16.0  distance and # of slots for P.C.
   PSTRESS=    0.0 pullay stress

  Mass of Ions in am
   POMASS =  63.55 50.94 16.00  1.00
  Ionic Valenz
   ZVAL   =  11.00  5.00  6.00  1.00
  Atomic Wigner-Seitz radii
   RWIGS  =  -1.00 -1.00 -1.00 -1.00
  virtual crystal weights 
   VCA    =   1.00  1.00  1.00  1.00
   NELECT =     403.0000    total number of electrons
   NUPDOWN=      -1.0000    fix difference up-down

 DOS related values:
   EMIN   =  10.00;   EMAX   =-10.00  energy-range for DOS
   EFERMI =   0.00
   ISMEAR =    -5;   SIGMA  =   0.10  broadening in eV -4-tet -1-fermi 0-gaus

 Electronic relaxation 2 (details)
   IALGO  =     68    algorithm
   LDIAG  =      T    sub-space diagonalisation (order eigenvalues)
   LSUBROT=      F    optimize rotation matrix (better conditioning)
   TURBO    =      0    0=normal 1=particle mesh
   IRESTART =      0    0=no restart 2=restart with 2 vectors
   NREBOOT  =      0    no. of reboots
   NMIN     =      0    reboot dimension
   EREF     =   0.00    reference energy to select bands
   IMIX   =      4    mixing-type and parameters
     AMIX     =   0.40;   BMIX     =  1.00
     AMIX_MAG =   1.60;   BMIX_MAG =  1.00
     AMIN     =   0.10
     WC   =   100.;   INIMIX=   1;  MIXPRE=   1;  MAXMIX= -45

 Intra band minimization:
   WEIMIN = 0.0000     energy-eigenvalue tresh-hold
   EBREAK =  0.99E-08  absolut break condition
   DEPER  =   0.30     relativ break condition  

   TIME   =   0.40     timestep for ELM

  volume/ion in A,a.u.               =      33.39       225.30
  Fermi-wavevector in a.u.,A,eV,Ry     =   1.107395  2.092673 16.685137  1.226323
  Thomas-Fermi vector in A             =   2.243908
 
 Write flags
   LWAVE        =      F    write WAVECAR
   LDOWNSAMPLE  =      F    k-point downsampling of WAVECAR
   LCHARG       =      F    write CHGCAR
   LVTOT        =      F    write LOCPOT, total local potential
   LVHAR        =      F    write LOCPOT, Hartree potential only
   LELF         =      F    write electronic localiz. function (ELF)
   LORBIT       =     10    0 simple, 1 ext, 2 COOP (PROOUT), +10 PAW based schemes


 Dipole corrections
   LMONO  =      F    monopole corrections only (constant potential shift)
   LDIPOL =      F    correct potential (dipole corrections)
   IDIPOL =      0    1-x, 2-y, 3-z, 4-all directions 
   EPSILON=  1.0000000 bulk dielectric constant

 Exchange correlation treatment:
   GGA     =    --    GGA type
   LEXCH   =     8    internal setting for exchange type
   VOSKOWN=      0    Vosko Wilk Nusair interpolation
   LHFCALC =     F    Hartree Fock is set to
   LHFONE  =     F    Hartree Fock one center treatment
   AEXX    =    0.0000 exact exchange contribution

 Linear response parameters
   LEPSILON=     F    determine dielectric tensor
   LRPA    =     F    only Hartree local field effects (RPA)
   LNABLA  =     F    use nabla operator in PAW spheres
   LVEL    =     F    velocity operator in full k-point grid
   LINTERFAST=   F  fast interpolation
   KINTER  =     0    interpolate to denser k-point grid
   CSHIFT  =0.1000    complex shift for real part using Kramers Kronig
   OMEGAMAX=  -1.0    maximum frequency
   DEG_THRESHOLD= 0.2000000E-02 threshold for treating states as degnerate
   RTIME   =   -0.100 relaxation time in fs
  (WPLASMAI=    0.000 imaginary part of plasma frequency in eV, 0.658/RTIME)
   DFIELD  = 0.0000000 0.0000000 0.0000000 field for delta impulse in time
 
 Orbital magnetization related:
   ORBITALMAG=     F  switch on orbital magnetization
   LCHIMAG   =     F  perturbation theory with respect to B field
   DQ        =  0.001000  dq finite difference perturbation B field
   LLRAUG    =     F  two centre corrections for induced B field



--------------------------------------------------------------------------------------------------------


 Static calculation
 charge density and potential remain constant during run
 non-spin polarized calculation
 RMM-DIIS sequential band-by-band and
  variant of blocked Davidson during initial phase
 perform sub-space diagonalisation
    before iterative eigenvector-optimisation
 no mixing
 using additional bands           50
 real space projection scheme for non local part
 use partial core corrections
 calculate Harris-corrections to forces 
   (improved forces if not selfconsistent)
 use gradient corrections 
 WARNING: stress and forces are not correct
  (second derivative of E(xc) not defined)
 use of overlap-Matrix (Vanderbilt PP)
 Fermi weights with tetrahedron method with Bloechl corrections


--------------------------------------------------------------------------------------------------------


  energy-cutoff  :      500.00
  volume of cell :     1302.03
      direct lattice vectors                 reciprocal lattice vectors
     7.696786404  0.000000000  0.000000000     0.129924354 -0.075011849  0.000000000
     3.848392758  6.665612809  0.000000000     0.000000000  0.150023716  0.000000000
     0.000000000  0.000000000 25.378895643     0.000000000  0.000000000  0.039402818

  length of vectors
     7.696786404  7.696786404 25.378895643     0.150023716  0.150023716  0.039402818


 
 k-points in units of 2pi/SCALE and weight: Automatic mesh                          
   0.00000000  0.00000000  0.00000000       0.016
   0.01624054 -0.00937648  0.00000000       0.031
   0.01624054  0.00937648  0.00000000       0.031
   0.00000000  0.01875296  0.00000000       0.031
   0.03248109 -0.01875296  0.00000000       0.031
   0.03248109  0.01875297  0.00000000       0.031
   0.00000000  0.03750593  0.00000000       0.031
   0.04872163 -0.02812944  0.00000000       0.031
   0.04872163  0.02812945  0.00000000       0.031
   0.00000000  0.05625889  0.00000000       0.031
   0.06496218 -0.03750592  0.00000000       0.016
   0.06496218  0.03750593  0.00000000       0.016
   0.00000000  0.07501186  0.00000000       0.016
   0.03248109  0.00000000  0.00000000       0.031
   0.01624054  0.02812945  0.00000000       0.031
  -0.01624054  0.02812945  0.00000000       0.031
   0.04872163 -0.00937648  0.00000000       0.031
   0.03248109  0.03750593  0.00000000       0.031
  -0.01624054  0.04688241  0.00000000       0.031
   0.03248109 -0.03750593  0.00000000       0.031
  -0.01624054 -0.04688241  0.00000000       0.031
  -0.04872163 -0.00937649  0.00000000       0.031
   0.06496218 -0.01875296  0.00000000       0.031
   0.04872163  0.04688241  0.00000000       0.031
  -0.01624054  0.06563537  0.00000000       0.031
   0.04872163 -0.04688241  0.00000000       0.031
  -0.01624054  0.08438834  0.00000000       0.031
   0.06496218 -0.09376482  0.00000000       0.031
   0.06496218  0.00000000  0.00000000       0.031
   0.03248109  0.05625890  0.00000000       0.031
  -0.03248109  0.05625889  0.00000000       0.031
  -0.04872163  0.06563537  0.00000000       0.031
   0.04872163 -0.08438834  0.00000000       0.031
  -0.03248109  0.07501186  0.00000000       0.031
 
 k-points in reciprocal lattice and weights: Automatic mesh                          
   0.00000000  0.00000000  0.00000000       0.016
   0.12500000  0.00000000  0.00000000       0.031
   0.12500000  0.12500000  0.00000000       0.031
   0.00000000  0.12500000  0.00000000       0.031
   0.25000000  0.00000000  0.00000000       0.031
   0.25000000  0.25000000  0.00000000       0.031
   0.00000000  0.25000000  0.00000000       0.031
   0.37500000  0.00000000  0.00000000       0.031
   0.37500000  0.37500000  0.00000000       0.031
   0.00000000  0.37500000  0.00000000       0.031
   0.50000000  0.00000000  0.00000000       0.016
   0.50000000  0.50000000  0.00000000       0.016
   0.00000000  0.50000000  0.00000000       0.016
   0.25000000  0.12500000  0.00000000       0.031
   0.12500000  0.25000000  0.00000000       0.031
  -0.12500000  0.12500000  0.00000000       0.031
   0.37500000  0.12500000  0.00000000       0.031
   0.25000000  0.37500000  0.00000000       0.031
  -0.12500000  0.25000000  0.00000000       0.031
   0.25000000 -0.12500000  0.00000000       0.031
  -0.12500000 -0.37500000  0.00000000       0.031
  -0.37500000 -0.25000000  0.00000000       0.031
   0.50000000  0.12500000  0.00000000       0.031
   0.37500000  0.50000000  0.00000000       0.031
  -0.12500000  0.37500000  0.00000000       0.031
   0.37500000 -0.12500000  0.00000000       0.031
  -0.12500000  0.50000000  0.00000000       0.031
   0.50000000 -0.37500000  0.00000000       0.031
   0.50000000  0.25000000  0.00000000       0.031
   0.25000000  0.50000000  0.00000000       0.031
  -0.25000000  0.25000000  0.00000000       0.031
  -0.37500000  0.25000000  0.00000000       0.031
   0.37500000 -0.37500000  0.00000000       0.031
  -0.25000000  0.37500000  0.00000000       0.031
 
 position of ions in fractional coordinates (direct lattice) 
   0.00000000  0.00000000  0.21165459
   0.33333334  0.00000000  0.21165459
   0.66666669  0.00000000  0.21165459
   0.00000000  0.33333334  0.21165459
   0.33333331  0.33333334  0.21165459
   0.66666669  0.33333334  0.21165459
   0.00000000  0.66666669  0.21165459
   0.33333337  0.66666669  0.21165459
   0.66666663  0.66666669  0.21165459
   0.11111112  0.11111111  0.29419562
   0.44444442  0.11111111  0.29419562
   0.77777779  0.11111111  0.29419562
   0.11111112  0.44444445  0.29419562
   0.44444448  0.44444445  0.29419562
   0.77777773  0.44444445  0.29419562
   0.11111111  0.77777773  0.29419562
   0.44444448  0.77777773  0.29419562
   0.77777785  0.77777773  0.29419562
   0.88896987  0.22206028  0.37626156
   0.22228965  0.22228964  0.37634460
   0.55542075  0.22228964  0.37634460
   0.88849189  0.55575402  0.37675159
   0.22228962  0.55542069  0.37634460
   0.55575408  0.55575402  0.37675159
   0.88896987  0.88896987  0.37626156
   0.22206030  0.88896987  0.37626156
   0.55575402  0.88849189  0.37675159
   0.00000000  0.00000000  0.45867724
   0.33345645  0.00046011  0.45932820
   0.66608347  0.00046011  0.45932820
   0.00046011  0.33345645  0.45932820
   0.66608347  0.33345645  0.45932820
   0.00046011  0.66608347  0.45932820
   0.33345648  0.66608347  0.45932820
   0.66666663  0.66666669  0.45927772
   0.33333331  0.33333334  0.45786978
   0.40926902  0.42118376  0.50954205
   0.89346559  0.22022013  0.51429616
   0.85850517  0.23869972  0.55151344
 
 position of ions in cartesian coordinates  (Angst):
   0.00000000  0.00000000  5.37155964
   2.56559554  0.00000000  5.37155964
   5.13119109  0.00000000  5.37155964
   1.28279762  2.22187100  5.37155964
   3.84839293  2.22187100  5.37155964
   6.41398872  2.22187100  5.37155964
   2.56559525  4.44374201  5.37155964
   5.13119102  4.44374201  5.37155964
   7.69678588  4.44374201  5.37155964
   1.28279775  0.74062365  7.46635991
   3.84839295  0.74062365  7.46635991
   6.41398873  0.74062365  7.46635991
   2.56559535  2.96249461  7.46635991
   5.13119101  2.96249461  7.46635991
   7.69678586  2.96249461  7.46635991
   3.84839268  5.18436521  7.46635991
   6.41398840  5.18436521  7.46635991
   8.97958418  5.18436521  7.46635991
   7.69678637  1.48016786  9.54910280
   2.56637383  1.48169667  9.55121032
   5.13041272  1.48169667  9.55121032
   8.97729207  3.70444114  9.56153928
   3.84839272  3.70221927  9.55121032
   6.41628024  3.70444114  9.56153928
  10.26331639  5.92552893  9.54910280
   5.13025587  5.92552893  9.54910280
   7.69678578  5.92234294  9.56153928
   0.00000000  0.00000000 11.64072181
   2.56831375  0.00306693 11.65724238
   5.12847289  0.00306693 11.65724238
   1.28681276  2.22269157 11.65724238
   6.40997358  2.22269157 11.65724238
   2.56689218  4.43985451 11.65724238
   5.12989409  4.43985451 11.65724238
   7.69678588  4.44374201 11.65596141
   3.84839293  2.22187100 11.62022948
   4.77093675  2.80744790 12.93161446
   7.72430737  1.46790211 13.05226863
   7.52634122  1.59107993 13.99680212
 


--------------------------------------------------------------------------------------------------------


 k-point   1 :   0.0000 0.0000 0.0000  plane waves:   33027
 k-point   2 :   0.1250 0.0000 0.0000  plane waves:   32999
 k-point   3 :   0.1250 0.1250 0.0000  plane waves:   32999
 k-point   4 :   0.0000 0.1250 0.0000  plane waves:   32999
 k-point   5 :   0.2500 0.0000 0.0000  plane waves:   33054
 k-point   6 :   0.2500 0.2500 0.0000  plane waves:   33054
 k-point   7 :   0.0000 0.2500 0.0000  plane waves:   33054
 k-point   8 :   0.3750 0.0000 0.0000  plane waves:   33036
 k-point   9 :   0.3750 0.3750 0.0000  plane waves:   33036
 k-point  10 :   0.0000 0.3750 0.0000  plane waves:   33036
 k-point  11 :   0.5000 0.0000 0.0000  plane waves:   33066
 k-point  12 :   0.5000 0.5000 0.0000  plane waves:   33066
 k-point  13 :   0.0000 0.5000 0.0000  plane waves:   33066
 k-point  14 :   0.2500 0.1250 0.0000  plane waves:   33058
 k-point  15 :   0.1250 0.2500 0.0000  plane waves:   33058
 k-point  16 :  -0.1250 0.1250 0.0000  plane waves:   33058
 k-point  17 :   0.3750 0.1250 0.0000  plane waves:   33072
 k-point  18 :   0.2500 0.3750 0.0000  plane waves:   33072
 k-point  19 :  -0.1250 0.2500 0.0000  plane waves:   33072
 k-point  20 :   0.2500-0.1250 0.0000  plane waves:   33072
 k-point  21 :  -0.1250-0.3750 0.0000  plane waves:   33072
 k-point  22 :  -0.3750-0.2500 0.0000  plane waves:   33072
 k-point  23 :   0.5000 0.1250 0.0000  plane waves:   33053
 k-point  24 :   0.3750 0.5000 0.0000  plane waves:   33053
 k-point  25 :  -0.1250 0.3750 0.0000  plane waves:   33053
 k-point  26 :   0.3750-0.1250 0.0000  plane waves:   33053
 k-point  27 :  -0.1250 0.5000 0.0000  plane waves:   33053
 k-point  28 :   0.5000-0.3750 0.0000  plane waves:   33053
 k-point  29 :   0.5000 0.2500 0.0000  plane waves:   33084
 k-point  30 :   0.2500 0.5000 0.0000  plane waves:   33084
 k-point  31 :  -0.2500 0.2500 0.0000  plane waves:   33084
 k-point  32 :  -0.3750 0.2500 0.0000  plane waves:   33108
 k-point  33 :   0.3750-0.3750 0.0000  plane waves:   33108
 k-point  34 :  -0.2500 0.3750 0.0000  plane waves:   33108

 maximum and minimum number of plane-waves per node :     33108    32999

 maximum number of plane-waves:     33108
 maximum index in each direction: 
   IXMAX=   14   IYMAX=   14   IZMAX=   46
   IXMIN=  -14   IYMIN=  -14   IZMIN=  -46


 serial   3D FFT for wavefunctions
 parallel 3D FFT for charge:
    minimum data exchange during FFTs selected (reduces bandwidth)


 total amount of memory used by VASP MPI-rank0   232096. kBytes
=======================================================================

   base      :      30000. kBytes
   nonlr-proj:      17616. kBytes
   fftplans  :       3394. kBytes
   grid      :      15015. kBytes
   one-center:        606. kBytes
   wavefun   :     165465. kBytes
 
     INWAV:  cpu time    0.0000: real time    0.0001
 initial charge density was supplied:
 number of electron     402.9999013 magnetization 
 keeping initial charge density in first step


--------------------------------------------------------------------------------------------------------


 Maximum index for non-local projection operator         2945
 Maximum index for augmentation-charges          553 (set IRDMAX)


--------------------------------------------------------------------------------------------------------


 First call to EWALD:  gamma=   0.162
 Maximum number of real-space cells 4x 4x 1
 Maximum number of reciprocal cells 2x 2x 6

    FEWALD:  cpu time    0.0012: real time    0.0012


--------------------------------------- Iteration      1(   1)  ---------------------------------------


    POTLOK:  cpu time    0.0311: real time    0.0315
    SETDIJ:  cpu time    0.0044: real time    0.0046
     EDDAV:  cpu time   22.0439: real time   22.0464
 BZINTS: Fermi energy:   12.208032;  403.000000 electrons
         Band energy: 0.228819E+04;  BLOECHL correction:   -0.033703
       DOS:  cpu time    0.0591: real time    0.0591
    --------------------------------------------
      LOOP:  cpu time   22.1385: real time   22.1416

 eigenvalue-minimisations  : 17136
 total energy-change (2. order) : 0.3576565E+04  (-0.1711791E+05)
 number of electron     402.9999013 magnetization 
 augmentation part      402.9999013 magnetization 

 Free energy of the ion-electron system (eV)
  ---------------------------------------------------
  alpha Z        PSCENC =       754.50698387
  Ewald energy   TEWEN  =    231782.69165981
  -Hartree energ DENC   =   -278828.34588966
  -exchange      EXHF   =         0.00000000
  -V(xc)+E(xc)   XCENC  =      1572.17925670
  PAW double counting   =     47013.39673778   -50738.29914003
  entropy T*S    EENTRO =         0.00000000
  eigenvalues    EBANDS =      2288.18974140
  atomic energy  EATOM  =     49732.24601609
  Solvation  Ediel_sol  =         0.00000000
  ---------------------------------------------------
  free energy    TOTEN  =      3576.56536595 eV

  energy without entropy =     3576.56536595  energy(sigma->0) =     3576.56536595


--------------------------------------------------------------------------------------------------------




--------------------------------------- Iteration      1(   2)  ---------------------------------------


     EDDAV:  cpu time   22.0242: real time   22.0252
 BZINTS: Fermi energy:    2.239021;  403.000000 electrons
         Band energy:-0.963135E+03;  BLOECHL correction:   -0.018919
       DOS:  cpu time    0.0601: real time    0.0601
    --------------------------------------------
      LOOP:  cpu time   22.0843: real time   22.0853

 eigenvalue-minimisations  : 17136
 total energy-change (2. order) :-0.3251325E+04  (-0.3127971E+04)
 number of electron     402.9999013 magnetization 
 augmentation part      402.9999013 magnetization 

 Free energy of the ion-electron system (eV)
  ---------------------------------------------------
  alpha Z        PSCENC =       754.50698387
  Ewald energy   TEWEN  =    231782.69165981
  -Hartree energ DENC   =   -278828.34588966
  -exchange      EXHF   =         0.00000000
  -V(xc)+E(xc)   XCENC  =      1572.17925670
  PAW double counting   =     47013.39673778   -50738.29914003
  entropy T*S    EENTRO =         0.00000000
  eigenvalues    EBANDS =      -963.13498936
  atomic energy  EATOM  =     49732.24601609
  Solvation  Ediel_sol  =         0.00000000
  ---------------------------------------------------
  free energy    TOTEN  =       325.24063519 eV

  energy without entropy =      325.24063519  energy(sigma->0) =      325.24063519


--------------------------------------------------------------------------------------------------------




--------------------------------------- Iteration      1(   3)  ---------------------------------------


     EDDAV:  cpu time   24.7251: real time   24.7262
 BZINTS: Fermi energy:   -0.289033;  403.000000 electrons
         Band energy:-0.139673E+04;  BLOECHL correction:   -0.027041
       DOS:  cpu time    0.0580: real time    0.0580
    --------------------------------------------
      LOOP:  cpu time   24.7831: real time   24.7841

 eigenvalue-minimisations  : 19740
 total energy-change (2. order) :-0.4335902E+03  (-0.4101690E+03)
 number of electron     402.9999013 magnetization 
 augmentation part      402.9999013 magnetization 

 Free energy of the ion-electron system (eV)
  ---------------------------------------------------
  alpha Z        PSCENC =       754.50698387
  Ewald energy   TEWEN  =    231782.69165981
  -Hartree energ DENC   =   -278828.34588966
  -exchange      EXHF   =         0.00000000
  -V(xc)+E(xc)   XCENC  =      1572.17925670
  PAW double counting   =     47013.39673778   -50738.29914003
  entropy T*S    EENTRO =         0.00000000
  eigenvalues    EBANDS =     -1396.72514704
  atomic energy  EATOM  =     49732.24601609
  Solvation  Ediel_sol  =         0.00000000
  ---------------------------------------------------
  free energy    TOTEN  =      -108.34952249 eV

  energy without entropy =     -108.34952249  energy(sigma->0) =     -108.34952249


--------------------------------------------------------------------------------------------------------




--------------------------------------- Iteration      1(   4)  ---------------------------------------


     EDDAV:  cpu time   31.6672: real time   31.6685
 BZINTS: Fermi energy:   -0.492114;  403.000000 electrons
         Band energy:-0.143609E+04;  BLOECHL correction:   -0.026624
       DOS:  cpu time    0.0559: real time    0.0559
    --------------------------------------------
      LOOP:  cpu time   31.7232: real time   31.7244

 eigenvalue-minimisations  : 26572
 total energy-change (2. order) :-0.3936696E+02  (-0.3782247E+02)
 number of electron     402.9999013 magnetization 
 augmentation part      402.9999013 magnetization 

 Free energy of the ion-electron system (eV)
  ---------------------------------------------------
  alpha Z        PSCENC =       754.50698387
  Ewald energy   TEWEN  =    231782.69165981
  -Hartree energ DENC   =   -278828.34588966
  -exchange      EXHF   =         0.00000000
  -V(xc)+E(xc)   XCENC  =      1572.17925670
  PAW double counting   =     47013.39673778   -50738.29914003
  entropy T*S    EENTRO =         0.00000000
  eigenvalues    EBANDS =     -1436.09211017
  atomic energy  EATOM  =     49732.24601609
  Solvation  Ediel_sol  =         0.00000000
  ---------------------------------------------------
  free energy    TOTEN  =      -147.71648562 eV

  energy without entropy =     -147.71648562  energy(sigma->0) =     -147.71648562


--------------------------------------------------------------------------------------------------------




--------------------------------------- Iteration      1(   5)  ---------------------------------------


     EDDAV:  cpu time   24.7440: real time   24.7449
 BZINTS: Fermi energy:   -0.496599;  403.000000 electrons
         Band energy:-0.143708E+04;  BLOECHL correction:   -0.026499
       DOS:  cpu time    0.0586: real time    0.0586
    --------------------------------------------
      LOOP:  cpu time   24.8026: real time   24.8035

 eigenvalue-minimisations  : 19768
 total energy-change (2. order) :-0.9926975E+00  (-0.9909915E+00)
 number of electron     402.9999013 magnetization 
 augmentation part      402.9999013 magnetization 

 Free energy of the ion-electron system (eV)
  ---------------------------------------------------
  alpha Z        PSCENC =       754.50698387
  Ewald energy   TEWEN  =    231782.69165981
  -Hartree energ DENC   =   -278828.34588966
  -exchange      EXHF   =         0.00000000
  -V(xc)+E(xc)   XCENC  =      1572.17925670
  PAW double counting   =     47013.39673778   -50738.29914003
  entropy T*S    EENTRO =         0.00000000
  eigenvalues    EBANDS =     -1437.08480770
  atomic energy  EATOM  =     49732.24601609
  Solvation  Ediel_sol  =         0.00000000
  ---------------------------------------------------
  free energy    TOTEN  =      -148.70918316 eV

  energy without entropy =     -148.70918316  energy(sigma->0) =     -148.70918316


--------------------------------------------------------------------------------------------------------




--------------------------------------- Iteration      1(   6)  ---------------------------------------


    EDDIAG:  cpu time    4.1916: real time    4.1950
  RMM-DIIS:  cpu time   12.4735: real time   12.4741
    ORTHCH:  cpu time    0.8076: real time    0.8076
 BZINTS: Fermi energy:   -0.496635;  403.000000 electrons
         Band energy:-0.143710E+04;  BLOECHL correction:   -0.026497
       DOS:  cpu time    0.0572: real time    0.0572
    --------------------------------------------
      LOOP:  cpu time   17.5299: real time   17.5340

 eigenvalue-minimisations  : 18360
 total energy-change (2. order) :-0.1359097E-01  (-0.1359200E-01)
 number of electron     402.9999013 magnetization 
 augmentation part      402.9999013 magnetization 

 Free energy of the ion-electron system (eV)
  ---------------------------------------------------
  alpha Z        PSCENC =       754.50698387
  Ewald energy   TEWEN  =    231782.69165981
  -Hartree energ DENC   =   -278828.34588966
  -exchange      EXHF   =         0.00000000
  -V(xc)+E(xc)   XCENC  =      1572.17925670
  PAW double counting   =     47013.39673778   -50738.29914003
  entropy T*S    EENTRO =         0.00000000
  eigenvalues    EBANDS =     -1437.09839867
  atomic energy  EATOM  =     49732.24601609
  Solvation  Ediel_sol  =         0.00000000
  ---------------------------------------------------
  free energy    TOTEN  =      -148.72277412 eV

  energy without entropy =     -148.72277412  energy(sigma->0) =     -148.72277412


--------------------------------------------------------------------------------------------------------




--------------------------------------- Iteration      1(   7)  ---------------------------------------


    EDDIAG:  cpu time    4.1944: real time    4.1947
  RMM-DIIS:  cpu time   17.2645: real time   17.2651
    ORTHCH:  cpu time    0.8089: real time    0.8089
 BZINTS: Fermi energy:   -0.496648;  403.000000 electrons
         Band energy:-0.143710E+04;  BLOECHL correction:   -0.026496
       DOS:  cpu time    0.0586: real time    0.0585
    --------------------------------------------
      LOOP:  cpu time   22.3263: real time   22.3273

 eigenvalue-minimisations  : 25828
 total energy-change (2. order) :-0.5765146E-02  (-0.5549942E-02)
 number of electron     402.9999013 magnetization 
 augmentation part      402.9999013 magnetization 

 Free energy of the ion-electron system (eV)
  ---------------------------------------------------
  alpha Z        PSCENC =       754.50698387
  Ewald energy   TEWEN  =    231782.69165981
  -Hartree energ DENC   =   -278828.34588966
  -exchange      EXHF   =         0.00000000
  -V(xc)+E(xc)   XCENC  =      1572.17925670
  PAW double counting   =     47013.39673778   -50738.29914003
  entropy T*S    EENTRO =         0.00000000
  eigenvalues    EBANDS =     -1437.10416381
  atomic energy  EATOM  =     49732.24601609
  Solvation  Ediel_sol  =         0.00000000
  ---------------------------------------------------
  free energy    TOTEN  =      -148.72853927 eV

  energy without entropy =     -148.72853927  energy(sigma->0) =     -148.72853927


--------------------------------------------------------------------------------------------------------




--------------------------------------- Iteration      1(   8)  ---------------------------------------


    EDDIAG:  cpu time    4.2071: real time    4.2074
  RMM-DIIS:  cpu time   13.8266: real time   13.8271
    ORTHCH:  cpu time    0.8077: real time    0.8078
 BZINTS: Fermi energy:   -0.496648;  403.000000 electrons
         Band energy:-0.143710E+04;  BLOECHL correction:   -0.026496
       DOS:  cpu time    0.0598: real time    0.0598
    --------------------------------------------
      LOOP:  cpu time   18.9012: real time   18.9021

 eigenvalue-minimisations  : 20971
 total energy-change (2. order) :-0.5581942E-03  (-0.5744968E-03)
 number of electron     402.9999013 magnetization 
 augmentation part      402.9999013 magnetization 

 Free energy of the ion-electron system (eV)
  ---------------------------------------------------
  alpha Z        PSCENC =       754.50698387
  Ewald energy   TEWEN  =    231782.69165981
  -Hartree energ DENC   =   -278828.34588966
  -exchange      EXHF   =         0.00000000
  -V(xc)+E(xc)   XCENC  =      1572.17925670
  PAW double counting   =     47013.39673778   -50738.29914003
  entropy T*S    EENTRO =         0.00000000
  eigenvalues    EBANDS =     -1437.10472201
  atomic energy  EATOM  =     49732.24601609
  Solvation  Ediel_sol  =         0.00000000
  ---------------------------------------------------
  free energy    TOTEN  =      -148.72909746 eV

  energy without entropy =     -148.72909746  energy(sigma->0) =     -148.72909746


--------------------------------------------------------------------------------------------------------




--------------------------------------- Iteration      1(   9)  ---------------------------------------


    EDDIAG:  cpu time    4.1941: real time    4.1944
  RMM-DIIS:  cpu time   17.3218: real time   17.3225
    ORTHCH:  cpu time    0.8076: real time    0.8077
 BZINTS: Fermi energy:   -0.496649;  403.000000 electrons
         Band energy:-0.143710E+04;  BLOECHL correction:   -0.026496
       DOS:  cpu time    0.0573: real time    0.0573
    --------------------------------------------
      LOOP:  cpu time   22.3808: real time   22.3818

 eigenvalue-minimisations  : 25636
 total energy-change (2. order) :-0.7707538E-04  (-0.7433846E-04)
 number of electron     402.9999013 magnetization 
 augmentation part      402.9999013 magnetization 

 Free energy of the ion-electron system (eV)
  ---------------------------------------------------
  alpha Z        PSCENC =       754.50698387
  Ewald energy   TEWEN  =    231782.69165981
  -Hartree energ DENC   =   -278828.34588966
  -exchange      EXHF   =         0.00000000
  -V(xc)+E(xc)   XCENC  =      1572.17925670
  PAW double counting   =     47013.39673778   -50738.29914003
  entropy T*S    EENTRO =         0.00000000
  eigenvalues    EBANDS =     -1437.10479908
  atomic energy  EATOM  =     49732.24601609
  Solvation  Ediel_sol  =         0.00000000
  ---------------------------------------------------
  free energy    TOTEN  =      -148.72917454 eV

  energy without entropy =     -148.72917454  energy(sigma->0) =     -148.72917454


--------------------------------------------------------------------------------------------------------




--------------------------------------- Iteration      1(  10)  ---------------------------------------


    EDDIAG:  cpu time    4.1960: real time    4.1963
  RMM-DIIS:  cpu time   10.1098: real time   10.1102
    ORTHCH:  cpu time    0.8079: real time    0.8079
 BZINTS: Fermi energy:   -0.496649;  403.000000 electrons
         Band energy:-0.143710E+04;  BLOECHL correction:   -0.026496
       DOS:  cpu time    0.0482: real time    0.0482
    --------------------------------------------
      LOOP:  cpu time   15.1618: real time   15.1625

 eigenvalue-minimisations  : 13423
 total energy-change (2. order) :-0.4498288E-05  (-0.4127514E-05)
 number of electron     402.9999013 magnetization 
 augmentation part      402.9999013 magnetization 

 Free energy of the ion-electron system (eV)
  ---------------------------------------------------
  alpha Z        PSCENC =       754.50698387
  Ewald energy   TEWEN  =    231782.69165981
  -Hartree energ DENC   =   -278828.34588966
  -exchange      EXHF   =         0.00000000
  -V(xc)+E(xc)   XCENC  =      1572.17925670
  PAW double counting   =     47013.39673778   -50738.29914003
  entropy T*S    EENTRO =         0.00000000
  eigenvalues    EBANDS =     -1437.10480358
  atomic energy  EATOM  =     49732.24601609
  Solvation  Ediel_sol  =         0.00000000
  ---------------------------------------------------
  free energy    TOTEN  =      -148.72917903 eV

  energy without entropy =     -148.72917903  energy(sigma->0) =     -148.72917903


--------------------------------------------------------------------------------------------------------




 average (electrostatic) potential at core
  the test charge radii are     0.9430  1.2064  0.7215  0.5201
  (the norm of the test charge is              1.0000)
       1 -71.4605       2 -71.4687       3 -71.4654       4 -71.4547       5 -71.4680
       6 -71.4470       7 -71.4578       8 -71.4511       9 -71.4735      10 -71.7264
      11 -71.7284      12 -71.7316      13 -71.7227      14 -71.7198      15 -71.7191
      16 -71.7518      17 -71.7425      18 -71.7308      19 -71.6996      20 -71.9056
      21 -71.9425      22 -71.7019      23 -71.9122      24 -71.7201      25 -71.7388
      26 -71.7385      27 -71.6523      28 -71.5676      29 -71.6109      30 -71.5513
      31 -71.7882      32 -71.7758      33 -71.5874      34 -71.6964      35 -71.4425
      36 -47.0823      37 -76.9520      38 -76.8362      39 -40.9360
 
 
 
 E-fermi :  -0.4966     XC(G=0):  -5.0572     alpha+bet : -4.5555

 Fermi energy:        -0.4966485204

 k-point     1 :       0.0000    0.0000    0.0000
  band No.  band energies     occupation 
      1     -20.5757      2.00000
      2     -19.2131      2.00000
      3      -9.4460      2.00000
      4      -9.0530      2.00000
      5      -7.8521      2.00000
      6      -6.5313      2.00000
      7      -6.4229      2.00000
      8      -6.3530      2.00000
      9      -6.3168      2.00000
     10      -6.3127      2.00000
     11      -6.2791      2.00000
     12      -6.2262      2.00000
     13      -6.0009      2.00000
     14      -5.9313      2.00000
     15      -5.7697      2.00000
     16      -5.5991      2.00000
     17      -5.5668      2.00000
     18      -5.5475      2.00000
     19      -5.5113      2.00000
     20      -5.3829      2.00000
     21      -5.3057      2.00000
     22      -5.2449      2.00000
     23      -5.1603      2.00000
     24      -5.0961      2.00000
     25      -4.8569      2.00000
     26      -4.8115      2.00000
     27      -4.7717      2.00000
     28      -4.7004      2.00000
     29      -4.6725      2.00000
     30      -4.6280      2.00000
     31      -4.5767      2.00000
     32      -4.5698      2.00000
     33      -4.5535      2.00000
     34      -4.5331      2.00000
     35      -4.5106      2.00000
     36      -4.4935      2.00000
     37      -4.4065      2.00000
     38      -4.3950      2.00000
     39      -4.3762      2.00000
     40      -4.3743      2.00000
     41      -4.3700      2.00000
     42      -4.3635      2.00000
     43      -4.3500      2.00000
     44      -4.3394      2.00000
     45      -4.3366      2.00000
     46      -4.3102      2.00000
     47      -4.2722      2.00000
     48      -4.2611      2.00000
     49      -4.2359      2.00000
     50      -4.2174      2.00000
     51      -4.2140      2.00000
     52      -4.1930      2.00000
     53      -4.1084      2.00000
     54      -4.1000      2.00000
     55      -4.0800      2.00000
     56      -4.0503      2.00000
     57      -4.0419      2.00000
     58      -4.0408      2.00000
     59      -3.9970      2.00000
     60      -3.9800      2.00000
     61      -3.9658      2.00000
     62      -3.8895      2.00000
     63      -3.7201      2.00000
     64      -3.7071      2.00000
     65      -3.6954      2.00000
     66      -3.6921      2.00000
     67      -3.6792      2.00000
     68      -3.6573      2.00000
     69      -3.6301      2.00000
     70      -3.6250      2.00000
     71      -3.6189      2.00000
     72      -3.5894      2.00000
     73      -3.5803      2.00000
     74      -3.5760      2.00000
     75      -3.5625      2.00000
     76      -3.5503      2.00000
     77      -3.5373      2.00000
     78      -3.5301      2.00000
     79      -3.4943      2.00000
     80      -3.4740      2.00000
     81      -3.4576      2.00000
     82      -3.4545      2.00000
     83      -3.4003      2.00000
[...]
  0.000   0.000   0.000   0.000   0.000   0.000   0.000   0.000   0.000   0.000   1.000   0.000   0.000   0.000   0.000   0.000
  0.000   0.000   0.000   0.000   0.000   0.000   0.000   0.000   0.000   0.000   0.000   0.000   0.000   0.000   0.000   0.000
  0.000   0.000   0.000   0.000   0.000   0.000   0.000   0.000   0.000   0.000   0.000   0.000   0.000   0.000   0.000   0.000
  0.000   0.000   0.000   0.000   0.000   0.000   0.000   0.000   0.000   0.000   0.000   0.000   0.000   0.000   0.000   0.000
  0.000   0.000   0.000   0.000   0.000   0.000   0.000   0.000   0.000   0.000   0.000   0.000   0.000   0.000   0.000   0.000
  0.000   0.000   0.000   0.000   0.000   0.000   0.000   0.000   0.000   0.000   0.000   0.000   0.000   0.000   0.000   0.000
  0.000   0.000   0.000   0.000   0.000   0.000   0.000   0.000   0.000   0.000   0.000   0.000   0.000   0.000   0.000   0.000
  0.000   0.000   0.000   0.000   0.000   0.000   0.000   0.000   0.000   0.000   0.000   0.000   0.000   0.000   0.000   0.000


------------------------ aborting loop because EDIFF is reached ----------------------------------------





 total charge

# of ion       s       p       d       tot
------------------------------------------
    1        0.448   0.284   9.188   9.920
    2        0.446   0.287   9.185   9.918
    3        0.447   0.287   9.184   9.919
    4        0.448   0.286   9.185   9.919
    5        0.448   0.285   9.184   9.917
    6        0.449   0.283   9.188   9.920
    7        0.448   0.285   9.186   9.919
    8        0.449   0.283   9.188   9.920
    9        0.446   0.285   9.186   9.917
   10        0.444   0.369   9.180   9.992
   11        0.439   0.370   9.181   9.989
   12        0.444   0.370   9.178   9.992
   13        0.442   0.367   9.182   9.991
   14        0.440   0.368   9.182   9.990
   15        0.440   0.368   9.179   9.988
   16        0.442   0.372   9.176   9.990
   17        0.438   0.372   9.175   9.985
   18        0.439   0.371   9.177   9.987
   19        0.442   0.372   9.182   9.996
   20        0.460   0.393   9.162  10.015
   21        0.456   0.405   9.151  10.012
   22        0.434   0.374   9.180   9.987
   23        0.463   0.392   9.161  10.016
   24        0.432   0.379   9.176   9.986
   25        0.440   0.372   9.176   9.989
   26        0.437   0.376   9.174   9.987
   27        0.436   0.367   9.187   9.991
   28        0.412   0.331   9.198   9.941
   29        0.472   0.304   9.172   9.947
   30        0.462   0.293   9.191   9.946
   31        0.442   0.354   9.167   9.963
   32        0.405   0.369   9.191   9.965
   33        0.463   0.295   9.184   9.942
   34        0.429   0.333   9.189   9.950
   35        0.444   0.281   9.202   9.927
   36        0.580   0.772   3.656   5.008
   37        1.596   3.331   0.000   4.927
   38        1.549   3.534   0.000   5.083
   39        0.608   0.120   0.000   0.728
--------------------------------------------------
tot         19.860  19.639 324.982 364.482
 
    CHARGE:  cpu time    0.8231: real time    0.8233
    FORLOC:  cpu time    0.0097: real time    0.0097
    FORNL :  cpu time    4.3900: real time    4.3903
    STRESS:  cpu time   13.1530: real time   13.1536
    FORCOR:  cpu time    0.0325: real time    0.0326
    FORHAR:  cpu time    0.0144: real time    0.0145
    OFIELD:  cpu time    0.0002: real time    0.0002

  FORCE on cell =-STRESS in cart. coord.  units (eV):
  Direction    XX          YY          ZZ          XY          YZ          ZX
  --------------------------------------------------------------------------------------
  Alpha Z   754.50698   754.50698   754.50698
  Ewald  257594.83216257624.31396************   -59.51916   -32.31760   -78.32706
  Hartree270339.92022270383.68673************   -65.93032   -44.23912   -73.97019
  E(xc)   -2332.56104 -2332.59432 -2336.22424    -0.09707    -0.21349    -0.49544
  Local  ************************540913.36847   126.48538    80.90299   150.08220
  n-local  -801.81459  -802.47904  -815.16417     1.22430     1.05259     2.34010
  augment  3341.16644  3342.01954  3356.80690    -0.39860    -0.64346    -0.58423
  Kinetic  3443.03357  3444.05437  3443.96965    -1.17193    -4.32313     1.29580
  Fock        0.00000     0.00000     0.00000     0.00000     0.00000     0.00000
  -------------------------------------------------------------------------------------
  Total      -2.34378    -2.91114    -0.91202     0.59259     0.21877     0.34118
  in kB      -2.88407    -3.58222    -1.12225     0.72920     0.26921     0.41983
  external pressure =       -2.53 kB  Pullay stress =        0.00 kB


 VOLUME and BASIS-vectors are now :
 -----------------------------------------------------------------------------
  energy-cutoff  :      500.00
  volume of cell :     1302.03
      direct lattice vectors                 reciprocal lattice vectors
     7.696786404  0.000000000  0.000000000     0.129924354 -0.075011849  0.000000000
     3.848392758  6.665612809  0.000000000     0.000000000  0.150023716  0.000000000
     0.000000000  0.000000000 25.378895643     0.000000000  0.000000000  0.039402818

  length of vectors
     7.696786404  7.696786404 25.378895643     0.150023716  0.150023716  0.039402818


 FORCES acting on ions
    electron-ion (+dipol)            ewald-force                    non-local-force                 convergence-correction
 -----------------------------------------------------------------------------------------------
   -.993E-01 0.207E+00 0.389E+04   0.501E-01 -.249E+00 -.389E+04   0.428E-01 0.492E-01 -.236E+01   0.121E-01 -.717E-02 -.261E+00
   -.973E+00 -.575E+00 0.389E+04   0.777E+00 0.485E+00 -.389E+04   0.137E+00 0.165E+00 -.197E+01   0.677E-01 -.709E-01 -.259E+00
   0.961E+00 -.262E+00 0.389E+04   -.827E+00 0.274E+00 -.389E+04   -.991E-01 0.106E-01 -.189E+01   -.415E-01 -.323E-01 -.313E+00
   -.109E+01 -.508E+00 0.389E+04   0.105E+01 0.334E+00 -.389E+04   0.960E-01 0.507E-01 -.164E+01   -.358E-01 0.115E+00 -.234E+00
   0.147E+00 -.129E-01 0.389E+04   -.211E+00 -.836E-01 -.388E+04   -.159E-01 0.207E-01 -.185E+01   0.626E-01 0.658E-01 -.214E+00
   0.967E+00 -.505E+00 0.389E+04   -.837E+00 0.271E+00 -.389E+04   -.113E+00 0.602E-01 -.181E+01   -.231E-01 0.156E+00 -.246E+00
   -.620E-01 0.905E+00 0.389E+04   0.603E-01 -.755E+00 -.389E+04   0.322E-01 -.104E+00 -.191E+01   -.358E-01 -.460E-01 -.260E+00
   0.254E+00 0.950E+00 0.389E+04   -.218E+00 -.602E+00 -.389E+04   -.110E+00 -.222E+00 -.199E+01   0.677E-01 -.115E+00 -.233E+00
   -.811E-01 -.168E+00 0.389E+04   0.157E+00 0.325E+00 -.389E+04   -.511E-02 -.679E-01 -.218E+01   -.729E-01 -.689E-01 -.312E+00
   -.682E+01 -.171E+01 0.136E+04   0.710E+01 0.200E+01 -.135E+04   -.257E+00 -.236E+00 -.724E+00   -.301E-01 -.509E-01 -.293E+00
   0.982E+00 -.366E+01 0.134E+04   -.877E+00 0.353E+01 -.134E+04   -.954E-01 0.625E-01 -.789E-01   -.131E-01 0.574E-01 -.300E+00
   0.576E+01 -.585E+00 0.136E+04   -.622E+01 0.685E+00 -.136E+04   0.433E+00 -.159E+00 -.104E+01   0.415E-01 0.717E-01 -.300E+00
   -.472E+01 0.193E+01 0.134E+04   0.433E+01 -.197E+01 -.134E+04   0.268E+00 0.137E-01 -.373E+00   0.831E-01 0.350E-01 -.294E+00
   0.636E+01 0.194E+01 0.135E+04   -.588E+01 -.185E+01 -.135E+04   -.440E+00 -.152E+00 -.558E+00   -.485E-02 0.689E-01 -.298E+00
   -.149E+01 -.323E+01 0.136E+04   0.155E+01 0.303E+01 -.136E+04   0.495E-02 0.108E+00 -.869E+00   -.688E-01 0.830E-01 -.326E+00
   0.582E+00 0.606E+01 0.135E+04   -.703E+00 -.622E+01 -.135E+04   0.455E-01 0.257E+00 -.108E+01   0.869E-01 -.906E-01 -.297E+00
   -.219E+01 -.109E+01 0.135E+04   0.195E+01 0.109E+01 -.135E+04   0.189E+00 0.488E-01 -.940E+00   0.144E-01 -.829E-01 -.326E+00
   0.148E+01 0.367E+00 0.135E+04   -.125E+01 -.295E+00 -.135E+04   -.124E+00 0.273E-02 -.627E+00   -.648E-01 -.782E-01 -.295E+00
   -.797E+01 -.367E+01 -.115E+04   0.771E+01 0.361E+01 0.115E+04   0.212E+00 0.764E-01 0.438E+00   0.210E-01 0.461E-01 0.120E-01
   -.574E+02 -.256E+02 -.125E+04   0.576E+02 0.253E+02 0.125E+04   -.479E+00 0.131E+00 -.906E-01   -.650E-02 0.128E+00 0.119E+00
   0.644E+02 -.159E+02 -.123E+04   -.652E+02 0.161E+02 0.123E+04   0.907E+00 -.334E+00 -.595E+00   -.275E-02 0.125E+00 0.912E-01
   -.309E+02 0.197E+01 -.120E+04   0.305E+02 -.176E+01 0.120E+04   0.375E+00 -.185E+00 0.702E+00   0.554E-01 -.102E+00 0.223E-01
   0.120E+02 0.524E+02 -.124E+04   -.120E+02 -.537E+02 0.124E+04   0.178E-01 0.142E+01 -.445E+00   0.124E-02 -.609E-01 0.130E+00
   0.193E+02 -.398E+01 -.118E+04   -.186E+02 0.407E+01 0.118E+04   -.593E+00 -.114E+00 0.164E+00   -.711E-01 -.261E-01 -.291E-01
   0.146E+02 0.155E+02 -.118E+04   -.146E+02 -.153E+02 0.118E+04   0.130E-01 -.104E+00 0.718E+00   0.258E-01 -.169E-01 0.417E-01
   -.140E+02 0.587E+01 -.118E+04   0.138E+02 -.584E+01 0.118E+04   0.128E+00 0.101E-01 0.856E+00   -.323E-02 -.632E-01 -.444E-01
   -.561E+00 -.279E+02 -.121E+04   0.752E+00 0.278E+02 0.121E+04   -.141E+00 0.643E-01 0.117E+01   -.475E-01 -.111E-01 -.571E-01
   -.529E+01 0.148E+03 -.359E+04   0.506E+01 -.152E+03 0.359E+04   0.253E+00 0.379E+01 0.332E+01   -.483E-01 0.352E-01 0.303E+00
   -.831E+02 -.570E+02 -.372E+04   0.846E+02 0.576E+02 0.372E+04   -.139E+01 -.103E+01 0.186E+01   0.303E-01 0.207E+00 0.315E+00
   0.883E+02 -.112E+02 -.371E+04   -.901E+02 0.104E+02 0.371E+04   0.150E+01 0.340E+00 0.278E+01   0.261E-01 0.625E-01 0.315E+00
   -.224E+03 -.698E+02 -.360E+04   0.229E+03 0.719E+02 0.360E+04   -.459E+01 -.185E+01 0.325E+01   0.225E+00 0.411E-01 0.363E+00
   0.107E+03 -.263E+02 -.352E+04   -.107E+03 0.263E+02 0.351E+04   0.432E-02 -.660E-01 0.473E+01   -.120E+00 0.362E-01 0.311E+00
   -.126E+02 0.579E+02 -.372E+04   0.114E+02 -.580E+02 0.372E+04   0.861E+00 0.503E+00 0.214E+01   0.507E-01 -.177E+00 0.287E+00
   0.311E+02 -.494E+02 -.364E+04   -.304E+02 0.534E+02 0.363E+04   -.564E+00 -.331E+01 0.397E+01   -.104E+00 -.226E+00 0.229E+00
   -.286E+02 -.672E+02 -.372E+04   0.284E+02 0.686E+02 0.372E+04   0.290E+00 -.987E+00 0.313E+01   0.603E-01 -.762E-01 0.317E+00
   0.756E+02 0.444E+02 -.159E+04   -.754E+02 -.445E+02 0.159E+04   -.363E+00 0.510E-01 -.133E-02   -.243E-01 0.446E-01 0.136E+00
   0.888E+02 0.250E+02 -.250E+04   -.832E+02 -.218E+02 0.252E+04   -.545E+01 -.308E+01 -.246E+02   -.141E+00 -.979E-01 -.134E+00
   -.332E+02 0.161E+02 -.254E+04   0.417E+02 -.217E+02 0.252E+04   -.850E+01 0.561E+01 0.202E+02   0.329E-01 0.139E-01 0.613E-01
   0.125E+02 -.840E+01 -.476E+03   -.141E+02 0.943E+01 0.484E+03   0.165E+01 -.102E+01 -.797E+01   0.312E-02 0.732E-03 -.630E-03
 -----------------------------------------------------------------------------------------------
   0.159E+02 0.278E+00 0.105E+02   0.355E-13 0.355E-13 0.102E-11   -.159E+02 -.179E+00 -.827E+01   0.887E-02 -.108E+00 -.227E+01
 
 
 POSITION                                       TOTAL-FORCE (eV/Angst)
 -----------------------------------------------------------------------------------
      0.00000      0.00000      5.37156         0.004379      0.000416     -0.014874
      2.56560      0.00000      5.37156         0.007622      0.004485      0.072115
      5.13119      0.00000      5.37156        -0.008219     -0.009618      0.097532
      1.28280      2.22187      5.37156         0.020255     -0.007344      0.069684
      3.84839      2.22187      5.37156        -0.019363     -0.009780      0.046854
      6.41399      2.22187      5.37156        -0.007570     -0.017486      0.045657
      2.56560      4.44374      5.37156        -0.006648     -0.000127      0.062787
      5.13119      4.44374      5.37156        -0.007371      0.011334      0.041402
      7.69679      4.44374      5.37156        -0.003306      0.020515      0.055979
      1.28280      0.74062      7.46636        -0.014982     -0.002077     -0.103479
      3.84839      0.74062      7.46636        -0.005482     -0.006567     -0.009786
      6.41399      0.74062      7.46636         0.009022      0.012948     -0.128476
      2.56560      2.96249      7.46636        -0.044513      0.008564     -0.056177
      5.13119      2.96249      7.46636         0.036259      0.007768     -0.092233
      7.69679      2.96249      7.46636        -0.010139     -0.011059     -0.046565
      3.84839      5.18437      7.46636         0.009879      0.000145     -0.104517
      6.41399      5.18437      7.46636        -0.032893     -0.026792     -0.016054
      8.97958      5.18437      7.46636         0.040017     -0.003775      0.014641
      7.69679      1.48017      9.54910        -0.031014      0.054196     -0.044414
      2.56637      1.48170      9.55121        -0.260686     -0.057309     -0.222162
      5.13041      1.48170      9.55121         0.108838      0.013820      0.061537
      8.97729      3.70444      9.56154         0.014155     -0.076437      0.050144
      3.84839      3.70222      9.55121         0.021666      0.083814     -0.115473
      6.41628      3.70444      9.56154        -0.013624     -0.058800      0.046164
     10.26332      5.92553      9.54910         0.061344      0.040339      0.122423
      5.13026      5.92553      9.54910        -0.051336     -0.022494      0.222080
      7.69679      5.92234      9.56154         0.000502      0.019670     -0.001289
      0.00000      0.00000     11.64072        -0.024443     -0.548007      0.025462
      2.56831      0.00307     11.65724         0.177019     -0.212607     -0.230252
      5.12847      0.00307     11.65724        -0.196791     -0.400862     -0.295665
      1.28681      2.22269     11.65724         0.415551      0.264878      0.173713
      6.40997      2.22269     11.65724         0.017514     -0.055096      0.222103
      2.56689      4.43985     11.65724        -0.296564      0.175240     -0.269300
      5.12989      4.43985     11.65724         0.100407      0.448777      0.035229
      7.69679      4.44374     11.65596         0.157726      0.359775     -0.216878
      3.84839      2.22187     11.62023        -0.170850     -0.010079      0.507511
      4.77094      2.80745     12.93161        -0.004262      0.002877     -0.003358
      7.72431      1.46790     13.05227         0.001031      0.004597     -0.008966
      7.52634      1.59108     13.99680         0.006868      0.002160      0.006900
 -----------------------------------------------------------------------------------
    total drift:                                0.052676     -0.009469     -0.070530


--------------------------------------------------------------------------------------------------------



  FREE ENERGIE OF THE ION-ELECTRON SYSTEM (eV)
  ---------------------------------------------------
  free  energy   TOTEN  =      -148.72917903 eV

  energy  without entropy=     -148.72917903  energy(sigma->0) =     -148.72917903
 


--------------------------------------------------------------------------------------------------------


    POTLOK:  cpu time    0.0335: real time    0.0335


--------------------------------------------------------------------------------------------------------


 stress matrix after NEB project (eV)
     -2.34378      0.59259      0.34118
      0.59259     -2.91114      0.21877
      0.34118      0.21877     -0.91202
  FORCES: max atom, RMS     0.010128    0.002479
  FORCE total and by dimension    0.015484    0.008966
  Stress total and by dimension    3.978783    2.911145
     LOOP+:  cpu time  240.4111: real time  240.4312
 -----------------------------------------------------------------------------
|                                                                             |
|           W    W    AA    RRRRR   N    N  II  N    N   GGGG   !!!           |
|           W    W   A  A   R    R  NN   N  II  NN   N  G    G  !!!           |
|           W    W  A    A  R    R  N N  N  II  N N  N  G       !!!           |
|           W WW W  AAAAAA  RRRRR   N  N N  II  N  N N  G  GGG   !            |
|           WW  WW  A    A  R   R   N   NN  II  N   NN  G    G                |
|           W    W  A    A  R    R  N    N  II  N    N   GGGG   !!!           |
|                                                                             |
|     Tetrahedron method does not include variations of the Fermi             |
|     occupations, so forces and stress will be inaccurate. We suggest        |
|     using a different smearing scheme ISMEAR = 1 or 2 for metals in         |
|     relaxations.                                                            |
|                                                                             |
 -----------------------------------------------------------------------------

    4ORBIT:  cpu time    0.0000: real time    0.0000



 total charge

# of ion       s       p       d       tot
------------------------------------------
    1        0.448   0.284   9.188   9.920
    2        0.446   0.287   9.185   9.918
    3        0.447   0.287   9.184   9.919
    4        0.448   0.286   9.185   9.919
    5        0.448   0.285   9.184   9.917
    6        0.449   0.283   9.188   9.920
    7        0.448   0.285   9.186   9.919
    8        0.449   0.283   9.188   9.920
    9        0.446   0.285   9.186   9.917
   10        0.444   0.369   9.180   9.992
   11        0.439   0.370   9.181   9.989
   12        0.444   0.370   9.178   9.992
   13        0.442   0.367   9.182   9.991
   14        0.440   0.368   9.182   9.990
   15        0.440   0.368   9.179   9.988
   16        0.442   0.372   9.176   9.990
   17        0.438   0.372   9.175   9.985
   18        0.439   0.371   9.177   9.987
   19        0.442   0.372   9.182   9.996
   20        0.460   0.393   9.162  10.015
   21        0.456   0.405   9.151  10.012
   22        0.434   0.374   9.180   9.987
   23        0.463   0.392   9.161  10.016
   24        0.432   0.379   9.176   9.986
   25        0.440   0.372   9.176   9.989
   26        0.437   0.376   9.174   9.987
   27        0.436   0.367   9.187   9.991
   28        0.412   0.331   9.198   9.941
   29        0.472   0.304   9.172   9.947
   30        0.462   0.293   9.191   9.946
   31        0.442   0.354   9.167   9.963
   32        0.405   0.369   9.191   9.965
   33        0.463   0.295   9.184   9.942
   34        0.429   0.333   9.189   9.950
   35        0.444   0.281   9.202   9.927
   36        0.580   0.772   3.656   5.008
   37        1.596   3.331   0.000   4.927
   38        1.549   3.534   0.000   5.083
   39        0.608   0.120   0.000   0.728
--------------------------------------------------
tot         19.860  19.639 324.982 364.482
 
 BZINTS: Fermi energy:   -0.496649;  403.000000 electrons
         Band energy:-0.143710E+04;  BLOECHL correction:   -0.026496

 total amount of memory used by VASP MPI-rank0   232096. kBytes
=======================================================================

   base      :      30000. kBytes
   nonlr-proj:      17616. kBytes
   fftplans  :       3394. kBytes
   grid      :      15015. kBytes
   one-center:        606. kBytes
   wavefun   :     165465. kBytes
 
  
  
 General timing and accounting informations for this job:
 ========================================================
  
                  Total CPU time used (sec):      259.999
                            User time (sec):      250.541
                          System time (sec):        9.458
                         Elapsed time (sec):      260.359
  
                   Maximum memory used (kb):      512724.
                   Average memory used (kb):          N/A
  
                          Minor page faults:       118312
                          Major page faults:            0
                 Voluntary context switches:         6565
