PROCAR new format
# of k-points:   10         # of bands:  252         # of ions:   37

 k-point     1 :    0.00000000 0.00000000 0.00000000     weight = 0.01562500

band     1 # energy  -17.96394940 # occ.  2.00000000
 
ion      s      p      d    tot
    1  0.000  0.000  0.000  0.000
    2  0.000  0.000  0.000  0.000
    3  0.000  0.000  0.000  0.000
    4  0.000  0.000  0.000  0.000
    5  0.000  0.000  0.000  0.000
    6  0.000  0.000  0.000  0.000
    7  0.000  0.000  0.000  0.000
    8  0.000  0.000  0.000  0.000
    9  0.000  0.000  0.000  0.000
   10  0.000  0.000  0.000  0.000
   11  0.000  0.000  0.000  0.000
   12  0.000  0.000  0.000  0.000
   13  0.000  0.000  0.000  0.000
   14  0.000  0.000  0.000  0.000
   15  0.000  0.000  0.000  0.000
   16  0.000  0.000  0.000  0.000
   17  0.000  0.000  0.000  0.000
   18  0.000  0.000  0.000  0.000
   19  0.000  0.000  0.000  0.000
   20  0.000  0.000  0.000  0.000
   21  0.000  0.000  0.000  0.000
   22  0.000  0.000  0.000  0.000
   23  0.000  0.000  0.000  0.000
   24  0.000  0.000  0.000  0.000
   25  0.000  0.000  0.000  0.000
   26  0.000  0.000  0.000  0.000
   27  0.000  0.000  0.000  0.000
   28  0.000  0.000  0.000  0.000
   29  0.000  0.000  0.000  0.000
   30  0.000  0.000  0.000  0.000
   31  0.000  0.000  0.000  0.000
   32  0.000  0.000  0.000  0.000
   33  0.000  0.000  0.000  0.000
   34  0.000  0.000  0.000  0.000
   35  0.000  0.000  0.000  0.000
   36  0.051  0.057  0.129  0.237
   37  0.769  0.014  0.000  0.783
tot    0.820  0.071  0.130  1.021
 
band     2 # energy   -6.36877170 # occ.  2.00000000
 
ion      s      p      d    tot
    1  0.005  0.001  0.000  0.006
    2  0.005  0.000  0.000  0.005
    3  0.005  0.000  0.000  0.005
    4  0.005  0.000  0.000  0.005
    5  0.005  0.000  0.000  0.005
    6  0.005  0.000  0.000  0.005
    7  0.005  0.000  0.000  0.005
    8  0.005  0.000  0.000  0.005
    9  0.005  0.000  0.000  0.005
   10  0.021  0.000  0.000  0.021
   11  0.021  0.000  0.000  0.021
   12  0.021  0.000  0.000  0.021
   13  0.021  0.000  0.000  0.021
   14  0.021  0.000  0.000  0.021
   15  0.019  0.000  0.000  0.019
   16  0.021  0.000  0.000  0.021
   17  0.019  0.000  0.000  0.019
   18  0.019  0.000  0.000  0.019
   19  0.021  0.000  0.001  0.022
   20  0.032  0.000  0.002  0.034
   21  0.032  0.000  0.002  0.034
   22  0.021  0.000  0.001  0.022
   23  0.032  0.000  0.002  0.034
   24  0.021  0.000  0.001  0.022
   25  0.021  0.000  0.001  0.022
   26  0.021  0.000  0.001  0.022
   27  0.021  0.000  0.001  0.022
   28  0.005  0.000  0.000  0.006
   29  0.007  0.001  0.000  0.008
   30  0.007  0.001  0.000  0.008
   31  0.007  0.001  0.000  0.008
   32  0.007  0.001  0.000  0.008
   33  0.007  0.001  0.000  0.008
   34  0.007  0.001  0.000  0.008
   35  0.005  0.000  0.000  0.006
   36  0.027  0.003  0.000  0.030
   37  0.002  0.004  0.000  0.006
tot    0.526  0.019  0.015  0.560
 
band     3 # energy   -5.55419132 # occ.  2.00000000
 
ion      s      p      d    tot
    1  0.006  0.000  0.001  0.007
    2  0.009  0.000  0.000  0.010
    3  0.009  0.000  0.000  0.010
    4  0.009  0.000  0.000  0.010
    5  0.010  0.001  0.000  0.010
    6  0.009  0.000  0.000  0.010
    7  0.009  0.000  0.000  0.010
    8  0.009  0.000  0.000  0.010
    9  0.010  0.001  0.000  0.011
   10  0.010  0.001  0.016  0.027
   11  0.013  0.001  0.007  0.021
   12  0.010  0.001  0.016  0.027
   13  0.013  0.001  0.007  0.021
   14  0.013  0.001  0.007  0.021
   15  0.016  0.000  0.006  0.023
   16  0.010  0.001  0.016  0.027
   17  0.016  0.000  0.006  0.023
   18  0.016  0.000  0.006  0.023
   19  0.003  0.001  0.012  0.015
   20  0.015  0.003  0.036  0.054
   21  0.015  0.003  0.036  0.054
   22  0.001  0.001  0.006  0.009
   23  0.015  0.003  0.036  0.054
   24  0.001  0.001  0.006  0.009
   25  0.003  0.001  0.012  0.015
   26  0.003  0.001  0.012  0.015
   27  0.001  0.001  0.006  0.009
   28  0.003  0.000  0.001  0.004
   29  0.005  0.000  0.003  0.009
   30  0.005  0.000  0.003  0.009
   31  0.005  0.000  0.003  0.009
   32  0.005  0.000  0.003  0.009
   33  0.005  0.000  0.003  0.009
   34  0.005  0.000  0.003  0.009
   35  0.002  0.000  0.001  0.002
   36  0.056  0.003  0.008  0.068
   37  0.005  0.026  0.000  0.031
tot    0.350  0.056  0.283  0.689
 
band     4 # energy   -5.28563508 # occ.  2.00000000
 
ion      s      p      d    tot
    1  0.003  0.001  0.003  0.007
    2  0.000  0.000  0.001  0.001
    3  0.000  0.000  0.001  0.001
    4  0.000  0.000  0.001  0.001
    5  0.000  0.000  0.000  0.000
    6  0.000  0.000  0.001  0.001
    7  0.000  0.000  0.001  0.001
    8  0.000  0.000  0.001  0.001
    9  0.000  0.000  0.000  0.000
   10  0.007  0.000  0.013  0.021
   11  0.001  0.000  0.021  0.023
   12  0.007  0.000  0.013  0.021
   13  0.001  0.000  0.021  0.023
   14  0.001  0.000  0.021  0.022
   15  0.000  0.001  0.011  0.012
   16  0.007  0.000  0.013  0.021
   17  0.000  0.001  0.011  0.012
   18  0.000  0.001  0.011  0.011
   19  0.007  0.000  0.020  0.027
   20  0.000  0.001  0.105  0.106
   21  0.000  0.001  0.105  0.106
   22  0.020  0.000  0.014  0.034
   23  0.000  0.001  0.105  0.106
   24  0.020  0.000  0.014  0.034
   25  0.007  0.000  0.020  0.027
   26  0.007  0.000  0.020  0.027
   27  0.020  0.000  0.014  0.034
   28  0.002  0.001  0.002  0.005
   29  0.000  0.000  0.006  0.007
   30  0.000  0.000  0.006  0.007
   31  0.000  0.000  0.006  0.007
   32  0.000  0.000  0.006  0.007
   33  0.000  0.000  0.006  0.007
   34  0.000  0.000  0.006  0.007
   35  0.004  0.001  0.002  0.008
   36  0.032  0.002  0.019  0.053
   37  0.004  0.032  0.000  0.036
tot    0.153  0.046  0.624  0.823
 
band     5 # energy   -5.27316831 # occ.  2.00000000
 
ion      s      p      d    tot
    1  0.005  0.000  0.005  0.010
    2  0.003  0.000  0.004  0.007
    3  0.003  0.000  0.004  0.007
    4  0.003  0.000  0.004  0.007
    5  0.002  0.000  0.002  0.004
    6  0.003  0.000  0.004  0.007
    7  0.003  0.000  0.004  0.007
    8  0.003  0.000  0.004  0.007
    9  0.004  0.000  0.002  0.006
   10  0.000  0.000  0.013  0.013
   11  0.000  0.000  0.003  0.003
   12  0.000  0.000  0.013  0.013
   13  0.000  0.000  0.003  0.003
   14  0.000  0.000  0.003  0.003
   15  0.000  0.000  0.001  0.002
   16  0.000  0.000  0.013  0.013
   17  0.000  0.000  0.001  0.002
   18  0.000  0.000  0.001  0.002
   19  0.002  0.001  0.016  0.018
   20  0.001  0.001  0.086  0.088
   21  0.001  0.001  0.086  0.088
   22  0.001  0.000  0.006  0.007
   23  0.001  0.001  0.086  0.088
   24  0.001  0.000  0.006  0.007
   25  0.002  0.001  0.016  0.018
   26  0.002  0.001  0.016  0.018
   27  0.001  0.000  0.006  0.007
   28  0.006  0.000  0.008  0.014
   29  0.014  0.000  0.020  0.034
   30  0.014  0.000  0.020  0.034
   31  0.014  0.000  0.020  0.034
   32  0.014  0.000  0.020  0.034
   33  0.014  0.000  0.020  0.034
   34  0.014  0.000  0.020  0.034
   35  0.012  0.000  0.008  0.019
   36  0.017  0.000  0.072  0.088
   37  0.000  0.017  0.000  0.017
tot    0.159  0.026  0.614  0.799
 
band     6 # energy   -5.12138744 # occ.  2.00000000
 
ion      s      p      d    tot
    1  0.000  0.000  0.006  0.006
    2  0.001  0.000  0.001  0.002
    3  0.000  0.000  0.002  0.002
    4  0.000  0.000  0.001  0.002
    5  0.000  0.000  0.003  0.003
    6  0.000  0.000  0.002  0.002
    7  0.000  0.000  0.002  0.002
    8  0.000  0.000  0.002  0.002
    9  0.000  0.000  0.001  0.001
   10  0.000  0.000  0.016  0.016
   11  0.001  0.000  0.015  0.016
   12  0.006  0.001  0.016  0.022
   13  0.001  0.000  0.016  0.017
   14  0.000  0.001  0.025  0.025
   15  0.002  0.000  0.007  0.009
   16  0.006  0.001  0.015  0.023
   17  0.001  0.000  0.007  0.009
   18  0.000  0.000  0.006  0.006
   19  0.013  0.001  0.031  0.044
   20  0.000  0.000  0.175  0.176
   21  0.024  0.000  0.058  0.082
   22  0.001  0.001  0.029  0.030
   23  0.026  0.000  0.047  0.073
   24  0.000  0.001  0.039  0.040
   25  0.000  0.001  0.016  0.017
   26  0.012  0.001  0.029  0.042
   27  0.001  0.001  0.028  0.029
   28  0.000  0.000  0.003  0.003
   29  0.000  0.000  0.008  0.008
   30  0.000  0.000  0.010  0.011
   31  0.000  0.000  0.008  0.008
   32  0.001  0.001  0.006  0.007
   33  0.000  0.001  0.010  0.011
   34  0.001  0.001  0.006  0.007
   35  0.000  0.000  0.001  0.001
   36  0.000  0.001  0.041  0.042
   37  0.000  0.019  0.000  0.019
tot    0.096  0.033  0.686  0.815
 
band     7 # energy   -5.12133541 # occ.  2.00000000
 
ion      s      p      d    tot
    1  0.000  0.000  0.006  0.006
    2  0.000  0.000  0.002  0.002
    3  0.000  0.000  0.002  0.002
    4  0.000  0.000  0.002  0.002
    5  0.000  0.000  0.003  0.003
    6  0.001  0.000  0.002  0.002
    7  0.000  0.000  0.002  0.002
    8  0.001  0.000  0.001  0.002
    9  0.000  0.000  0.001  0.001
   10  0.008  0.001  0.015  0.024
   11  0.000  0.001  0.022  0.023
   12  0.002  0.001  0.016  0.019
   13  0.000  0.001  0.021  0.022
   14  0.001  0.000  0.013  0.014
   15  0.000  0.000  0.006  0.007
   16  0.002  0.001  0.016  0.018
   17  0.001  0.000  0.006  0.007
   18  0.002  0.000  0.007  0.010
   19  0.004  0.001  0.020  0.025
   20  0.033  0.000  0.012  0.045
   21  0.010  0.000  0.128  0.138
   22  0.000  0.001  0.035  0.036
   23  0.007  0.000  0.140  0.147
   24  0.001  0.001  0.025  0.026
   25  0.017  0.000  0.034  0.052
   26  0.005  0.001  0.021  0.027
   27  0.000  0.001  0.036  0.037
   28  0.000  0.000  0.003  0.003
   29  0.001  0.001  0.008  0.009
   30  0.000  0.000  0.006  0.006
   31  0.001  0.001  0.008  0.009
   32  0.000  0.000  0.010  0.010
   33  0.000  0.000  0.006  0.007
   34  0.000  0.000  0.010  0.010
   35  0.000  0.000  0.001  0.001
   36  0.000  0.001  0.041  0.042
   37  0.000  0.019  0.000  0.019
tot    0.096  0.033  0.686  0.815
 
band     8 # energy   -5.07455434 # occ.  2.00000000
 
ion      s      p      d    tot
    1  0.017  0.000  0.011  0.028
    2  0.012  0.000  0.025  0.036
    3  0.012  0.000  0.025  0.036
    4  0.012  0.000  0.025  0.036
    5  0.014  0.000  0.035  0.049
    6  0.012  0.000  0.025  0.036
    7  0.012  0.000  0.025  0.036
    8  0.012  0.000  0.025  0.036
    9  0.007  0.000  0.024  0.031
   10  0.000  0.001  0.015  0.016
   11  0.002  0.000  0.040  0.043
   12  0.000  0.001  0.015  0.016
   13  0.002  0.000  0.040  0.043
   14  0.002  0.000  0.040  0.043
   15  0.003  0.000  0.024  0.028
   16  0.000  0.001  0.015  0.016
   17  0.003  0.000  0.024  0.028
   18  0.003  0.000  0.024  0.028
   19  0.003  0.000  0.002  0.005
   20  0.000  0.000  0.033  0.034
   21  0.000  0.000  0.033  0.034
   22  0.000  0.000  0.011  0.011
   23  0.000  0.000  0.033  0.034
   24  0.000  0.000  0.011  0.011
   25  0.003  0.000  0.002  0.005
   26  0.003  0.000  0.002  0.005
   27  0.000  0.000  0.011  0.011
   28  0.002  0.000  0.000  0.002
   29  0.000  0.000  0.008  0.008
   30  0.000  0.000  0.008  0.008
   31  0.000  0.000  0.008  0.008
   32  0.000  0.000  0.008  0.008
   33  0.000  0.000  0.008  0.008
   34  0.000  0.000  0.008  0.008
   35  0.000  0.000  0.001  0.001
   36  0.007  0.000  0.003  0.010
   37  0.000  0.000  0.000  0.000
tot    0.141  0.008  0.649  0.798
 
band     9 # energy   -5.04895122 # occ.  2.00000000
 
ion      s      p      d    tot
    1  0.000  0.000  0.005  0.005
    2  0.000  0.000  0.002  0.002
    3  0.001  0.000  0.007  0.008
    4  0.000  0.000  0.002  0.002
    5  0.000  0.000  0.007  0.008
    6  0.001  0.001  0.005  0.007
    7  0.000  0.000  0.006  0.007
    8  0.001  0.000  0.004  0.006
    9  0.000  0.000  0.001  0.001
   10  0.007  0.001  0.019  0.027
   11  0.010  0.001  0.067  0.079
   12  0.001  0.000  0.083  0.085
   13  0.005  0.001  0.082  0.087
   14  0.029  0.001  0.018  0.048
   15  0.002  0.001  0.016  0.019
   16  0.003  0.001  0.068  0.072
   17  0.001  0.001  0.010  0.012
   18  0.007  0.000  0.036  0.043
   19  0.000  0.000  0.020  0.020
   20  0.008  0.000  0.055  0.064
   21  0.001  0.001  0.038  0.040
   22  0.001  0.000  0.014  0.016
   23  0.003  0.001  0.041  0.045
   24  0.009  0.001  0.010  0.019
   25  0.001  0.000  0.012  0.014
   26  0.000  0.000  0.022  0.022
   27  0.003  0.000  0.013  0.017
   28  0.000  0.000  0.001  0.001
   29  0.001  0.000  0.006  0.007
   30  0.001  0.000  0.004  0.004
   31  0.001  0.000  0.006  0.007
   32  0.000  0.000  0.003  0.003
   33  0.001  0.000  0.004  0.005
   34  0.000  0.000  0.004  0.004
   35  0.000  0.000  0.005  0.005
   36  0.000  0.000  0.008  0.008
   37  0.000  0.001  0.000  0.001
tot    0.100  0.015  0.704  0.819
 
band    10 # energy   -5.04894869 # occ.  2.00000000
 
ion      s      p      d    tot
    1  0.000  0.000  0.005  0.005
    2  0.001  0.001  0.007  0.008
    3  0.000  0.000  0.002  0.003
    4  0.001  0.001  0.007  0.008
    5  0.000  0.000  0.007  0.008
    6  0.000  0.000  0.003  0.004
    7  0.001  0.000  0.003  0.004
    8  0.000  0.000  0.005  0.005
    9  0.000  0.000  0.001  0.001
   10  0.000  0.000  0.095  0.095
   11  0.019  0.001  0.044  0.064
   12  0.006  0.001  0.031  0.038
   13  0.025  0.001  0.029  0.055
   14  0.000  0.001  0.093  0.095
   15  0.004  0.001  0.025  0.030
   16  0.005  0.001  0.045  0.051
   17  0.006  0.000  0.031  0.037
   18  0.000  0.001  0.005  0.007
   19  0.001  0.000  0.016  0.017
   20  0.000  0.001  0.034  0.035
   21  0.007  0.001  0.051  0.059
   22  0.007  0.001  0.011  0.019
   23  0.006  0.001  0.048  0.054
   24  0.000  0.000  0.015  0.015
   25  0.000  0.000  0.024  0.024
   26  0.001  0.000  0.014  0.015
   27  0.006  0.001  0.012  0.018
   28  0.000  0.000  0.001  0.001
   29  0.000  0.000  0.003  0.003
   30  0.001  0.000  0.005  0.006
   31  0.000  0.000  0.003  0.003
   32  0.001  0.000  0.005  0.007
   33  0.000  0.000  0.005  0.005
   34  0.001  0.000  0.005  0.006
   35  0.000  0.000  0.005  0.005
   36  0.000  0.000  0.008  0.008
   37  0.000  0.001  0.000  0.001
tot    0.101  0.015  0.704  0.819
 
band    11 # energy   -5.02352500 # occ.  2.00000000
 
ion      s      p      d    tot
    1  0.000  0.000  0.003  0.003
    2  0.001  0.000  0.008  0.009
    3  0.001  0.000  0.007  0.009
    4  0.001  0.000  0.008  0.009
    5  0.006  0.001  0.000  0.007
    6  0.001  0.000  0.007  0.009
    7  0.001  0.000  0.007  0.009
    8  0.001  0.000  0.007  0.009
    9  0.000  0.000  0.011  0.011
   10  0.008  0.001  0.007  0.016
   11  0.012  0.001  0.043  0.056
   12  0.008  0.001  0.007  0.016
   13  0.012  0.001  0.043  0.056
   14  0.012  0.001  0.043  0.056
   15  0.003  0.000  0.052  0.055
   16  0.008  0.001  0.007  0.016
   17  0.003  0.000  0.052  0.055
   18  0.003  0.000  0.052  0.055
   19  0.009  0.001  0.026  0.035
   20  0.005  0.001  0.031  0.037
   21  0.005  0.001  0.030  0.037
   22  0.000  0.000  0.027  0.028
   23  0.005  0.001  0.030  0.037
   24  0.000  0.000  0.027  0.028
   25  0.009  0.001  0.026  0.035
   26  0.009  0.001  0.026  0.035
   27  0.000  0.000  0.027  0.028
   28  0.001  0.000  0.005  0.006
   29  0.000  0.000  0.005  0.005
   30  0.000  0.000  0.005  0.005
   31  0.000  0.000  0.005  0.005
   32  0.000  0.000  0.005  0.005
   33  0.000  0.000  0.005  0.005
   34  0.000  0.000  0.005  0.005
   35  0.001  0.000  0.000  0.001
   36  0.001  0.000  0.001  0.002
   37  0.000  0.000  0.000  0.000
tot    0.127  0.018  0.652  0.797
 
band    12 # energy   -5.00424515 # occ.  2.00000000
 
ion      s      p      d    tot
    1  0.001  0.000  0.008  0.010
    2  0.002  0.000  0.010  0.012
    3  0.002  0.000  0.010  0.012
    4  0.002  0.000  0.010  0.012
    5  0.000  0.000  0.004  0.004
    6  0.002  0.000  0.010  0.012
    7  0.002  0.000  0.010  0.012
    8  0.002  0.000  0.010  0.012
    9  0.009  0.000  0.008  0.017
   10  0.000  0.000  0.015  0.015
   11  0.002  0.000  0.007  0.009
   12  0.000  0.000  0.015  0.015
   13  0.002  0.000  0.007  0.009
   14  0.002  0.000  0.007  0.009
   15  0.000  0.000  0.023  0.024
   16  0.000  0.000  0.015  0.015
   17  0.000  0.000  0.023  0.024
   18  0.000  0.000  0.023  0.024
   19  0.006  0.001  0.008  0.015
   20  0.003  0.001  0.038  0.042
   21  0.003  0.001  0.038  0.041
   22  0.005  0.000  0.068  0.073
   23  0.003  0.001  0.038  0.041
   24  0.005  0.000  0.068  0.073
   25  0.006  0.001  0.008  0.015
   26  0.006  0.001  0.008  0.015
   27  0.005  0.000  0.068  0.073
   28  0.014  0.001  0.001  0.016
   29  0.005  0.000  0.014  0.019
   30  0.005  0.000  0.014  0.018
   31  0.005  0.000  0.014  0.019
   32  0.005  0.000  0.014  0.018
   33  0.005  0.000  0.014  0.018
   34  0.005  0.000  0.014  0.018
   35  0.002  0.000  0.033  0.036
   36  0.000  0.000  0.006  0.006
   37  0.000  0.003  0.000  0.003
tot    0.115  0.013  0.681  0.808
 
band    13 # energy   -4.99188807 # occ.  2.00000000
 
ion      s      p      d    tot
    1  0.001  0.000  0.021  0.022
    2  0.001  0.000  0.007  0.008
    3  0.001  0.000  0.007  0.008
    4  0.001  0.000  0.007  0.008
    5  0.000  0.000  0.000  0.000
    6  0.001  0.000  0.007  0.008
    7  0.001  0.000  0.007  0.008
    8  0.001  0.000  0.007  0.008
    9  0.004  0.001  0.001  0.006
   10  0.003  0.000  0.087  0.090
   11  0.004  0.001  0.022  0.026
   12  0.003  0.000  0.087  0.090
   13  0.004  0.001  0.022  0.026
   14  0.004  0.001  0.021  0.025
   15  0.008  0.001  0.027  0.036
   16  0.003  0.000  0.088  0.090
   17  0.008  0.001  0.027  0.036
   18  0.009  0.001  0.027  0.036
   19  0.002  0.000  0.033  0.035
   20  0.001  0.001  0.006  0.008
   21  0.001  0.001  0.006  0.008
   22  0.000  0.000  0.029  0.029
   23  0.001  0.001  0.006  0.008
   24  0.000  0.000  0.029  0.029
   25  0.002  0.000  0.033  0.035
   26  0.002  0.000  0.033  0.035
   27  0.000  0.000  0.029  0.029
   28  0.004  0.000  0.012  0.016
   29  0.001  0.000  0.010  0.011
   30  0.001  0.000  0.010  0.011
   31  0.001  0.000  0.009  0.011
   32  0.001  0.000  0.009  0.011
   33  0.001  0.000  0.010  0.011
   34  0.001  0.000  0.010  0.011
   35  0.000  0.000  0.002  0.002
   36  0.002  0.000  0.000  0.002
   37  0.000  0.000  0.000  0.001
tot    0.077  0.010  0.745  0.832
 
band    14 # energy   -4.99088213 # occ.  2.00000000
 
ion      s      p      d    tot
    1  0.000  0.001  0.009  0.010
    2  0.004  0.001  0.007  0.012
    3  0.003  0.001  0.004  0.008
    4  0.004  0.001  0.007  0.012
    5  0.000  0.000  0.008  0.008
    6  0.000  0.000  0.007  0.007
    7  0.004  0.001  0.004  0.009
    8  0.000  0.000  0.008  0.008
    9  0.000  0.000  0.011  0.012
   10  0.020  0.000  0.018  0.038
   11  0.000  0.000  0.020  0.020
   12  0.004  0.000  0.033  0.038
   13  0.000  0.000  0.019  0.019
   14  0.000  0.000  0.028  0.028
   15  0.005  0.000  0.057  0.062
   16  0.006  0.000  0.031  0.038
   17  0.003  0.000  0.064  0.068
   18  0.016  0.000  0.008  0.025
   19  0.002  0.000  0.049  0.051
   20  0.001  0.000  0.040  0.042
   21  0.000  0.001  0.019  0.020
   22  0.003  0.000  0.041  0.044
   23  0.000  0.001  0.022  0.023
   24  0.017  0.000  0.011  0.028
   25  0.007  0.000  0.010  0.017
   26  0.001  0.000  0.054  0.056
   27  0.005  0.000  0.037  0.042
   28  0.000  0.000  0.010  0.010
   29  0.001  0.000  0.007  0.009
   30  0.001  0.000  0.003  0.005
   31  0.001  0.000  0.007  0.008
   32  0.004  0.001  0.006  0.011
   33  0.001  0.000  0.003  0.004
   34  0.004  0.001  0.006  0.011
   35  0.000  0.000  0.004  0.005
   36  0.000  0.000  0.003  0.003
   37  0.000  0.000  0.000  0.000
tot    0.120  0.014  0.676  0.809
 
band    15 # energy   -4.99083850 # occ.  2.00000000
 
ion      s      p      d    tot
    1  0.000  0.001  0.009  0.010
    2  0.001  0.000  0.005  0.007
    3  0.002  0.001  0.008  0.011
    4  0.001  0.000  0.006  0.007
    5  0.000  0.000  0.008  0.008
    6  0.005  0.001  0.006  0.011
    7  0.001  0.001  0.008  0.010
    8  0.005  0.001  0.005  0.011
    9  0.000  0.000  0.011  0.012
   10  0.000  0.001  0.037  0.038
   11  0.000  0.000  0.024  0.025
   12  0.016  0.000  0.021  0.038
   13  0.000  0.000  0.026  0.026
   14  0.000  0.000  0.017  0.017
   15  0.012  0.000  0.029  0.041
   16  0.014  0.000  0.023  0.037
   17  0.013  0.000  0.022  0.036
   18  0.000  0.000  0.078  0.079
   19  0.005  0.000  0.026  0.032
   20  0.000  0.001  0.014  0.015
   21  0.001  0.000  0.035  0.036
   22  0.013  0.000  0.019  0.032
   23  0.001  0.000  0.032  0.034
   24  0.000  0.000  0.048  0.048
   25  0.000  0.000  0.065  0.065
   26  0.006  0.000  0.021  0.027
   27  0.012  0.000  0.022  0.034
   28  0.000  0.000  0.010  0.010
   29  0.003  0.001  0.004  0.007
   30  0.003  0.001  0.007  0.011
   31  0.003  0.001  0.004  0.008
   32  0.000  0.000  0.005  0.005
   33  0.003  0.001  0.007  0.011
   34  0.000  0.000  0.005  0.005
   35  0.000  0.000  0.005  0.005
   36  0.000  0.000  0.003  0.003
   37  0.000  0.000  0.000  0.000
tot    0.120  0.014  0.675  0.809
 
band    16 # energy   -4.97694605 # occ.  2.00000000
 
ion      s      p      d    tot
    1  0.000  0.000  0.008  0.008
    2  0.000  0.000  0.008  0.009
    3  0.000  0.000  0.006  0.007
    4  0.000  0.000  0.008  0.009
    5  0.000  0.000  0.002  0.002
    6  0.001  0.000  0.004  0.006
    7  0.000  0.000  0.007  0.007
    8  0.001  0.000  0.005  0.006
    9  0.000  0.000  0.015  0.015
   10  0.002  0.000  0.045  0.046
   11  0.000  0.000  0.046  0.047
   12  0.000  0.000  0.016  0.017
   13  0.000  0.000  0.047  0.048
   14  0.002  0.000  0.015  0.017
   15  0.002  0.000  0.066  0.068
   16  0.000  0.000  0.017  0.018
   17  0.002  0.000  0.068  0.070
   18  0.007  0.000  0.023  0.030
   19  0.001  0.000  0.063  0.065
   20  0.000  0.000  0.049  0.049
   21  0.000  0.000  0.019  0.019
   22  0.001  0.000  0.046  0.047
   23  0.000  0.000  0.020  0.020
   24  0.006  0.000  0.033  0.040
   25  0.004  0.000  0.008  0.013
   26  0.001  0.000  0.065  0.066
   27  0.002  0.000  0.046  0.047
   28  0.000  0.000  0.007  0.007
   29  0.001  0.000  0.007  0.008
   30  0.001  0.000  0.003  0.004
   31  0.001  0.000  0.007  0.008
   32  0.000  0.000  0.007  0.007
   33  0.001  0.000  0.003  0.004
   34  0.000  0.000  0.007  0.007
   35  0.000  0.000  0.011  0.011
   36  0.000  0.000  0.001  0.001
   37  0.000  0.000  0.000  0.000
tot    0.038  0.006  0.809  0.853
 
band    17 # energy   -4.97685868 # occ.  2.00000000
 
ion      s      p      d    tot
    1  0.000  0.000  0.008  0.008
    2  0.001  0.000  0.005  0.006
    3  0.001  0.000  0.007  0.008
    4  0.001  0.000  0.004  0.006
    5  0.000  0.000  0.002  0.002
    6  0.000  0.000  0.008  0.009
    7  0.001  0.000  0.006  0.008
    8  0.000  0.000  0.008  0.009
    9  0.000  0.000  0.015  0.015
   10  0.000  0.000  0.007  0.007
   11  0.001  0.000  0.026  0.028
   12  0.001  0.000  0.036  0.037
   13  0.001  0.000  0.025  0.027
   14  0.000  0.000  0.058  0.058
   15  0.005  0.000  0.038  0.044
   16  0.001  0.000  0.035  0.036
   17  0.005  0.000  0.037  0.042
   18  0.000  0.000  0.082  0.082
   19  0.003  0.000  0.028  0.031
   20  0.000  0.000  0.009  0.010
   21  0.000  0.000  0.039  0.039
   22  0.005  0.000  0.037  0.042
   23  0.000  0.000  0.038  0.039
   24  0.000  0.000  0.050  0.050
   25  0.000  0.000  0.083  0.083
   26  0.003  0.000  0.026  0.029
   27  0.004  0.000  0.038  0.042
   28  0.000  0.000  0.007  0.007
   29  0.000  0.000  0.004  0.005
   30  0.000  0.000  0.008  0.009
   31  0.000  0.000  0.004  0.005
   32  0.001  0.000  0.004  0.006
   33  0.000  0.000  0.008  0.009
   34  0.001  0.000  0.004  0.006
   35  0.000  0.000  0.011  0.011
   36  0.000  0.000  0.001  0.001
   37  0.000  0.000  0.000  0.000
tot    0.038  0.006  0.809  0.853
 
band    18 # energy   -4.91284174 # occ.  2.00000000
 
ion      s      p      d    tot
    1  0.000  0.000  0.002  0.002
    2  0.001  0.000  0.004  0.005
    3  0.002  0.001  0.005  0.008
    4  0.001  0.000  0.004  0.005
    5  0.000  0.001  0.013  0.014
    6  0.000  0.000  0.005  0.005
    7  0.002  0.001  0.005  0.008
    8  0.000  0.000  0.005  0.005
    9  0.000  0.000  0.005  0.005
   10  0.000  0.000  0.001  0.001
   11  0.004  0.000  0.046  0.050
   12  0.000  0.000  0.015  0.016
   13  0.004  0.000  0.045  0.049
   14  0.000  0.000  0.041  0.041
   15  0.001  0.000  0.014  0.015
   16  0.000  0.001  0.016  0.017
   17  0.001  0.000  0.014  0.014
   18  0.000  0.000  0.013  0.013
   19  0.000  0.000  0.017  0.018
   20  0.000  0.000  0.136  0.136
   21  0.000  0.000  0.108  0.108
   22  0.000  0.001  0.029  0.030
   23  0.000  0.000  0.107  0.107
   24  0.000  0.000  0.042  0.042
   25  0.000  0.000  0.001  0.001
   26  0.000  0.000  0.016  0.017
   27  0.000  0.001  0.029  0.029
   28  0.000  0.000  0.000  0.000
   29  0.001  0.001  0.011  0.012
   30  0.000  0.000  0.010  0.010
   31  0.001  0.001  0.011  0.012
   32  0.000  0.000  0.007  0.008
   33  0.000  0.000  0.009  0.010
   34  0.000  0.000  0.007  0.008
   35  0.000  0.000  0.000  0.000
   36  0.000  0.000  0.034  0.034
   37  0.000  0.020  0.000  0.020
tot    0.019  0.030  0.826  0.876
 
band    19 # energy   -4.91280577 # occ.  2.00000000
 
ion      s      p      d    tot
    1  0.000  0.000  0.002  0.002
    2  0.001  0.000  0.005  0.007
    3  0.000  0.000  0.004  0.004
    4  0.001  0.001  0.005  0.007
    5  0.000  0.001  0.013  0.014
    6  0.002  0.001  0.004  0.007
    7  0.000  0.000  0.004  0.004
    8  0.002  0.001  0.004  0.007
    9  0.000  0.000  0.005  0.005
   10  0.000  0.001  0.021  0.021
   11  0.001  0.000  0.042  0.043
   12  0.000  0.000  0.006  0.007
   13  0.001  0.000  0.042  0.044
   14  0.005  0.000  0.047  0.052
   15  0.000  0.000  0.013  0.013
   16  0.000  0.000  0.006  0.006
   17  0.000  0.000  0.013  0.013
   18  0.001  0.000  0.014  0.015
   19  0.000  0.000  0.006  0.006
   20  0.000  0.000  0.098  0.098
   21  0.000  0.000  0.126  0.126
   22  0.000  0.000  0.038  0.038
   23  0.000  0.000  0.127  0.128
   24  0.000  0.001  0.025  0.025
   25  0.000  0.001  0.022  0.023
   26  0.000  0.000  0.007  0.007
   27  0.000  0.000  0.038  0.039
   28  0.000  0.000  0.000  0.000
   29  0.000  0.000  0.007  0.007
   30  0.001  0.000  0.009  0.010
   31  0.000  0.000  0.008  0.008
   32  0.001  0.001  0.011  0.012
   33  0.001  0.000  0.009  0.010
   34  0.001  0.001  0.011  0.012
   35  0.000  0.000  0.000  0.000
   36  0.000  0.000  0.034  0.034
   37  0.000  0.020  0.000  0.020
tot    0.019  0.030  0.826  0.876
 
band    20 # energy   -4.88268312 # occ.  2.00000000
 
ion      s      p      d    tot
    1  0.001  0.000  0.000  0.001
    2  0.000  0.000  0.006  0.006
    3  0.000  0.000  0.006  0.006
    4  0.000  0.000  0.006  0.006
    5  0.002  0.001  0.015  0.018
    6  0.000  0.000  0.006  0.006
    7  0.000  0.000  0.006  0.006
    8  0.000  0.000  0.006  0.006
    9  0.000  0.000  0.010  0.011
   10  0.002  0.000  0.003  0.005
   11  0.000  0.001  0.085  0.086
   12  0.002  0.000  0.003  0.005
   13  0.000  0.001  0.085  0.086
   14  0.000  0.001  0.085  0.086
   15  0.001  0.001  0.042  0.044
   16  0.002  0.000  0.003  0.005
   17  0.001  0.001  0.042  0.044
   18  0.001  0.001  0.042  0.044
   19  0.001  0.000  0.020  0.020
   20  0.003  0.000  0.042  0.046
   21  0.003  0.000  0.042  0.046
   22  0.005  0.000  0.019  0.024
   23  0.003  0.000  0.042  0.046
   24  0.005  0.000  0.019  0.024
   25  0.001  0.000  0.020  0.020
   26  0.001  0.000  0.020  0.020
   27  0.005  0.000  0.019  0.024
   28  0.003  0.000  0.002  0.005
   29  0.000  0.000  0.014  0.014
   30  0.000  0.000  0.014  0.014
   31  0.000  0.000  0.014  0.014
   32  0.000  0.000  0.014  0.014
   33  0.000  0.000  0.014  0.014
   34  0.000  0.000  0.014  0.014
   35  0.005  0.001  0.001  0.006
   36  0.001  0.000  0.008  0.009
   37  0.001  0.009  0.000  0.009
tot    0.050  0.020  0.785  0.856
 
band    21 # energy   -4.81998369 # occ.  2.00000000
 
ion      s      p      d    tot
    1  0.000  0.000  0.003  0.003
    2  0.000  0.001  0.014  0.015
    3  0.000  0.001  0.014  0.015
    4  0.000  0.001  0.014  0.015
    5  0.006  0.001  0.000  0.006
    6  0.000  0.001  0.014  0.015
    7  0.000  0.001  0.014  0.015
    8  0.000  0.001  0.014  0.015
    9  0.004  0.001  0.000  0.006
   10  0.003  0.000  0.035  0.038
   11  0.000  0.000  0.032  0.032
   12  0.003  0.000  0.035  0.038
   13  0.000  0.000  0.032  0.032
   14  0.000  0.000  0.032  0.032
   15  0.004  0.000  0.014  0.018
   16  0.003  0.000  0.035  0.038
   17  0.004  0.000  0.014  0.018
   18  0.004  0.000  0.014  0.018
   19  0.000  0.000  0.059  0.060
   20  0.001  0.000  0.011  0.012
   21  0.001  0.000  0.011  0.012
   22  0.000  0.001  0.039  0.040
   23  0.001  0.000  0.011  0.012
   24  0.000  0.001  0.039  0.040
   25  0.000  0.000  0.059  0.060
   26  0.000  0.000  0.059  0.060
   27  0.000  0.001  0.039  0.040
   28  0.001  0.000  0.028  0.029
   29  0.001  0.000  0.014  0.015
   30  0.001  0.000  0.014  0.015
   31  0.001  0.000  0.014  0.015
   32  0.001  0.000  0.014  0.015
   33  0.001  0.000  0.014  0.015
   34  0.001  0.000  0.014  0.015
   35  0.009  0.001  0.000  0.009
   36  0.002  0.000  0.000  0.003