PROCAR new format
# of k-points:   10         # of bands:  252         # of ions:   37

 k-point     1 :    0.00000000 0.00000000 0.00000000     weight = 0.01562500

band     1 # energy  -17.81070306 # occ.  2.00000000
 
ion      s      p      d    tot
    1  0.000  0.000  0.000  0.000
    2  0.000  0.000  0.000  0.000
    3  0.000  0.000  0.000  0.000
    4  0.000  0.000  0.000  0.000
    5  0.000  0.000  0.000  0.000
    6  0.000  0.000  0.000  0.000
    7  0.000  0.000  0.000  0.000
    8  0.000  0.000  0.000  0.000
    9  0.000  0.000  0.000  0.000
   10  0.000  0.000  0.000  0.000
   11  0.000  0.000  0.000  0.000
   12  0.000  0.000  0.000  0.000
   13  0.000  0.000  0.000  0.000
   14  0.000  0.000  0.000  0.000
   15  0.000  0.000  0.000  0.000
   16  0.000  0.000  0.000  0.000
   17  0.000  0.000  0.000  0.000
   18  0.000  0.000  0.000  0.000
   19  0.000  0.000  0.000  0.000
   20  0.000  0.000  0.000  0.000
   21  0.000  0.000  0.000  0.000
   22  0.000  0.000  0.000  0.000
   23  0.000  0.000  0.000  0.000
   24  0.000  0.000  0.000  0.000
   25  0.000  0.000  0.000  0.000
   26  0.000  0.000  0.000  0.000
   27  0.000  0.000  0.000  0.000
   28  0.000  0.000  0.000  0.000
   29  0.000  0.000  0.000  0.000
   30  0.000  0.000  0.000  0.000
   31  0.000  0.000  0.000  0.000
   32  0.000  0.000  0.000  0.000
   33  0.000  0.000  0.000  0.000
   34  0.000  0.000  0.000  0.000
   35  0.000  0.000  0.000  0.000
   36  0.052  0.074  0.096  0.221
   37  0.780  0.011  0.000  0.791
tot    0.831  0.085  0.097  1.013
 
band     2 # energy   -8.16597984 # occ.  2.00000000
 
ion      s      p      d    tot
    1  0.006  0.001  0.000  0.007
    2  0.006  0.001  0.000  0.007
    3  0.006  0.001  0.000  0.007
    4  0.006  0.001  0.000  0.007
    5  0.006  0.001  0.000  0.007
    6  0.006  0.001  0.000  0.007
    7  0.006  0.001  0.000  0.007
    8  0.006  0.001  0.000  0.007
    9  0.006  0.001  0.000  0.007
   10  0.026  0.000  0.000  0.027
   11  0.027  0.000  0.000  0.028
   12  0.026  0.000  0.000  0.027
   13  0.027  0.000  0.000  0.028
   14  0.027  0.000  0.000  0.028
   15  0.026  0.000  0.000  0.026
   16  0.026  0.000  0.000  0.027
   17  0.026  0.000  0.000  0.026
   18  0.026  0.000  0.000  0.026
   19  0.023  0.000  0.000  0.024
   20  0.028  0.000  0.000  0.028
   21  0.028  0.000  0.000  0.028
   22  0.025  0.000  0.000  0.025
   23  0.028  0.000  0.000  0.028
   24  0.025  0.000  0.000  0.025
   25  0.023  0.000  0.000  0.024
   26  0.023  0.000  0.000  0.024
   27  0.025  0.000  0.000  0.025
   28  0.004  0.000  0.000  0.005
   29  0.005  0.000  0.000  0.005
   30  0.005  0.000  0.000  0.005
   31  0.005  0.000  0.000  0.005
   32  0.005  0.000  0.000  0.005
   33  0.005  0.000  0.000  0.005
   34  0.005  0.000  0.000  0.005
   35  0.004  0.000  0.000  0.005
   36  0.004  0.001  0.000  0.006
   37  0.000  0.000  0.000  0.001
tot    0.566  0.013  0.004  0.582
 
band     3 # energy   -6.96734321 # occ.  2.00000000
 
ion      s      p      d    tot
    1  0.017  0.000  0.001  0.019
    2  0.017  0.000  0.001  0.019
    3  0.017  0.000  0.001  0.019
    4  0.017  0.000  0.001  0.019
    5  0.017  0.000  0.001  0.018
    6  0.017  0.000  0.001  0.019
    7  0.017  0.000  0.001  0.019
    8  0.017  0.000  0.001  0.019
    9  0.017  0.000  0.001  0.019
   10  0.011  0.002  0.003  0.015
   11  0.010  0.002  0.003  0.014
   12  0.011  0.002  0.003  0.015
   13  0.010  0.002  0.003  0.014
   14  0.010  0.002  0.003  0.014
   15  0.011  0.002  0.003  0.015
   16  0.011  0.002  0.003  0.015
   17  0.011  0.002  0.003  0.015
   18  0.011  0.002  0.003  0.015
   19  0.014  0.001  0.004  0.019
   20  0.017  0.001  0.004  0.023
   21  0.017  0.001  0.004  0.023
   22  0.015  0.001  0.004  0.019
   23  0.017  0.001  0.004  0.023
   24  0.015  0.001  0.004  0.019
   25  0.014  0.001  0.004  0.019
   26  0.014  0.001  0.004  0.019
   27  0.015  0.001  0.004  0.019
   28  0.012  0.000  0.000  0.013
   29  0.013  0.001  0.000  0.014
   30  0.013  0.001  0.000  0.014
   31  0.013  0.001  0.000  0.014
   32  0.013  0.001  0.000  0.014
   33  0.013  0.001  0.000  0.014
   34  0.013  0.001  0.000  0.014
   35  0.012  0.000  0.000  0.013
   36  0.009  0.001  0.000  0.011
   37  0.001  0.000  0.000  0.001
tot    0.492  0.034  0.075  0.601
 
band     4 # energy   -6.06324502 # occ.  2.00000000
 
ion      s      p      d    tot
    1  0.002  0.001  0.003  0.006
    2  0.000  0.000  0.004  0.005
    3  0.000  0.000  0.004  0.005
    4  0.000  0.000  0.004  0.005
    5  0.000  0.000  0.000  0.001
    6  0.000  0.000  0.004  0.005
    7  0.000  0.000  0.004  0.005
    8  0.000  0.000  0.004  0.005
    9  0.015  0.001  0.000  0.017
   10  0.007  0.000  0.024  0.031
   11  0.008  0.003  0.009  0.020
   12  0.007  0.000  0.024  0.031
   13  0.008  0.003  0.009  0.020
   14  0.008  0.003  0.009  0.020
   15  0.023  0.002  0.008  0.033
   16  0.007  0.000  0.024  0.031
   17  0.023  0.002  0.008  0.033
   18  0.023  0.002  0.008  0.033
   19  0.000  0.001  0.024  0.025
   20  0.029  0.002  0.024  0.055
   21  0.029  0.002  0.024  0.055
   22  0.018  0.003  0.004  0.025
   23  0.029  0.002  0.024  0.055
   24  0.018  0.003  0.004  0.025
   25  0.000  0.001  0.024  0.025
   26  0.000  0.001  0.024  0.025
   27  0.018  0.003  0.004  0.025
   28  0.004  0.000  0.000  0.004
   29  0.001  0.000  0.005  0.007
   30  0.001  0.000  0.005  0.007
   31  0.001  0.000  0.005  0.007
   32  0.001  0.000  0.005  0.007
   33  0.001  0.000  0.005  0.007
   34  0.001  0.000  0.005  0.007
   35  0.012  0.001  0.000  0.013
   36  0.008  0.003  0.007  0.018
   37  0.000  0.004  0.000  0.005
tot    0.308  0.046  0.349  0.703
 
band     5 # energy   -6.02963211 # occ.  2.00000000
 
ion      s      p      d    tot
    1  0.000  0.000  0.007  0.007
    2  0.001  0.000  0.002  0.004
    3  0.001  0.000  0.003  0.004
    4  0.003  0.001  0.002  0.006
    5  0.000  0.001  0.007  0.008
    6  0.007  0.001  0.003  0.011
    7  0.002  0.001  0.003  0.006
    8  0.006  0.001  0.003  0.011
    9  0.000  0.000  0.001  0.001
   10  0.027  0.002  0.005  0.035
   11  0.008  0.003  0.026  0.037
   12  0.010  0.001  0.022  0.033
   13  0.020  0.002  0.022  0.044
   14  0.054  0.001  0.010  0.065
   15  0.001  0.003  0.004  0.008
   16  0.004  0.000  0.028  0.033
   17  0.002  0.002  0.007  0.011
   18  0.004  0.000  0.013  0.017
   19  0.001  0.003  0.004  0.008
   20  0.060  0.001  0.011  0.073
   21  0.023  0.002  0.025  0.050
   22  0.009  0.001  0.022  0.031
   23  0.009  0.003  0.030  0.042
   24  0.023  0.002  0.004  0.029
   25  0.006  0.000  0.013  0.019
   26  0.002  0.002  0.006  0.011
   27  0.003  0.000  0.028  0.032
   28  0.000  0.000  0.001  0.001
   29  0.007  0.001  0.004  0.012
   30  0.002  0.001  0.003  0.006
   31  0.007  0.001  0.004  0.012
   32  0.004  0.001  0.002  0.006
   33  0.001  0.000  0.003  0.004
   34  0.002  0.000  0.002  0.004
   35  0.000  0.000  0.005  0.005
   36  0.000  0.003  0.004  0.006
   37  0.000  0.000  0.000  0.000
tot    0.308  0.044  0.342  0.694
 
band     6 # energy   -6.02963086 # occ.  2.00000000
 
ion      s      p      d    tot
    1  0.000  0.000  0.007  0.007
    2  0.005  0.001  0.004  0.010
    3  0.006  0.001  0.003  0.010
    4  0.004  0.001  0.003  0.008
    5  0.000  0.001  0.007  0.008
    6  0.000  0.000  0.003  0.003
    7  0.005  0.001  0.003  0.008
    8  0.000  0.000  0.003  0.003
    9  0.000  0.000  0.001  0.001
   10  0.000  0.000  0.032  0.032
   11  0.047  0.001  0.013  0.061
   12  0.017  0.001  0.015  0.034
   13  0.034  0.002  0.017  0.053
   14  0.001  0.003  0.029  0.032
   15  0.004  0.001  0.012  0.016
   16  0.024  0.002  0.009  0.034
   17  0.003  0.001  0.009  0.013
   18  0.000  0.004  0.003  0.007
   19  0.005  0.001  0.012  0.017
   20  0.001  0.003  0.033  0.037
   21  0.039  0.002  0.019  0.060
   22  0.015  0.001  0.014  0.030
   23  0.053  0.001  0.014  0.068
   24  0.000  0.000  0.032  0.032
   25  0.000  0.004  0.003  0.006
   26  0.004  0.002  0.009  0.014
   27  0.020  0.002  0.008  0.030
   28  0.000  0.000  0.001  0.001
   29  0.000  0.000  0.002  0.003
   30  0.005  0.001  0.003  0.009
   31  0.000  0.000  0.003  0.003
   32  0.004  0.001  0.004  0.008
   33  0.007  0.001  0.003  0.011
   34  0.005  0.001  0.004  0.011
   35  0.000  0.000  0.005  0.005
   36  0.000  0.003  0.004  0.006
   37  0.000  0.000  0.000  0.000
tot    0.308  0.044  0.342  0.694
 
band     7 # energy   -6.02052730 # occ.  2.00000000
 
ion      s      p      d    tot
    1  0.026  0.000  0.019  0.044
    2  0.020  0.000  0.020  0.040
    3  0.020  0.000  0.020  0.040
    4  0.020  0.000  0.020  0.040
    5  0.018  0.000  0.021  0.039
    6  0.020  0.000  0.020  0.040
    7  0.020  0.000  0.020  0.040
    8  0.020  0.000  0.020  0.040
    9  0.018  0.000  0.020  0.038
   10  0.004  0.000  0.028  0.033
   11  0.010  0.001  0.024  0.035
   12  0.004  0.000  0.028  0.033
   13  0.010  0.001  0.024  0.035
   14  0.010  0.001  0.024  0.035
   15  0.011  0.001  0.024  0.035
   16  0.004  0.000  0.028  0.033
   17  0.011  0.001  0.024  0.035
   18  0.011  0.001  0.024  0.035
   19  0.001  0.000  0.003  0.005
   20  0.001  0.000  0.006  0.007
   21  0.001  0.000  0.006  0.007
   22  0.000  0.001  0.004  0.005
   23  0.001  0.000  0.006  0.007
   24  0.000  0.001  0.004  0.005
   25  0.001  0.000  0.003  0.005
   26  0.001  0.000  0.003  0.005
   27  0.000  0.001  0.004  0.005
   28  0.001  0.000  0.000  0.001
   29  0.001  0.000  0.000  0.001
   30  0.001  0.000  0.000  0.001
   31  0.001  0.000  0.000  0.001
   32  0.001  0.000  0.000  0.001
   33  0.001  0.000  0.000  0.001
   34  0.001  0.000  0.000  0.001
   35  0.000  0.000  0.000  0.000
   36  0.001  0.000  0.000  0.001
   37  0.000  0.000  0.000  0.000
tot    0.270  0.010  0.448  0.728
 
band     8 # energy   -5.99452844 # occ.  2.00000000
 
ion      s      p      d    tot
    1  0.006  0.001  0.001  0.009
    2  0.000  0.001  0.006  0.007
    3  0.000  0.001  0.006  0.007
    4  0.000  0.001  0.006  0.007
    5  0.018  0.002  0.001  0.020
    6  0.000  0.001  0.006  0.007
    7  0.000  0.001  0.006  0.007
    8  0.000  0.001  0.006  0.007
    9  0.000  0.000  0.002  0.002
   10  0.026  0.003  0.002  0.030
   11  0.020  0.001  0.022  0.043
   12  0.026  0.003  0.002  0.030
   13  0.020  0.001  0.022  0.043
   14  0.020  0.001  0.022  0.043
   15  0.000  0.001  0.023  0.025
   16  0.026  0.003  0.002  0.030
   17  0.000  0.001  0.023  0.025
   18  0.000  0.001  0.023  0.025
   19  0.026  0.002  0.005  0.034
   20  0.005  0.002  0.019  0.026
   21  0.005  0.002  0.019  0.026
   22  0.008  0.000  0.026  0.035
   23  0.005  0.002  0.019  0.026
   24  0.008  0.000  0.026  0.035
   25  0.026  0.002  0.005  0.034
   26  0.026  0.002  0.005  0.034
   27  0.008  0.000  0.026  0.035
   28  0.010  0.001  0.001  0.012
   29  0.000  0.000  0.004  0.004
   30  0.000  0.000  0.004  0.004
   31  0.000  0.000  0.004  0.004
   32  0.000  0.000  0.004  0.004
   33  0.000  0.000  0.004  0.004
   34  0.000  0.000  0.004  0.004
   35  0.004  0.001  0.002  0.007
   36  0.000  0.000  0.000  0.001
   37  0.000  0.000  0.000  0.000
tot    0.298  0.040  0.358  0.696
 
band     9 # energy   -5.96689175 # occ.  2.00000000
 
ion      s      p      d    tot
    1  0.000  0.001  0.004  0.005
    2  0.005  0.001  0.004  0.010
    3  0.007  0.001  0.003  0.011
    4  0.006  0.001  0.004  0.011
    5  0.000  0.000  0.003  0.003
    6  0.000  0.000  0.003  0.004
    7  0.007  0.001  0.004  0.012
    8  0.000  0.000  0.003  0.004
    9  0.000  0.001  0.011  0.012
   10  0.033  0.000  0.016  0.049
   11  0.001  0.002  0.016  0.019
   12  0.007  0.004  0.009  0.019
   13  0.001  0.002  0.017  0.020
   14  0.004  0.001  0.010  0.014
   15  0.018  0.001  0.033  0.052
   16  0.010  0.003  0.010  0.023
   17  0.012  0.001  0.037  0.050
   18  0.060  0.002  0.004  0.066
   19  0.013  0.001  0.027  0.041
   20  0.002  0.001  0.012  0.015
   21  0.000  0.001  0.015  0.017
   22  0.006  0.003  0.013  0.022
   23  0.001  0.001  0.015  0.017
   24  0.030  0.000  0.013  0.043
   25  0.044  0.002  0.003  0.050
   26  0.009  0.001  0.030  0.040
   27  0.009  0.003  0.013  0.024
   28  0.000  0.000  0.006  0.007
   29  0.000  0.000  0.002  0.002
   30  0.003  0.001  0.002  0.005
   31  0.000  0.000  0.002  0.002
   32  0.004  0.001  0.003  0.007
   33  0.003  0.001  0.002  0.005
   34  0.003  0.001  0.003  0.007
   35  0.000  0.001  0.003  0.004
   36  0.000  0.000  0.001  0.001
   37  0.000  0.000  0.000  0.000
tot    0.298  0.042  0.354  0.694
 
band    10 # energy   -5.96688548 # occ.  2.00000000
 
ion      s      p      d    tot
    1  0.000  0.001  0.004  0.005
    2  0.003  0.001  0.003  0.007
    3  0.002  0.001  0.004  0.006
    4  0.003  0.001  0.003  0.006
    5  0.000  0.000  0.003  0.003
    6  0.008  0.001  0.004  0.014
    7  0.001  0.000  0.004  0.005
    8  0.008  0.001  0.004  0.014
    9  0.000  0.001  0.011  0.012
   10  0.000  0.005  0.007  0.012
   11  0.003  0.001  0.012  0.016
   12  0.026  0.001  0.014  0.042
   13  0.003  0.001  0.012  0.016
   14  0.000  0.002  0.019  0.021
   15  0.042  0.001  0.016  0.060
   16  0.024  0.001  0.013  0.038
   17  0.047  0.002  0.013  0.062
   18  0.000  0.001  0.046  0.046
   19  0.031  0.002  0.013  0.046
   20  0.000  0.002  0.016  0.017
   21  0.002  0.001  0.012  0.015
   22  0.024  0.001  0.013  0.038
   23  0.002  0.001  0.013  0.016
   24  0.000  0.004  0.012  0.017
   25  0.000  0.000  0.036  0.037
   26  0.035  0.002  0.010  0.047
   27  0.021  0.002  0.013  0.035
   28  0.000  0.000  0.006  0.007
   29  0.004  0.001  0.002  0.007
   30  0.001  0.000  0.002  0.004
   31  0.004  0.001  0.002  0.008
   32  0.001  0.000  0.001  0.002
   33  0.002  0.000  0.003  0.005
   34  0.001  0.000  0.001  0.003
   35  0.000  0.001  0.003  0.004
   36  0.000  0.000  0.001  0.001
   37  0.000  0.000  0.000  0.000
tot    0.298  0.042  0.354  0.694
 
band    11 # energy   -5.87109502 # occ.  2.00000000
 
ion      s      p      d    tot
    1  0.002  0.000  0.000  0.002
    2  0.001  0.000  0.001  0.001
    3  0.001  0.000  0.001  0.001
    4  0.001  0.000  0.001  0.001
    5  0.002  0.000  0.000  0.002
    6  0.001  0.000  0.001  0.001
    7  0.001  0.000  0.001  0.001
    8  0.001  0.000  0.001  0.001
    9  0.000  0.000  0.001  0.001
   10  0.000  0.000  0.004  0.004
   11  0.001  0.000  0.002  0.003
   12  0.000  0.000  0.004  0.004
   13  0.001  0.000  0.002  0.003
   14  0.001  0.000  0.002  0.003
   15  0.002  0.000  0.003  0.005
   16  0.000  0.000  0.004  0.004
   17  0.002  0.000  0.003  0.005
   18  0.002  0.000  0.003  0.005
   19  0.004  0.001  0.017  0.022
   20  0.002  0.000  0.032  0.034
   21  0.002  0.000  0.032  0.034
   22  0.009  0.001  0.022  0.032
   23  0.002  0.000  0.032  0.034
   24  0.009  0.001  0.022  0.032
   25  0.004  0.001  0.017  0.022
   26  0.004  0.001  0.017  0.022
   27  0.009  0.001  0.022  0.032
   28  0.027  0.000  0.020  0.047
   29  0.026  0.000  0.021  0.047
   30  0.026  0.000  0.021  0.047
   31  0.026  0.000  0.021  0.047
   32  0.026  0.000  0.021  0.047
   33  0.026  0.000  0.021  0.047
   34  0.026  0.000  0.021  0.047
   35  0.026  0.000  0.021  0.048
   36  0.008  0.000  0.014  0.022
   37  0.000  0.000  0.000  0.001
tot    0.282  0.013  0.423  0.719
 
band    12 # energy   -5.54892181 # occ.  2.00000000
 
ion      s      p      d    tot
    1  0.013  0.002  0.003  0.017
    2  0.000  0.001  0.008  0.009
    3  0.000  0.001  0.008  0.009
    4  0.000  0.001  0.008  0.009
    5  0.001  0.000  0.002  0.002
    6  0.000  0.001  0.008  0.009
    7  0.000  0.001  0.008  0.009
    8  0.000  0.001  0.008  0.009
    9  0.018  0.002  0.000  0.020
   10  0.011  0.001  0.016  0.028
   11  0.002  0.000  0.046  0.048
   12  0.011  0.001  0.016  0.028
   13  0.002  0.000  0.046  0.048
   14  0.002  0.000  0.046  0.048
   15  0.005  0.001  0.019  0.025
   16  0.011  0.001  0.016  0.028
   17  0.005  0.001  0.019  0.025
   18  0.005  0.001  0.019  0.025
   19  0.003  0.001  0.013  0.017
   20  0.001  0.000  0.054  0.055
   21  0.001  0.000  0.054  0.055
   22  0.010  0.001  0.018  0.029
   23  0.001  0.000  0.054  0.055
   24  0.010  0.001  0.018  0.029
   25  0.003  0.001  0.014  0.017
   26  0.003  0.001  0.013  0.017
   27  0.010  0.001  0.018  0.029
   28  0.010  0.001  0.000  0.011
   29  0.000  0.000  0.005  0.005
   30  0.000  0.000  0.005  0.005
   31  0.000  0.000  0.005  0.005
   32  0.000  0.000  0.005  0.005
   33  0.000  0.000  0.005  0.005
   34  0.000  0.000  0.005  0.005
   35  0.006  0.001  0.003  0.010
   36  0.000  0.000  0.002  0.002
   37  0.000  0.000  0.000  0.001
tot    0.144  0.027  0.589  0.759
 
band    13 # energy   -5.54260012 # occ.  2.00000000
 
ion      s      p      d    tot
    1  0.000  0.001  0.004  0.005
    2  0.001  0.001  0.005  0.006
    3  0.009  0.001  0.005  0.015
    4  0.001  0.001  0.005  0.006
    5  0.000  0.001  0.010  0.012
    6  0.005  0.001  0.004  0.009
    7  0.009  0.001  0.005  0.015
    8  0.005  0.001  0.004  0.009
    9  0.000  0.000  0.008  0.008
   10  0.000  0.001  0.052  0.052
   11  0.017  0.001  0.020  0.039
   12  0.008  0.002  0.019  0.028
   13  0.017  0.001  0.020  0.039
   14  0.000  0.000  0.049  0.049
   15  0.002  0.000  0.020  0.022
   16  0.008  0.002  0.019  0.028
   17  0.002  0.000  0.020  0.022
   18  0.000  0.002  0.011  0.012
   19  0.005  0.000  0.018  0.023
   20  0.000  0.000  0.077  0.077
   21  0.016  0.001  0.024  0.041
   22  0.002  0.001  0.019  0.022
   23  0.016  0.001  0.024  0.041
   24  0.000  0.001  0.031  0.032
   25  0.000  0.001  0.013  0.014
   26  0.005  0.000  0.018  0.023
   27  0.002  0.001  0.019  0.022
   28  0.000  0.000  0.008  0.008
   29  0.002  0.001  0.004  0.007
   30  0.010  0.001  0.004  0.015
   31  0.002  0.001  0.004  0.007
   32  0.003  0.001  0.004  0.007
   33  0.010  0.001  0.004  0.015
   34  0.003  0.001  0.004  0.007
   35  0.000  0.000  0.003  0.003
   36  0.000  0.003  0.003  0.006
   37  0.000  0.000  0.000  0.000
tot    0.160  0.032  0.556  0.748
 
band    14 # energy   -5.54259076 # occ.  2.00000000
 
ion      s      p      d    tot
    1  0.000  0.001  0.004  0.005
    2  0.009  0.001  0.004  0.014
    3  0.001  0.000  0.004  0.005
    4  0.009  0.001  0.004  0.014
    5  0.000  0.001  0.011  0.012
    6  0.005  0.001  0.005  0.011
    7  0.001  0.000  0.004  0.005
    8  0.005  0.001  0.005  0.011
    9  0.000  0.000  0.008  0.008
   10  0.010  0.002  0.008  0.020
   11  0.006  0.000  0.040  0.046
   12  0.003  0.001  0.041  0.044
   13  0.006  0.000  0.040  0.046
   14  0.023  0.001  0.011  0.035
   15  0.001  0.001  0.014  0.015
   16  0.003  0.001  0.041  0.044
   17  0.001  0.001  0.014  0.015
   18  0.002  0.000  0.023  0.025
   19  0.002  0.001  0.015  0.017
   20  0.021  0.002  0.006  0.029
   21  0.005  0.000  0.059  0.065
   22  0.001  0.001  0.027  0.029
   23  0.005  0.000  0.059  0.065
   24  0.003  0.001  0.015  0.019
   25  0.007  0.000  0.020  0.027
   26  0.002  0.001  0.015  0.017
   27  0.001  0.001  0.027  0.029
   28  0.000  0.000  0.008  0.008
   29  0.008  0.001  0.003  0.012
   30  0.000  0.000  0.004  0.005
   31  0.008  0.001  0.003  0.012
   32  0.007  0.001  0.004  0.013
   33  0.000  0.000  0.004  0.005
   34  0.007  0.001  0.004  0.013
   35  0.000  0.000  0.003  0.003
   36  0.000  0.003  0.003  0.006
   37  0.000  0.000  0.000  0.000
tot    0.160  0.032  0.556  0.748
 
band    15 # energy   -5.51911973 # occ.  2.00000000
 
ion      s      p      d    tot
    1  0.007  0.000  0.001  0.008
    2  0.000  0.001  0.008  0.008
    3  0.000  0.001  0.008  0.008
    4  0.000  0.001  0.008  0.008
    5  0.016  0.002  0.001  0.018
    6  0.000  0.001  0.008  0.008
    7  0.000  0.001  0.008  0.008
    8  0.000  0.001  0.008  0.008
    9  0.003  0.001  0.002  0.005
   10  0.000  0.000  0.040  0.040
   11  0.008  0.001  0.005  0.015
   12  0.000  0.000  0.040  0.040
   13  0.008  0.001  0.005  0.015
   14  0.008  0.001  0.005  0.015
   15  0.008  0.001  0.028  0.037
   16  0.000  0.000  0.040  0.040
   17  0.008  0.001  0.028  0.037
   18  0.008  0.001  0.028  0.037
   19  0.012  0.001  0.033  0.046
   20  0.007  0.002  0.015  0.024
   21  0.007  0.002  0.014  0.024
   22  0.000  0.000  0.038  0.039
   23  0.007  0.002  0.014  0.024
   24  0.000  0.000  0.039  0.039
   25  0.012  0.001  0.033  0.046
   26  0.012  0.001  0.033  0.046
   27  0.000  0.000  0.038  0.039
   28  0.001  0.001  0.006  0.008
   29  0.000  0.000  0.005  0.006
   30  0.000  0.000  0.005  0.006
   31  0.000  0.000  0.005  0.006
   32  0.000  0.000  0.005  0.006
   33  0.000  0.000  0.005  0.006
   34  0.000  0.000  0.005  0.006
   35  0.001  0.000  0.000  0.001
   36  0.018  0.003  0.004  0.024
   37  0.001  0.007  0.000  0.008
tot    0.156  0.038  0.568  0.762
 
band    16 # energy   -5.47324209 # occ.  2.00000000
 
ion      s      p      d    tot
    1  0.000  0.001  0.014  0.015
    2  0.000  0.001  0.005  0.006
    3  0.007  0.001  0.005  0.014
    4  0.000  0.000  0.005  0.006
    5  0.000  0.000  0.005  0.005
    6  0.006  0.001  0.005  0.011
    7  0.009  0.001  0.005  0.015
    8  0.008  0.001  0.005  0.013
    9  0.000  0.001  0.007  0.008
   10  0.009  0.000  0.020  0.030
   11  0.000  0.001  0.019  0.021
   12  0.003  0.001  0.026  0.030
   13  0.000  0.001  0.020  0.021
   14  0.001  0.001  0.021  0.023
   15  0.002  0.000  0.055  0.058
   16  0.002  0.001  0.028  0.030
   17  0.005  0.001  0.044  0.050
   18  0.014  0.002  0.007  0.023
   19  0.003  0.001  0.056  0.060
   20  0.000  0.000  0.024  0.025
   21  0.000  0.001  0.022  0.024
   22  0.008  0.001  0.027  0.036
   23  0.000  0.001  0.022  0.023
   24  0.023  0.001  0.017  0.041
   25  0.017  0.001  0.005  0.023
   26  0.006  0.001  0.045  0.052
   27  0.004  0.001  0.030  0.034
   28  0.000  0.001  0.004  0.005
   29  0.001  0.000  0.003  0.004
   30  0.005  0.001  0.002  0.009
   31  0.000  0.000  0.003  0.004
   32  0.002  0.001  0.005  0.007
   33  0.006  0.001  0.003  0.010
   34  0.003  0.001  0.005  0.009
   35  0.000  0.001  0.007  0.008
   36  0.000  0.000  0.001  0.001
   37  0.000  0.000  0.000  0.000
tot    0.147  0.028  0.578  0.753
 
band    17 # energy   -5.47324157 # occ.  2.00000000
 
ion      s      p      d    tot
    1  0.000  0.001  0.014  0.015
    2  0.010  0.001  0.005  0.015
    3  0.003  0.000  0.005  0.008
    4  0.010  0.001  0.005  0.016
    5  0.000  0.000  0.005  0.005
    6  0.004  0.001  0.005  0.011
    7  0.001  0.000  0.005  0.007
    8  0.002  0.001  0.005  0.009
    9  0.000  0.001  0.007  0.008
   10  0.000  0.001  0.029  0.030
   11  0.001  0.001  0.020  0.022
   12  0.006  0.000  0.023  0.030
   13  0.001  0.001  0.020  0.022
   14  0.000  0.001  0.019  0.020
   15  0.012  0.002  0.016  0.030
   16  0.008  0.000  0.022  0.030
   17  0.009  0.002  0.027  0.038
   18  0.000  0.000  0.064  0.064
   19  0.015  0.001  0.014  0.030
   20  0.000  0.002  0.021  0.023
   21  0.000  0.001  0.023  0.024
   22  0.015  0.001  0.022  0.038
   23  0.000  0.000  0.024  0.025
   24  0.000  0.000  0.032  0.033
   25  0.000  0.000  0.066  0.066
   26  0.011  0.001  0.026  0.038
   27  0.020  0.001  0.019  0.040
   28  0.000  0.001  0.004  0.005
   29  0.005  0.001  0.004  0.010
   30  0.000  0.001  0.005  0.006
   31  0.005  0.001  0.003  0.010
   32  0.004  0.001  0.002  0.007
   33  0.000  0.000  0.004  0.005
   34  0.003  0.001  0.002  0.006
   35  0.000  0.001  0.007  0.008
   36  0.000  0.000  0.001  0.001
   37  0.000  0.000  0.000  0.000
tot    0.147  0.028  0.578  0.753
 
band    18 # energy   -5.15917484 # occ.  2.00000000
 
ion      s      p      d    tot
    1  0.000  0.000  0.013  0.014
    2  0.000  0.000  0.009  0.009
    3  0.004  0.000  0.013  0.017
    4  0.000  0.000  0.009  0.010
    5  0.000  0.000  0.023  0.024
    6  0.006  0.000  0.008  0.015
    7  0.004  0.000  0.013  0.017
    8  0.006  0.001  0.008  0.015
    9  0.000  0.001  0.005  0.006
   10  0.000  0.000  0.017  0.018
   11  0.000  0.000  0.051  0.052
   12  0.000  0.000  0.011  0.011
   13  0.000  0.000  0.052  0.052
   14  0.000  0.000  0.048  0.049
   15  0.000  0.000  0.021  0.021
   16  0.000  0.000  0.011  0.011
   17  0.000  0.000  0.020  0.020
   18  0.000  0.000  0.038  0.038
   19  0.000  0.000  0.011  0.011
   20  0.001  0.000  0.068  0.069
   21  0.000  0.000  0.050  0.050
   22  0.000  0.000  0.034  0.035
   23  0.000  0.000  0.050  0.051
   24  0.000  0.001  0.029  0.030
   25  0.000  0.000  0.014  0.014
   26  0.000  0.000  0.010  0.011
   27  0.000  0.000  0.034  0.034
   28  0.000  0.000  0.011  0.011
   29  0.009  0.001  0.013  0.022
   30  0.000  0.001  0.009  0.010
   31  0.008  0.001  0.013  0.022
   32  0.009  0.001  0.005  0.015
   33  0.000  0.001  0.009  0.010
   34  0.009  0.001  0.005  0.015
   35  0.000  0.000  0.017  0.017
   36  0.000  0.004  0.001  0.005
   37  0.000  0.001  0.000  0.001
tot    0.060  0.018  0.752  0.830
 
band    19 # energy   -5.15917295 # occ.  2.00000000
 
ion      s      p      d    tot
    1  0.000  0.000  0.013  0.014
    2  0.007  0.000  0.011  0.018
    3  0.003  0.001  0.007  0.010
    4  0.007  0.000  0.011  0.018
    5  0.000  0.000  0.023  0.024
    6  0.001  0.000  0.012  0.013
    7  0.003  0.001  0.007  0.011
    8  0.001  0.000  0.012  0.013
    9  0.000  0.001  0.005  0.006
   10  0.000  0.000  0.009  0.009
   11  0.000  0.000  0.049  0.050
   12  0.000  0.000  0.015  0.016
   13  0.000  0.000  0.049  0.050
   14  0.000  0.000  0.052  0.053
   15  0.000  0.000  0.032  0.032
   16  0.000  0.000  0.015  0.015
   17  0.000  0.000  0.032  0.033
   18  0.000  0.000  0.014  0.014
   19  0.000  0.000  0.012  0.013
   20  0.000  0.000  0.044  0.044
   21  0.001  0.000  0.062  0.063
   22  0.000  0.000  0.031  0.031
   23  0.001  0.000  0.061  0.062
   24  0.000  0.000  0.036  0.036
   25  0.000  0.000  0.010  0.010
   26  0.000  0.000  0.013  0.013
   27  0.000  0.000  0.031  0.032
   28  0.000  0.000  0.011  0.011
   29  0.003  0.001  0.006  0.009
   30  0.012  0.001  0.009  0.022
   31  0.003  0.001  0.005  0.009
   32  0.003  0.001  0.013  0.017
   33  0.012  0.001  0.009  0.021
   34  0.003  0.001  0.013  0.016
   35  0.000  0.000  0.017  0.017
   36  0.000  0.004  0.001  0.005
   37  0.000  0.001  0.000  0.001
tot    0.060  0.018  0.752  0.830
 
band    20 # energy   -5.15358179 # occ.  2.00000000
 
ion      s      p      d    tot
    1  0.005  0.000  0.002  0.007
    2  0.000  0.000  0.004  0.005
    3  0.000  0.000  0.004  0.005
    4  0.000  0.000  0.004  0.005
    5  0.001  0.001  0.011  0.013
    6  0.000  0.000  0.004  0.005
    7  0.000  0.000  0.004  0.005
    8  0.000  0.000  0.004  0.005
    9  0.007  0.001  0.002  0.010
   10  0.000  0.000  0.020  0.020
   11  0.000  0.001  0.057  0.058
   12  0.000  0.000  0.020  0.020
   13  0.000  0.001  0.057  0.058
   14  0.000  0.001  0.057  0.058
   15  0.000  0.000  0.031  0.032
   16  0.000  0.000  0.020  0.020
   17  0.000  0.000  0.031  0.032
   18  0.000  0.000  0.031  0.032
   19  0.000  0.000  0.018  0.019
   20  0.001  0.000  0.060  0.061
   21  0.001  0.000  0.060  0.061
   22  0.001  0.000  0.032  0.033
   23  0.001  0.000  0.060  0.061
   24  0.001  0.000  0.032  0.033
   25  0.000  0.000  0.018  0.019
   26  0.000  0.000  0.018  0.019
   27  0.001  0.000  0.032  0.033
   28  0.006  0.001  0.000  0.007
   29  0.000  0.001  0.011  0.011
   30  0.000  0.001  0.011  0.011
   31  0.000  0.001  0.011  0.011
   32  0.000  0.001  0.011  0.011
   33  0.000  0.001  0.011  0.011
   34  0.000  0.001  0.011  0.011
   35  0.012  0.001  0.002  0.014
   36  0.000  0.000  0.017  0.017
   37  0.001  0.008  0.000  0.008
tot    0.039  0.022  0.780  0.841
 
band    21 # energy   -5.12720740 # occ.  2.00000000
 
ion      s      p      d    tot
    1  0.000  0.000  0.007  0.008
    2  0.000  0.001  0.019  0.019
    3  0.000  0.001  0.019  0.019
    4  0.000  0.001  0.019  0.019
    5  0.019  0.001  0.001  0.020
    6  0.000  0.001  0.019  0.019
    7  0.000  0.001  0.019  0.019
    8  0.000  0.001  0.019  0.019
    9  0.016  0.000  0.012  0.028
   10  0.000  0.000  0.038  0.039
   11  0.000  0.000  0.025  0.026
   12  0.000  0.000  0.038  0.039
   13  0.000  0.000  0.025  0.026
   14  0.000  0.000  0.025  0.026
   15  0.000  0.000  0.038  0.038
   16  0.000  0.000  0.038  0.039
   17  0.000  0.000  0.038  0.038
   18  0.000  0.000  0.038  0.038
   19  0.001  0.000  0.027  0.029
   20  0.000  0.000  0.032  0.033
   21  0.000  0.000  0.032  0.033
   22  0.001  0.000  0.020  0.021
   23  0.000  0.000  0.032  0.033
   24  0.001  0.000  0.020  0.021
   25  0.001  0.000  0.027  0.029
   26  0.001  0.000  0.027  0.029
   27  0.001  0.000  0.020  0.021
   28  0.008  0.000  0.006  0.014
   29  0.000  0.000  0.012  0.013
   30  0.000  0.000  0.012  0.013
   31  0.000  0.000  0.012  0.013
   32  0.000  0.000  0.012  0.013
   33  0.000  0.000  0.012  0.013
   34  0.000  0.000  0.012  0.013
   35  0.000  0.000  0.003  0.004
   36  0.008  0.001  0.000  0.009