 vasp.6.2.0 18Jan21 (build Jun 12 2021 23:27:24) complex                        
  
 executed on             LinuxIFC date 2022.05.26  19:53:48
 running on   28 total cores
 distrk:  each k-point on   28 cores,    1 groups
 distr:  one band on NCORE=   1 cores,   28 groups


--------------------------------------------------------------------------------------------------------


 INCAR:
   ISMEAR = -5
   SIGMA = 0.1
   ISPIN = 1
   EDIFF = 1.d-5
   EDIFFG = -0.01
   NSW = 0
   NELM = 150
   ENCUT = 500
   ISIF = 2
   IBRION = 2
   LREAL = Auto
   ALGO = Fast
   ICHARG = 11
   LORBIT = 10
   LCHARG = .F.
   LWAVE = .F.

 POTCAR:    PAW_PBE Ag 02Apr2005                  
 POTCAR:    PAW_PBE Os 17Jan2003                  
 POTCAR:    PAW_PBE N 08Apr2002                   
 -----------------------------------------------------------------------------
|                                                                             |
|           W    W    AA    RRRRR   N    N  II  N    N   GGGG   !!!           |
|           W    W   A  A   R    R  NN   N  II  NN   N  G    G  !!!           |
|           W    W  A    A  R    R  N N  N  II  N N  N  G       !!!           |
|           W WW W  AAAAAA  RRRRR   N  N N  II  N  N N  G  GGG   !            |
|           WW  WW  A    A  R   R   N   NN  II  N   NN  G    G                |
|           W    W  A    A  R    R  N    N  II  N    N   GGGG   !!!           |
|                                                                             |
|     For optimal performance we recommend to set                             |
|       NCORE = 2 up to number-of-cores-per-socket                            |
|     NCORE specifies how many cores store one orbital (NPAR=cpu/NCORE).      |
|     This setting can greatly improve the performance of VASP for DFT.       |
|     The default, NCORE=1 might be grossly inefficient on modern             |
|     multi-core architectures or massively parallel machines. Do your        |
|     own testing! More info at https://www.vasp.at/wiki/index.php/NCORE      |
|     Unfortunately you need to use the default for GW and RPA                |
|     calculations (for HF NCORE is supported but not extensively tested      |
|     yet).                                                                   |
|                                                                             |
 -----------------------------------------------------------------------------

 POTCAR:    PAW_PBE Ag 02Apr2005                  
   VRHFIN =Ag : s1 d10                                                                              
   LEXCH  = PE                                                                                      
   EATOM  =  1037.2675 eV,   76.2370 Ry                                                             
                                                                                                    
   TITEL  = PAW_PBE Ag 02Apr2005                                                                    
   LULTRA =        F    use ultrasoft PP ?                                                          
   IUNSCR =        1    unscreen: 0-lin 1-nonlin 2-no                                               
   RPACOR =    2.000    partial core radius                                                         
   POMASS =  107.868; ZVAL   =   11.000    mass and valenz                                          
   RCORE  =    2.500    outmost cutoff radius                                                       
   RWIGS  =    2.840; RWIGS  =    1.503    wigner-seitz radius (au A)                               
   ENMAX  =  249.844; ENMIN  =  187.383 eV                                                          
   ICORE  =        3    local potential                                                             
   LCOR   =        T    correct aug charges                                                         
   LPAW   =        T    paw PP                                                                      
   EAUG   =  412.496                                                                                
   DEXC   =    0.000                                                                                
   RMAX   =    2.560    core radius for proj-oper                                                   
   RAUG   =    1.300    factor for augmentation sphere                                              
   RDEP   =    2.576    radius for radial grids                                                     
   RDEPT  =    2.072    core radius for aug-charge                                                  
                                                                                                    
   Atomic configuration                                                                             
   12 entries                                                                                       
     n  l   j            E        occ.                                                              
     1  0  0.50    -25324.9161   2.0000                                                             
     2  0  0.50     -3728.5341   2.0000                                                             
     2  1  1.50     -3344.0404   6.0000                                                             
     3  0  0.50      -683.5581   2.0000                                                             
     3  1  1.50      -557.3225   6.0000                                                             
     3  2  2.50      -358.3853  10.0000                                                             
     4  0  0.50       -95.0341   2.0000                                                             
     4  1  1.50       -58.5511   6.0000                                                             
     4  2  2.50        -7.4440  10.0000                                                             
     5  0  0.50        -4.4045   1.0000                                                             
     5  1  0.50        -1.3606   0.0000                                                             
     4  3  2.50        -1.3606   0.0000                                                             
   Description                                                                                      
     l       E           TYP  RCUT    TYP  RCUT                                                     
     2     -7.4439781     23  2.400                                                                 
     2     -8.8045607     23  2.400                                                                 
     0     -4.4044681     23  2.400                                                                 
     0      1.9520038     23  2.400                                                                 
     1     -1.3605826     23  2.500                                                                 
     1     27.2116520     23  2.500                                                                 
     3     -4.0817478     23  2.400                                                                 
  local pseudopotential read in
  partial core-charges read in
  partial kinetic energy density read in
  atomic valenz-charges read in
  non local Contribution for L=           2  read in
    real space projection operators read in
  non local Contribution for L=           2  read in
    real space projection operators read in
  non local Contribution for L=           0  read in
    real space projection operators read in
  non local Contribution for L=           0  read in
    real space projection operators read in
  non local Contribution for L=           1  read in
    real space projection operators read in
  non local Contribution for L=           1  read in
    real space projection operators read in
    PAW grid and wavefunctions read in
 
   number of l-projection  operators is LMAX  =           6
   number of lm-projection operators is LMMAX =          18
 
 POTCAR:    PAW_PBE Os 17Jan2003                  
   VRHFIN =Os: 6s5d                                                                                 
   LEXCH  = PE                                                                                      
   EATOM  =   417.5999 eV,   30.6927 Ry                                                             
                                                                                                    
   TITEL  = PAW_PBE Os 17Jan2003                                                                    
   LULTRA =        F    use ultrasoft PP ?                                                          
   IUNSCR =        1    unscreen: 0-lin 1-nonlin 2-no                                               
   RPACOR =    2.250    partial core radius                                                         
   POMASS =  190.200; ZVAL   =    8.000    mass and valenz                                          
   RCORE  =    2.700    outmost cutoff radius                                                       
   RWIGS  =    2.670; RWIGS  =    1.413    wigner-seitz radius (au A)                               
   ENMAX  =  228.022; ENMIN  =  171.017 eV                                                          
   RCLOC  =    2.004    cutoff for local pot                                                        
   LCOR   =        T    correct aug charges                                                         
   LPAW   =        T    paw PP                                                                      
   EAUG   =  365.080                                                                                
   DEXC   =    0.000                                                                                
   RMAX   =    2.766    core radius for proj-oper                                                   
   RAUG   =    1.300    factor for augmentation sphere                                              
   RDEP   =    2.738    radius for radial grids                                                     
   RDEPT  =    2.220    core radius for aug-charge                                                  
                                                                                                    
   Atomic configuration                                                                             
   16 entries                                                                                       
     n  l   j            E        occ.                                                              
     1  0  0.50    -73844.2437   2.0000                                                             
     2  0  0.50    -12856.6893   2.0000                                                             
     2  1  1.50    -11191.7995   6.0000                                                             
     3  0  0.50     -2990.1422   2.0000                                                             
     3  1  1.50     -2501.5221   6.0000                                                             
     3  2  2.50     -1956.5818  10.0000                                                             
     4  0  0.50      -629.1606   2.0000                                                             
     4  1  1.50      -468.9548   6.0000                                                             
     4  2  2.50      -270.2868  10.0000                                                             
     4  3  3.50       -49.5699  14.0000                                                             
     5  0  0.50       -89.1521   2.0000                                                             
     5  1  1.50       -48.6063   6.0000                                                             
     5  2  2.50        -4.7055   7.0000                                                             
     6  0  0.50        -5.4288   1.0000                                                             
     6  1  1.50        -2.7212   0.0000                                                             
     5  3  2.50        -6.8029   0.0000                                                             
   Description                                                                                      
     l       E           TYP  RCUT    TYP  RCUT                                                     
     2     -4.7055230     23  2.500                                                                 
     2     -6.0661056     23  2.500                                                                 
     0     -5.4288441     23  2.500                                                                 
     0      3.7338294     23  2.500                                                                 
     1     -2.7211652     23  2.700                                                                 
     1     27.2116520     23  2.700                                                                 
  local pseudopotential read in
  partial core-charges read in
  partial kinetic energy density read in
  atomic valenz-charges read in
  non local Contribution for L=           2  read in
    real space projection operators read in
  non local Contribution for L=           2  read in
    real space projection operators read in
  non local Contribution for L=           0  read in
    real space projection operators read in
  non local Contribution for L=           0  read in
    real space projection operators read in
  non local Contribution for L=           1  read in
    real space projection operators read in
  non local Contribution for L=           1  read in
    real space projection operators read in
    PAW grid and wavefunctions read in
 
   number of l-projection  operators is LMAX  =           6
   number of lm-projection operators is LMMAX =          18
 
 POTCAR:    PAW_PBE N 08Apr2002                   
   VRHFIN =N: s2p3                                                                                  
   LEXCH  = PE                                                                                      
   EATOM  =   264.5486 eV,   19.4438 Ry                                                             
                                                                                                    
   TITEL  = PAW_PBE N 08Apr2002                                                                     
   LULTRA =        F    use ultrasoft PP ?                                                          
   IUNSCR =        1    unscreen: 0-lin 1-nonlin 2-no                                               
   RPACOR =    1.200    partial core radius                                                         
   POMASS =   14.001; ZVAL   =    5.000    mass and valenz                                          
   RCORE  =    1.500    outmost cutoff radius                                                       
   RWIGS  =    1.400; RWIGS  =    0.741    wigner-seitz radius (au A)                               
   ENMAX  =  400.000; ENMIN  =  300.000 eV                                                          
   ICORE  =        2    local potential                                                             
   LCOR   =        T    correct aug charges                                                         
   LPAW   =        T    paw PP                                                                      
   EAUG   =  627.112                                                                                
   DEXC   =    0.000                                                                                
   RMAX   =    1.529    core radius for proj-oper                                                   
   RAUG   =    1.300    factor for augmentation sphere                                              
   RDEP   =    1.514    radius for radial grids                                                     
   RDEPT  =    1.338    core radius for aug-charge                                                  
                                                                                                    
   Atomic configuration                                                                             
    4 entries                                                                                       
     n  l   j            E        occ.                                                              
     1  0  0.50      -384.7179   2.0000                                                             
     2  0  0.50       -18.5828   2.0000                                                             
     2  1  0.50        -7.0898   3.0000                                                             
     3  2  1.50        -6.8029   0.0000                                                             
   Description                                                                                      
     l       E           TYP  RCUT    TYP  RCUT                                                     
     0    -18.5828119     23  1.200                                                                 
     0    -13.5018863     23  1.200                                                                 
     1     -7.0897853     23  1.500                                                                 
     1      9.5240782     23  1.500                                                                 
     2     -6.8029130      7  1.500                                                                 
  local pseudopotential read in
  partial core-charges read in
  partial kinetic energy density read in
  atomic valenz-charges read in
  non local Contribution for L=           0  read in
    real space projection operators read in
  non local Contribution for L=           0  read in
    real space projection operators read in
  non local Contribution for L=           1  read in
    real space projection operators read in
  non local Contribution for L=           1  read in
    real space projection operators read in
    PAW grid and wavefunctions read in
 
   number of l-projection  operators is LMAX  =           4
   number of lm-projection operators is LMMAX =           8
 
 Optimization of the real space projectors (new method)

 maximal supplied QI-value         = 15.12
 optimisation between [QCUT,QGAM] = [ 11.34, 22.83] = [ 36.00,145.93] Ry 
 Optimized for a Real-space Cutoff    1.43 Angstroem

   l    n(q)    QCUT    max X(q) W(low)/X(q) W(high)/X(q)  e(spline) 
   2      9    11.338    53.897    0.16E-03    0.20E-03    0.28E-06
   2      9    11.338    52.416    0.16E-03    0.20E-03    0.29E-06
   0     10    11.338   122.045    0.31E-04    0.76E-04    0.15E-06
   0     10    11.338    73.629    0.30E-04    0.72E-04    0.15E-06
   1      9    11.338    15.255    0.20E-03    0.19E-04    0.17E-06
   1      9    11.338     9.562    0.16E-03    0.15E-04    0.14E-06
 Optimization of the real space projectors (new method)

 maximal supplied QI-value         = 13.98
 optimisation between [QCUT,QGAM] = [ 11.33, 22.79] = [ 35.93,145.49] Ry 
 Optimized for a Real-space Cutoff    1.56 Angstroem

   l    n(q)    QCUT    max X(q) W(low)/X(q) W(high)/X(q)  e(spline) 
   2     10    11.327   152.873    0.32E-03    0.72E-03    0.11E-05
   2     10    11.327   151.010    0.32E-03    0.72E-03    0.11E-05
   0     11    11.327    72.114    0.43E-04    0.61E-04    0.13E-06
   0     11    11.327    44.596    0.40E-04    0.57E-04    0.12E-06
   1     10    11.327    13.742    0.16E-03    0.10E-03    0.19E-06
   1     10    11.327     8.461    0.12E-03    0.78E-04    0.15E-06
 Optimization of the real space projectors (new method)

 maximal supplied QI-value         = 25.13
 optimisation between [QCUT,QGAM] = [ 11.31, 22.87] = [ 35.82,146.48] Ry 
 Optimized for a Real-space Cutoff    1.27 Angstroem

   l    n(q)    QCUT    max X(q) W(low)/X(q) W(high)/X(q)  e(spline) 
   0      9    11.310    79.467    0.75E-04    0.16E-03    0.36E-06
   0      9    11.310    66.151    0.74E-04    0.16E-03    0.36E-06
   1      8    11.310    17.416    0.35E-03    0.12E-03    0.95E-06
   1      8    11.310    12.382    0.37E-03    0.13E-03    0.98E-06
  PAW_PBE Ag 02Apr2005                  :
 energy of atom  1       EATOM=-1037.2675
 kinetic energy error for atom=    0.0052 (will be added to EATOM!!)
  PAW_PBE Os 17Jan2003                  :
 energy of atom  2       EATOM= -417.5999
 kinetic energy error for atom=    0.0029 (will be added to EATOM!!)
  PAW_PBE N 08Apr2002                   :
 energy of atom  3       EATOM= -264.5486
 kinetic energy error for atom=    0.0138 (will be added to EATOM!!)
 
 
 POSCAR: Ag-Os-N
  positions in direct lattice
  velocities in cartesian coordinates
 exchange correlation table for  LEXCH =        8
   RHO(1)=    0.500       N(1)  =     2000
   RHO(2)=  100.500       N(2)  =     4000

 VTST: version 3.2, (02/03/18)

 CHAIN: initializing optimizer
 
 OPT: Using VASP Conjugate-Gradient optimizer
 CHAIN: Read ICHAIN            0
 
 POSCAR: Ag-Os-N
  positions in direct lattice
  velocities in cartesian coordinates
 


--------------------------------------------------------------------------------------------------------


 ion  position               nearest neighbor table
   1  0.000  0.000  0.238-   2 2.93   8 2.93   7 2.93   6 2.93   4 2.93  12 2.93  16 2.93  10 2.93
                             3 2.93
   2  0.333  0.000  0.238-   1 2.93   8 2.93   9 2.93   3 2.93   4 2.93   5 2.93  10 2.93  17 2.93
                            11 2.93
   3  0.667  0.000  0.238-   9 2.93   2 2.93   5 2.93  11 2.93   7 2.93  18 2.93   1 2.93   6 2.93
                            12 2.93
   4  0.000  0.333  0.238-   5 2.93   6 2.93   2 2.93   1 2.93   7 2.93  13 2.93  15 2.93   9 2.93
                            10 2.93
   5  0.333  0.333  0.238-   4 2.93   3 2.93   7 2.93   2 2.93   8 2.93  14 2.93  13 2.93  11 2.93
                             6 2.93
   6  0.667  0.333  0.238-   4 2.93   9 2.93   1 2.93  15 2.93   8 2.93  12 2.93   3 2.93   5 2.93
                            14 2.93
   7  0.000  0.667  0.238-   8 2.93   1 2.93   5 2.93   3 2.93   4 2.93  16 2.93  18 2.93  13 2.93
                             9 2.93
   8  0.333  0.667  0.238-   7 2.93   1 2.93   2 2.93   9 2.93   5 2.93  16 2.93   6 2.93  17 2.93
                            14 2.93
   9  0.667  0.667  0.238-   3 2.93   2 2.93   8 2.93   6 2.93  17 2.93   4 2.93  15 2.93   7 2.93
                            18 2.93
  10  0.111  0.111  0.346-  20 2.89  12 2.93  16 2.93  15 2.93  17 2.93  13 2.93  11 2.93   2 2.93
                             1 2.93   4 2.93  19 2.93  26 2.93
  11  0.444  0.111  0.346-  21 2.89  20 2.89  27 2.92  14 2.93  17 2.93  18 2.93   3 2.93  12 2.93
                            13 2.93  10 2.93   5 2.93   2 2.93
  12  0.778  0.111  0.346-  21 2.89  10 2.93  16 2.93  18 2.93  15 2.93  11 2.93   1 2.93  14 2.93
                             6 2.93   3 2.93  25 2.93  19 2.93
  13  0.111  0.444  0.346-  20 2.89  23 2.89  22 2.92  15 2.93  14 2.93  18 2.93  10 2.93  11 2.93
                            16 2.93   4 2.93   5 2.93   7 2.93
  14  0.444  0.444  0.346-  23 2.89  21 2.89  24 2.92  13 2.93  11 2.93  16 2.93   5 2.93  12 2.93
                            17 2.93   8 2.93  15 2.93   6 2.93
  15  0.778  0.444  0.346-  24 2.92  22 2.92  19 2.93  13 2.93  10 2.93  12 2.93  17 2.93  18 2.93
                             4 2.93   6 2.93   9 2.93  14 2.93
  16  0.111  0.778  0.346-  23 2.89  18 2.93  12 2.93  10 2.93  14 2.93  17 2.93  13 2.93   7 2.93
                             8 2.93   1 2.93  26 2.93  25 2.93
  17  0.444  0.778  0.346-  27 2.92  24 2.92  26 2.93  11 2.93  10 2.93   9 2.93  18 2.93  15 2.93
                            16 2.93   2 2.93  14 2.93   8 2.93
  18  0.778  0.778  0.346-  22 2.92  27 2.92  25 2.93  16 2.93  12 2.93  13 2.93  11 2.93  17 2.93
                            15 2.93   7 2.93   3 2.93   9 2.93
  19  0.888  0.223  0.454-  28 2.90  24 2.93  22 2.93  15 2.93  20 2.93  21 2.93  10 2.93  12 2.93
                            26 2.94  25 2.94  32 2.95  31 2.95
  20  0.222  0.222  0.452-  36 2.76  13 2.89  11 2.89  10 2.89  31 2.93  29 2.93  21 2.93  23 2.93
                            19 2.93  26 2.93  27 2.94  22 2.94
  21  0.556  0.222  0.452-  36 2.76  11 2.89  14 2.89  12 2.89  30 2.93  32 2.93  20 2.93  23 2.93
                            25 2.93  19 2.93  27 2.94  24 2.94
  22  0.888  0.556  0.453-  35 2.90  18 2.92  15 2.92  24 2.92  27 2.92  13 2.92  25 2.93  19 2.93
                            33 2.94  31 2.94  23 2.94  20 2.94
  23  0.222  0.556  0.452-  36 2.76  14 2.89  13 2.89  16 2.89  34 2.93  33 2.93  21 2.93  20 2.93
                            26 2.93  25 2.93  22 2.94  24 2.94
  24  0.556  0.556  0.453-  35 2.90  15 2.92  17 2.92  27 2.92  22 2.92  14 2.92  19 2.93  26 2.93
                            32 2.94  34 2.94  23 2.94  21 2.94
  25  0.888  0.888  0.454-  28 2.90  22 2.93  27 2.93  18 2.93  23 2.93  21 2.93  16 2.93  12 2.93
                            26 2.94  19 2.94  33 2.95  30 2.95
  26  0.223  0.888  0.454-  28 2.90  27 2.93  24 2.93  17 2.93  23 2.93  20 2.93  16 2.93  10 2.93
                            25 2.94  19 2.94  34 2.95  29 2.95
  27  0.556  0.888  0.453-  35 2.90  17 2.92  18 2.92  24 2.92  22 2.92  11 2.92  26 2.93  25 2.93
                            29 2.94  30 2.94  20 2.94  21 2.94
  28  0.000  0.000  0.560-  26 2.90  25 2.90  19 2.90  29 2.96  34 2.96  33 2.96  32 2.96  31 2.96
                            30 2.96
  29  0.333  0.008  0.561-  31 2.86  30 2.87  36 2.88  20 2.93  27 2.94  26 2.95  28 2.96  35 2.97
                            34 3.06
  30  0.659  0.008  0.561-  32 2.86  29 2.87  36 2.88  21 2.93  27 2.94  25 2.95  28 2.96  35 2.97
                            33 3.06
  31  0.008  0.333  0.561-  29 2.86  33 2.87  36 2.88  20 2.93  22 2.94  19 2.95  28 2.96  35 2.97
                            32 3.06
  32  0.659  0.333  0.561-  30 2.86  34 2.87  36 2.88  21 2.93  24 2.94  19 2.95  28 2.96  35 2.97
                            31 3.06
  33  0.008  0.659  0.561-  34 2.86  31 2.87  36 2.88  23 2.93  22 2.94  25 2.95  28 2.96  35 2.97
                            30 3.06
  34  0.333  0.659  0.561-  33 2.86  32 2.87  36 2.88  23 2.93  24 2.94  26 2.95  28 2.96  35 2.97
                            29 3.06
  35  0.667  0.667  0.560-  24 2.90  27 2.90  22 2.90  30 2.97  32 2.97  29 2.97  34 2.97  31 2.97
                            33 2.97
  36  0.333  0.333  0.550-  37 1.69  21 2.76  20 2.76  23 2.76  31 2.88  30 2.88  33 2.88  29 2.88
                            34 2.88  32 2.88
  37  0.333  0.333  0.626-  36 1.69
 
  LATTYP: Found a hexagonal cell.
 ALAT       =     8.7913665772
 C/A-ratio  =     2.5227160501
  
  Lattice vectors:
  
 A1 = (  -4.3956832886,  -7.6135467898,   0.0000000000)
 A2 = (   8.7913665771,   0.0000000000,   0.0000000000)
 A3 = (   0.0000000000,   0.0000000000,  22.1781215668)


Analysis of symmetry for initial positions (statically):
=====================================================================
 Subroutine PRICEL returns:
 Original cell was already a primitive cell.
 

 Routine SETGRP: Setting up the symmetry group for a 
 hexagonal supercell.


 Subroutine GETGRP returns: Found  6 space group operations
 (whereof  6 operations were pure point group operations)
 out of a pool of 24 trial point group operations.


The static configuration has the point symmetry C_3v.


Analysis of symmetry for dynamics (positions and initial velocities):
=====================================================================
 Subroutine PRICEL returns:
 Original cell was already a primitive cell.
 

 Routine SETGRP: Setting up the symmetry group for a 
 hexagonal supercell.


 Subroutine GETGRP returns: Found  6 space group operations
 (whereof  6 operations were pure point group operations)
 out of a pool of 24 trial point group operations.


The dynamic configuration has the point symmetry C_3v.


Analysis of constrained symmetry for selective dynamics:
=====================================================================
 Subroutine PRICEL returns:
 Original cell was already a primitive cell.
 

 Routine SETGRP: Setting up the symmetry group for a 
 hexagonal supercell.


 Subroutine GETGRP returns: Found  6 space group operations
 (whereof  6 operations were pure point group operations)
 out of a pool of 24 trial point group operations.


The constrained configuration has the point symmetry C_3v.


 Subroutine INISYM returns: Found  6 space group operations
 (whereof  6 operations are pure point group operations),
 and found     1 'primitive' translations


----------------------------------------------------------------------------------------

                                     Primitive cell                                     

  volume of cell :    1484.4589

  direct lattice vectors                    reciprocal lattice vectors
     8.791366577  0.000000000  0.000000000     0.113747958 -0.065672414  0.000000000
     4.395683289  7.613546790  0.000000000     0.000000000  0.131344829  0.000000000
     0.000000000  0.000000000 22.178121567     0.000000000  0.000000000  0.045089481

  length of vectors
     8.791366577  8.791366577 22.178121567     0.131344829  0.131344829  0.045089481

  position of ions in fractional coordinates (direct lattice)
     0.000000000  0.000000000  0.238171124
     0.333333313  0.000000000  0.238171124
     0.666666627  0.000000000  0.238171124
     0.000000000  0.333333343  0.238171124
     0.333333313  0.333333343  0.238171124
     0.666666687  0.333333343  0.238171124
     0.000000000  0.666666687  0.238171124
     0.333333313  0.666666687  0.238171124
     0.666666627  0.666666687  0.238171124
     0.111111104  0.111111112  0.346057051
     0.444444448  0.111111112  0.346057051
     0.777777791  0.111111112  0.346057051
     0.111111097  0.444444448  0.346057051
     0.444444418  0.444444448  0.346057051
     0.777777791  0.444444448  0.346057051
     0.111111104  0.777777791  0.346057051
     0.444444448  0.777777791  0.346057051
     0.777777791  0.777777791  0.346057051
     0.888472583  0.223054850  0.454070997
     0.222244894  0.222244909  0.451887289
     0.555510152  0.222244909  0.451887289
     0.887954736  0.556022662  0.453364862
     0.222244909  0.555510212  0.451887289
     0.556022662  0.556022662  0.453364862
     0.888472583  0.888472583  0.454070997
     0.223054820  0.888472583  0.454070997
     0.556022602  0.887954736  0.453364862
     0.000000000  0.000000000  0.560339504
     0.333023651  0.007549730  0.561293130
     0.659426559  0.007549730  0.561293130
     0.007549730  0.333023681  0.561293130
     0.659426619  0.333023681  0.561293130
     0.007549730  0.659426619  0.561293130
     0.333023651  0.659426619  0.561293130
     0.666666627  0.666666687  0.560066152
     0.333333313  0.333333343  0.550232144
     0.333333313  0.333333343  0.626284455

  ion indices of the primitive-cell ions
   primitive index   ion index
                 1           1
                 2           2
                 3           3
                 4           4
                 5           5
                 6           6
                 7           7
                 8           8
                 9           9
                10          10
                11          11
                12          12
                13          13
                14          14
                15          15
                16          16
                17          17
                18          18
                19          19
                20          20
                21          21
                22          22
                23          23
                24          24
                25          25
                26          26
                27          27
                28          28
                29          29
                30          30
                31          31
                32          32
                33          33
                34          34
                35          35
                36          36
                37          37

----------------------------------------------------------------------------------------

 
 
 KPOINTS: Automatic mesh                          

Automatic generation of k-mesh.
 Grid dimensions read from file:
 generate k-points for:    8    8    1

 Generating k-lattice:

  Cartesian coordinates                     Fractional coordinates (reciprocal lattice)
     0.014218495 -0.008209052  0.000000000     0.125000000  0.000000000  0.000000000
     0.000000000  0.016418104  0.000000000     0.000000000  0.125000000  0.000000000
     0.000000000  0.000000000  0.045089481     0.000000000  0.000000000  1.000000000

  Length of vectors
     0.016418104  0.016418104  0.045089481

  Shift w.r.t. Gamma in fractional coordinates (k-lattice)
     0.000000000  0.000000000  0.000000000

 TETIRR: Found     36 inequivalent tetrahedra from      384
 
 Subroutine IBZKPT returns following result:
 ===========================================
 
 Found     10 irreducible k-points:
 
 Following reciprocal coordinates:
            Coordinates               Weight
  0.000000  0.000000  0.000000      1.000000
  0.125000 -0.000000  0.000000      6.000000
  0.250000 -0.000000  0.000000      6.000000
  0.375000 -0.000000  0.000000      6.000000
  0.500000 -0.000000  0.000000      3.000000
  0.250000  0.125000  0.000000      6.000000
  0.375000  0.125000  0.000000     12.000000
  0.500000  0.125000  0.000000     12.000000
  0.500000  0.250000  0.000000      6.000000
 -0.375000  0.250000  0.000000      6.000000
 
 Following cartesian coordinates:
            Coordinates               Weight
  0.000000  0.000000  0.000000      1.000000
  0.014218 -0.008209  0.000000      6.000000
  0.028437 -0.016418  0.000000      6.000000
  0.042655 -0.024627  0.000000      6.000000
  0.056874 -0.032836  0.000000      3.000000
  0.028437 -0.000000  0.000000      6.000000
  0.042655 -0.008209  0.000000     12.000000
  0.056874 -0.016418  0.000000     12.000000
  0.056874 -0.000000  0.000000      6.000000
 -0.042655  0.057463  0.000000      6.000000
 


--------------------------------------------------------------------------------------------------------




 Dimension of arrays:
   k-points           NKPTS =     10   k-points in BZ     NKDIM =     10   number of bands    NBANDS=    252
   number of dos      NEDOS =    301   number of ions     NIONS =     37
   non local maximal  LDIM  =      6   non local SUM 2l+1 LMDIM =     18
   total plane-waves  NPLWV = 290304
   max r-space proj   IRMAX =   3185   max aug-charges    IRDMAX=  11747
   dimension x,y,z NGX =    48 NGY =   48 NGZ =  126
   dimension x,y,z NGXF=    96 NGYF=   96 NGZF=  252
   support grid    NGXF=    96 NGYF=   96 NGZF=  252
   ions per type =              35   1   1
   NGX,Y,Z   is equivalent  to a cutoff of   9.08,  9.08,  9.44 a.u.
   NGXF,Y,Z  is equivalent  to a cutoff of  18.15, 18.15, 18.89 a.u.

 SYSTEM =  unknown system                          
 POSCAR =  Ag-Os-N                                 

 Startparameter for this run:
   NWRITE =      2    write-flag & timer
   PREC   = normal    normal or accurate (medium, high low for compatibility)
   ISTART =      0    job   : 0-new  1-cont  2-samecut
   ICHARG =     11    charge: 1-file 2-atom 10-const
   ISPIN  =      1    spin polarized calculation?
   LNONCOLLINEAR =      F non collinear calculations
   LSORBIT =      F    spin-orbit coupling
   INIWAV =      1    electr: 0-lowe 1-rand  2-diag
   LASPH  =      F    aspherical Exc in radial PAW
   METAGGA=      F    non-selfconsistent MetaGGA calc.

 Electronic Relaxation 1
   ENCUT  =  500.0 eV  36.75 Ry    6.06 a.u.  16.03 16.03 40.44*2*pi/ulx,y,z
   ENINI  =  500.0     initial cutoff
   ENAUG  =  627.1 eV  augmentation charge cutoff
   NELM   =    150;   NELMIN=  2; NELMDL= -5     # of ELM steps 
   EDIFF  = 0.1E-04   stopping-criterion for ELM
   LREAL  =      T    real-space projection
   NLSPLINE    = F    spline interpolate recip. space projectors
   LCOMPAT=      F    compatible to vasp.4.4
   GGA_COMPAT  = T    GGA compatible to vasp.4.4-vasp.4.6
   LMAXPAW     = -100 max onsite density
   LMAXMIX     =    2 max onsite mixed and CHGCAR
   VOSKOWN=      0    Vosko Wilk Nusair interpolation
   ROPT   =   -0.00050  -0.00050  -0.00050
 Ionic relaxation
   EDIFFG = -.1E-01   stopping-criterion for IOM
   NSW    =      0    number of steps for IOM
   NBLOCK =      1;   KBLOCK =      1    inner block; outer block 
   IBRION =     -1    ionic relax: 0-MD 1-quasi-New 2-CG
   NFREE  =      1    steps in history (QN), initial steepest desc. (CG)
   ISIF   =      2    stress and relaxation
   IWAVPR =     10    prediction:  0-non 1-charg 2-wave 3-comb
   ISYM   =      2    0-nonsym 1-usesym 2-fastsym
   LCORR  =      T    Harris-Foulkes like correction to forces

   POTIM  = 0.5000    time-step for ionic-motion
   TEIN   =    0.0    initial temperature
   TEBEG  =    0.0;   TEEND  =   0.0 temperature during run
   SMASS  =  -3.00    Nose mass-parameter (am)
   estimated Nose-frequenzy (Omega)   =  0.10E-29 period in steps = 0.13E+47 mass=  -0.177E-26a.u.
   SCALEE = 1.0000    scale energy and forces
   NPACO  =    256;   APACO  = 16.0  distance and # of slots for P.C.
   PSTRESS=    0.0 pullay stress

  Mass of Ions in am
   POMASS = 107.87190.20 14.00
  Ionic Valenz
   ZVAL   =  11.00  8.00  5.00
  Atomic Wigner-Seitz radii
   RWIGS  =  -1.00 -1.00 -1.00
  virtual crystal weights 
   VCA    =   1.00  1.00  1.00
   NELECT =     398.0000    total number of electrons
   NUPDOWN=      -1.0000    fix difference up-down

 DOS related values:
   EMIN   =  10.00;   EMAX   =-10.00  energy-range for DOS
   EFERMI =   0.00
   ISMEAR =    -5;   SIGMA  =   0.10  broadening in eV -4-tet -1-fermi 0-gaus

 Electronic relaxation 2 (details)
   IALGO  =     68    algorithm
   LDIAG  =      T    sub-space diagonalisation (order eigenvalues)
   LSUBROT=      F    optimize rotation matrix (better conditioning)
   TURBO    =      0    0=normal 1=particle mesh
   IRESTART =      0    0=no restart 2=restart with 2 vectors
   NREBOOT  =      0    no. of reboots
   NMIN     =      0    reboot dimension
   EREF     =   0.00    reference energy to select bands
   IMIX   =      4    mixing-type and parameters
     AMIX     =   0.40;   BMIX     =  1.00
     AMIX_MAG =   1.60;   BMIX_MAG =  1.00
     AMIN     =   0.10
     WC   =   100.;   INIMIX=   1;  MIXPRE=   1;  MAXMIX= -45

 Intra band minimization:
   WEIMIN = 0.0000     energy-eigenvalue tresh-hold
   EBREAK =  0.99E-08  absolut break condition
   DEPER  =   0.30     relativ break condition  

   TIME   =   0.40     timestep for ELM

  volume/ion in A,a.u.               =      40.12       270.75
  Fermi-wavevector in a.u.,A,eV,Ry     =   1.055633  1.994858 15.161814  1.114362
  Thomas-Fermi vector in A             =   2.190839
 
 Write flags
   LWAVE        =      F    write WAVECAR
   LDOWNSAMPLE  =      F    k-point downsampling of WAVECAR
   LCHARG       =      F    write CHGCAR
   LVTOT        =      F    write LOCPOT, total local potential
   LVHAR        =      F    write LOCPOT, Hartree potential only
   LELF         =      F    write electronic localiz. function (ELF)
   LORBIT       =     10    0 simple, 1 ext, 2 COOP (PROOUT), +10 PAW based schemes


 Dipole corrections
   LMONO  =      F    monopole corrections only (constant potential shift)
   LDIPOL =      F    correct potential (dipole corrections)
   IDIPOL =      0    1-x, 2-y, 3-z, 4-all directions 
   EPSILON=  1.0000000 bulk dielectric constant

 Exchange correlation treatment:
   GGA     =    --    GGA type
   LEXCH   =     8    internal setting for exchange type
   VOSKOWN=      0    Vosko Wilk Nusair interpolation
   LHFCALC =     F    Hartree Fock is set to
   LHFONE  =     F    Hartree Fock one center treatment
   AEXX    =    0.0000 exact exchange contribution

 Linear response parameters
   LEPSILON=     F    determine dielectric tensor
   LRPA    =     F    only Hartree local field effects (RPA)
   LNABLA  =     F    use nabla operator in PAW spheres
   LVEL    =     F    velocity operator in full k-point grid
   LINTERFAST=   F  fast interpolation
   KINTER  =     0    interpolate to denser k-point grid
   CSHIFT  =0.1000    complex shift for real part using Kramers Kronig
   OMEGAMAX=  -1.0    maximum frequency
   DEG_THRESHOLD= 0.2000000E-02 threshold for treating states as degnerate
   RTIME   =   -0.100 relaxation time in fs
  (WPLASMAI=    0.000 imaginary part of plasma frequency in eV, 0.658/RTIME)
   DFIELD  = 0.0000000 0.0000000 0.0000000 field for delta impulse in time
 
 Orbital magnetization related:
   ORBITALMAG=     F  switch on orbital magnetization
   LCHIMAG   =     F  perturbation theory with respect to B field
   DQ        =  0.001000  dq finite difference perturbation B field
   LLRAUG    =     F  two centre corrections for induced B field



--------------------------------------------------------------------------------------------------------


 Static calculation
 charge density and potential remain constant during run
 non-spin polarized calculation
 RMM-DIIS sequential band-by-band and
  variant of blocked Davidson during initial phase
 perform sub-space diagonalisation
    before iterative eigenvector-optimisation
 no mixing
 using additional bands           53
 real space projection scheme for non local part
 use partial core corrections
 calculate Harris-corrections to forces 
   (improved forces if not selfconsistent)
 use gradient corrections 
 WARNING: stress and forces are not correct
  (second derivative of E(xc) not defined)
 use of overlap-Matrix (Vanderbilt PP)
 Fermi weights with tetrahedron method with Bloechl corrections


--------------------------------------------------------------------------------------------------------


  energy-cutoff  :      500.00
  volume of cell :     1484.46
      direct lattice vectors                 reciprocal lattice vectors
     8.791366577  0.000000000  0.000000000     0.113747958 -0.065672414  0.000000000
     4.395683289  7.613546790  0.000000000     0.000000000  0.131344829  0.000000000
     0.000000000  0.000000000 22.178121567     0.000000000  0.000000000  0.045089481

  length of vectors
     8.791366577  8.791366577 22.178121567     0.131344829  0.131344829  0.045089481


 
 k-points in units of 2pi/SCALE and weight: Automatic mesh                          
   0.00000000  0.00000000  0.00000000       0.016
   0.01421849 -0.00820905  0.00000000       0.094
   0.02843699 -0.01641810  0.00000000       0.094
   0.04265548 -0.02462716  0.00000000       0.094
   0.05687398 -0.03283621  0.00000000       0.047
   0.02843699 -0.00000000  0.00000000       0.094
   0.04265548 -0.00820905  0.00000000       0.188
   0.05687398 -0.01641810  0.00000000       0.188
   0.05687398 -0.00000000  0.00000000       0.094
  -0.04265548  0.05746336  0.00000000       0.094
 
 k-points in reciprocal lattice and weights: Automatic mesh                          
   0.00000000  0.00000000  0.00000000       0.016
   0.12500000 -0.00000000  0.00000000       0.094
   0.25000000 -0.00000000  0.00000000       0.094
   0.37500000 -0.00000000  0.00000000       0.094
   0.50000000 -0.00000000  0.00000000       0.047
   0.25000000  0.12500000  0.00000000       0.094
   0.37500000  0.12500000  0.00000000       0.188
   0.50000000  0.12500000  0.00000000       0.188
   0.50000000  0.25000000  0.00000000       0.094
  -0.37500000  0.25000000  0.00000000       0.094
 
 position of ions in fractional coordinates (direct lattice) 
   0.00000000  0.00000000  0.23817112
   0.33333331  0.00000000  0.23817112
   0.66666663  0.00000000  0.23817112
   0.00000000  0.33333334  0.23817112
   0.33333331  0.33333334  0.23817112
   0.66666669  0.33333334  0.23817112
   0.00000000  0.66666669  0.23817112
   0.33333331  0.66666669  0.23817112
   0.66666663  0.66666669  0.23817112
   0.11111110  0.11111111  0.34605705
   0.44444445  0.11111111  0.34605705
   0.77777779  0.11111111  0.34605705
   0.11111110  0.44444445  0.34605705
   0.44444442  0.44444445  0.34605705
   0.77777779  0.44444445  0.34605705
   0.11111110  0.77777779  0.34605705
   0.44444445  0.77777779  0.34605705
   0.77777779  0.77777779  0.34605705
   0.88847258  0.22305485  0.45407100
   0.22224489  0.22224491  0.45188729
   0.55551015  0.22224491  0.45188729
   0.88795474  0.55602266  0.45336486
   0.22224491  0.55551021  0.45188729
   0.55602266  0.55602266  0.45336486
   0.88847258  0.88847258  0.45407100
   0.22305482  0.88847258  0.45407100
   0.55602260  0.88795474  0.45336486
   0.00000000  0.00000000  0.56033950
   0.33302365  0.00754973  0.56129313
   0.65942656  0.00754973  0.56129313
   0.00754973  0.33302368  0.56129313
   0.65942662  0.33302368  0.56129313
   0.00754973  0.65942662  0.56129313
   0.33302365  0.65942662  0.56129313
   0.66666663  0.66666669  0.56006615
   0.33333331  0.33333334  0.55023214
   0.33333331  0.33333334  0.62628445
 
 position of ions in cartesian coordinates  (Angst):
   0.00000000  0.00000000  5.28218814
   2.93045535  0.00000000  5.28218814
   5.86091070  0.00000000  5.28218814
   1.46522781  2.53784900  5.28218814
   4.39568315  2.53784900  5.28218814
   7.32613904  2.53784900  5.28218814
   2.93045562  5.07569801  5.28218814
   5.86091096  5.07569801  5.28218814
   8.79136632  5.07569801  5.28218814
   1.46522770  0.84594965  7.67489535
   4.39568332  0.84594965  7.67489535
   7.32613893  0.84594965  7.67489535
   2.93045542  3.38379860  7.67489535
   5.86091083  3.38379860  7.67489535
   8.79136671  3.38379860  7.67489535
   4.39568328  5.92164760  7.67489535
   7.32613890  5.92164760  7.67489535
  10.25659451  5.92164760  7.67489535
   8.79136665  1.69823853 10.07044178
   2.93075457  1.69207201 10.02201122
   5.86061162  1.69207201 10.02201122
  10.25043511  4.23330455 10.05478103
   4.39568342  4.22940299 10.02201122
   7.33229857  4.23330455 10.05478103
  11.71633226  6.76442758 10.07044178
   5.86640077  6.76442758 10.07044178
   8.79136631  6.76048493 10.05478103
   0.00000000  0.00000000 12.42727764
   2.96091922  0.05748023 12.44842727
   5.83044683  0.05748023 12.44842727
   1.53023908  2.53549138 12.44842727
   7.26112776  2.53549138 12.44842727
   2.96500301  5.02057542 12.44842727
   5.82636356  5.02057542 12.44842727
   8.79136632  5.07569801 12.42121520
   4.39568315  2.53784900 12.20311537
   4.39568315  2.53784900 13.88981277
 


--------------------------------------------------------------------------------------------------------


 k-point   1 :   0.0000 0.0000 0.0000  plane waves:   37683
 k-point   2 :   0.1250-0.0000 0.0000  plane waves:   37658
 k-point   3 :   0.2500-0.0000 0.0000  plane waves:   37682
 k-point   4 :   0.3750-0.0000 0.0000  plane waves:   37686
 k-point   5 :   0.5000-0.0000 0.0000  plane waves:   37668
 k-point   6 :   0.2500 0.1250 0.0000  plane waves:   37666
 k-point   7 :   0.3750 0.1250 0.0000  plane waves:   37708
 k-point   8 :   0.5000 0.1250 0.0000  plane waves:   37726
 k-point   9 :   0.5000 0.2500 0.0000  plane waves:   37706
 k-point  10 :  -0.3750 0.2500 0.0000  plane waves:   37686

 maximum and minimum number of plane-waves per node :     37726    37658

 maximum number of plane-waves:     37726
 maximum index in each direction: 
   IXMAX=   16   IYMAX=   16   IZMAX=   40
   IXMIN=  -16   IYMIN=  -16   IZMIN=  -40


 serial   3D FFT for wavefunctions
 parallel 3D FFT for charge:
    minimum data exchange during FFTs selected (reduces bandwidth)


 total amount of memory used by VASP MPI-rank0   123558. kBytes
=======================================================================

   base      :      30000. kBytes
   nonlr-proj:      15455. kBytes
   fftplans  :       4330. kBytes
   grid      :      17879. kBytes
   one-center:        575. kBytes
   wavefun   :      55319. kBytes
 
     INWAV:  cpu time    0.0000: real time    0.0000
 initial charge density was supplied:
 number of electron     398.0000027 magnetization 
 keeping initial charge density in first step


--------------------------------------------------------------------------------------------------------


 Maximum index for non-local projection operator         3042
 Maximum index for augmentation-charges          701 (set IRDMAX)


--------------------------------------------------------------------------------------------------------


 First call to EWALD:  gamma=   0.155
 Maximum number of real-space cells 4x 4x 2
 Maximum number of reciprocal cells 2x 2x 5

    FEWALD:  cpu time    0.0013: real time    0.0014


--------------------------------------- Iteration      1(   1)  ---------------------------------------


    POTLOK:  cpu time    0.0424: real time    0.0427
    SETDIJ:  cpu time    0.0046: real time    0.0048
     EDDAV:  cpu time    7.2090: real time    7.2108
 BZINTS: Fermi energy:    9.509616;  398.000000 electrons
         Band energy: 0.122496E+04;  BLOECHL correction:   -0.008895
       DOS:  cpu time    0.0109: real time    0.0140
    --------------------------------------------
      LOOP:  cpu time    7.2670: real time    7.2722

 eigenvalue-minimisations  :  5040
 total energy-change (2. order) : 0.2432675E+04  (-0.1843369E+05)
 number of electron     398.0000027 magnetization 
 augmentation part      398.0000027 magnetization 

 Free energy of the ion-electron system (eV)
  ---------------------------------------------------
  alpha Z        PSCENC =       767.66603706
  Ewald energy   TEWEN  =     98169.44157787
  -Hartree energ DENC   =   -135897.81485891
  -exchange      EXHF   =         0.00000000
  -V(xc)+E(xc)   XCENC  =      -401.53719666
  PAW double counting   =     39419.68915294   -37836.04680251
  entropy T*S    EENTRO =         0.00000000
  eigenvalues    EBANDS =      1224.96454582
  atomic energy  EATOM  =     36986.31269869
  Solvation  Ediel_sol  =         0.00000000
  ---------------------------------------------------
  free energy    TOTEN  =      2432.67515430 eV

  energy without entropy =     2432.67515430  energy(sigma->0) =     2432.67515430


--------------------------------------------------------------------------------------------------------




--------------------------------------- Iteration      1(   2)  ---------------------------------------


     EDDAV:  cpu time    7.5023: real time    7.5025
 BZINTS: Fermi energy:    1.359696;  398.000000 electrons
         Band energy:-0.122496E+04;  BLOECHL correction:   -0.038228
       DOS:  cpu time    0.0100: real time    0.0100
    --------------------------------------------
      LOOP:  cpu time    7.5123: real time    7.5125

 eigenvalue-minimisations  :  5320
 total energy-change (2. order) :-0.2449921E+04  (-0.2330677E+04)
 number of electron     398.0000027 magnetization 
 augmentation part      398.0000027 magnetization 

 Free energy of the ion-electron system (eV)
  ---------------------------------------------------
  alpha Z        PSCENC =       767.66603706
  Ewald energy   TEWEN  =     98169.44157787
  -Hartree energ DENC   =   -135897.81485891
  -exchange      EXHF   =         0.00000000
  -V(xc)+E(xc)   XCENC  =      -401.53719666
  PAW double counting   =     39419.68915294   -37836.04680251
  entropy T*S    EENTRO =         0.00000000
  eigenvalues    EBANDS =     -1224.95638644
  atomic energy  EATOM  =     36986.31269869
  Solvation  Ediel_sol  =         0.00000000
  ---------------------------------------------------
  free energy    TOTEN  =       -17.24577796 eV

  energy without entropy =      -17.24577796  energy(sigma->0) =      -17.24577796


--------------------------------------------------------------------------------------------------------




--------------------------------------- Iteration      1(   3)  ---------------------------------------


     EDDAV:  cpu time    8.4023: real time    8.4024
 BZINTS: Fermi energy:    0.831538;  398.000000 electrons
         Band energy:-0.131227E+04;  BLOECHL correction:   -0.074012
       DOS:  cpu time    0.0098: real time    0.0098
    --------------------------------------------
      LOOP:  cpu time    8.4121: real time    8.4122

 eigenvalue-minimisations  :  6104
 total energy-change (2. order) :-0.8731057E+02  (-0.8546104E+02)
 number of electron     398.0000027 magnetization 
 augmentation part      398.0000027 magnetization 

 Free energy of the ion-electron system (eV)
  ---------------------------------------------------
  alpha Z        PSCENC =       767.66603706
  Ewald energy   TEWEN  =     98169.44157787
  -Hartree energ DENC   =   -135897.81485891
  -exchange      EXHF   =         0.00000000
  -V(xc)+E(xc)   XCENC  =      -401.53719666
  PAW double counting   =     39419.68915294   -37836.04680251
  entropy T*S    EENTRO =         0.00000000
  eigenvalues    EBANDS =     -1312.26695982
  atomic energy  EATOM  =     36986.31269869
  Solvation  Ediel_sol  =         0.00000000
  ---------------------------------------------------
  free energy    TOTEN  =      -104.55635134 eV

  energy without entropy =     -104.55635134  energy(sigma->0) =     -104.55635134


--------------------------------------------------------------------------------------------------------




--------------------------------------- Iteration      1(   4)  ---------------------------------------


     EDDAV:  cpu time    7.7660: real time    7.7660
 BZINTS: Fermi energy:    0.821207;  398.000000 electrons
         Band energy:-0.131347E+04;  BLOECHL correction:   -0.073636
       DOS:  cpu time    0.0098: real time    0.0097
    --------------------------------------------
      LOOP:  cpu time    7.7757: real time    7.7758

 eigenvalue-minimisations  :  5544
 total energy-change (2. order) :-0.1204376E+01  (-0.1200732E+01)
 number of electron     398.0000027 magnetization 
 augmentation part      398.0000027 magnetization 

 Free energy of the ion-electron system (eV)
  ---------------------------------------------------
  alpha Z        PSCENC =       767.66603706
  Ewald energy   TEWEN  =     98169.44157787
  -Hartree energ DENC   =   -135897.81485891
  -exchange      EXHF   =         0.00000000
  -V(xc)+E(xc)   XCENC  =      -401.53719666
  PAW double counting   =     39419.68915294   -37836.04680251
  entropy T*S    EENTRO =         0.00000000
  eigenvalues    EBANDS =     -1313.47133620
  atomic energy  EATOM  =     36986.31269869
  Solvation  Ediel_sol  =         0.00000000
  ---------------------------------------------------
  free energy    TOTEN  =      -105.76072772 eV

  energy without entropy =     -105.76072772  energy(sigma->0) =     -105.76072772


--------------------------------------------------------------------------------------------------------




--------------------------------------- Iteration      1(   5)  ---------------------------------------


     EDDAV:  cpu time    8.4552: real time    8.4554
 BZINTS: Fermi energy:    0.821055;  398.000000 electrons
         Band energy:-0.131350E+04;  BLOECHL correction:   -0.073621
       DOS:  cpu time    0.0100: real time    0.0100
    --------------------------------------------
      LOOP:  cpu time    8.4652: real time    8.4653

 eigenvalue-minimisations  :  6132
 total energy-change (2. order) :-0.2898045E-01  (-0.2898525E-01)
 number of electron     398.0000027 magnetization 
 augmentation part      398.0000027 magnetization 

 Free energy of the ion-electron system (eV)
  ---------------------------------------------------
  alpha Z        PSCENC =       767.66603706
  Ewald energy   TEWEN  =     98169.44157787
  -Hartree energ DENC   =   -135897.81485891
  -exchange      EXHF   =         0.00000000
  -V(xc)+E(xc)   XCENC  =      -401.53719666
  PAW double counting   =     39419.68915294   -37836.04680251
  entropy T*S    EENTRO =         0.00000000
  eigenvalues    EBANDS =     -1313.50031664
  atomic energy  EATOM  =     36986.31269869
  Solvation  Ediel_sol  =         0.00000000
  ---------------------------------------------------
  free energy    TOTEN  =      -105.78970816 eV

  energy without entropy =     -105.78970816  energy(sigma->0) =     -105.78970816


--------------------------------------------------------------------------------------------------------




--------------------------------------- Iteration      1(   6)  ---------------------------------------


    EDDIAG:  cpu time    1.4070: real time    1.4074
  RMM-DIIS:  cpu time    3.9651: real time    3.9651
    ORTHCH:  cpu time    0.2593: real time    0.2593
 BZINTS: Fermi energy:    0.821051;  398.000000 electrons
         Band energy:-0.131350E+04;  BLOECHL correction:   -0.073621
       DOS:  cpu time    0.0099: real time    0.0099
    --------------------------------------------
      LOOP:  cpu time    5.6414: real time    5.6417

 eigenvalue-minimisations  :  5102
 total energy-change (2. order) :-0.6128866E-03  (-0.6130094E-03)
 number of electron     398.0000027 magnetization 
 augmentation part      398.0000027 magnetization 

 Free energy of the ion-electron system (eV)
  ---------------------------------------------------
  alpha Z        PSCENC =       767.66603706
  Ewald energy   TEWEN  =     98169.44157787
  -Hartree energ DENC   =   -135897.81485891
  -exchange      EXHF   =         0.00000000
  -V(xc)+E(xc)   XCENC  =      -401.53719666
  PAW double counting   =     39419.68915294   -37836.04680251
  entropy T*S    EENTRO =         0.00000000
  eigenvalues    EBANDS =     -1313.50092953
  atomic energy  EATOM  =     36986.31269869
  Solvation  Ediel_sol  =         0.00000000
  ---------------------------------------------------
  free energy    TOTEN  =      -105.79032105 eV

  energy without entropy =     -105.79032105  energy(sigma->0) =     -105.79032105


--------------------------------------------------------------------------------------------------------




--------------------------------------- Iteration      1(   7)  ---------------------------------------


    EDDIAG:  cpu time    1.4069: real time    1.4069
  RMM-DIIS:  cpu time    5.6005: real time    5.6005
    ORTHCH:  cpu time    0.2595: real time    0.2595
 BZINTS: Fermi energy:    0.821050;  398.000000 electrons
         Band energy:-0.131350E+04;  BLOECHL correction:   -0.073621
       DOS:  cpu time    0.0097: real time    0.0097
    --------------------------------------------
      LOOP:  cpu time    7.2766: real time    7.2766

 eigenvalue-minimisations  :  7240
 total energy-change (2. order) :-0.2092593E-03  (-0.2087065E-03)
 number of electron     398.0000027 magnetization 
 augmentation part      398.0000027 magnetization 

 Free energy of the ion-electron system (eV)
  ---------------------------------------------------
  alpha Z        PSCENC =       767.66603706
  Ewald energy   TEWEN  =     98169.44157787
  -Hartree energ DENC   =   -135897.81485891
  -exchange      EXHF   =         0.00000000
  -V(xc)+E(xc)   XCENC  =      -401.53719666
  PAW double counting   =     39419.68915294   -37836.04680251
  entropy T*S    EENTRO =         0.00000000
  eigenvalues    EBANDS =     -1313.50113879
  atomic energy  EATOM  =     36986.31269869
  Solvation  Ediel_sol  =         0.00000000
  ---------------------------------------------------
  free energy    TOTEN  =      -105.79053031 eV

  energy without entropy =     -105.79053031  energy(sigma->0) =     -105.79053031


--------------------------------------------------------------------------------------------------------




--------------------------------------- Iteration      1(   8)  ---------------------------------------


    EDDIAG:  cpu time    1.4087: real time    1.4088
  RMM-DIIS:  cpu time    3.6955: real time    3.6955
    ORTHCH:  cpu time    0.2591: real time    0.2591
 BZINTS: Fermi energy:    0.821050;  398.000000 electrons
         Band energy:-0.131350E+04;  BLOECHL correction:   -0.073621
       DOS:  cpu time    0.0099: real time    0.0099
    --------------------------------------------
      LOOP:  cpu time    5.3732: real time    5.3733

 eigenvalue-minimisations  :  4268
 total energy-change (2. order) :-0.1084467E-04  (-0.1075987E-04)
 number of electron     398.0000027 magnetization 
 augmentation part      398.0000027 magnetization 

 Free energy of the ion-electron system (eV)
  ---------------------------------------------------
  alpha Z        PSCENC =       767.66603706
  Ewald energy   TEWEN  =     98169.44157787
  -Hartree energ DENC   =   -135897.81485891
  -exchange      EXHF   =         0.00000000
  -V(xc)+E(xc)   XCENC  =      -401.53719666
  PAW double counting   =     39419.68915294   -37836.04680251
  entropy T*S    EENTRO =         0.00000000
  eigenvalues    EBANDS =     -1313.50114964
  atomic energy  EATOM  =     36986.31269869
  Solvation  Ediel_sol  =         0.00000000
  ---------------------------------------------------
  free energy    TOTEN  =      -105.79054115 eV

  energy without entropy =     -105.79054115  energy(sigma->0) =     -105.79054115


--------------------------------------------------------------------------------------------------------




--------------------------------------- Iteration      1(   9)  ---------------------------------------


    EDDIAG:  cpu time    1.4073: real time    1.4074
  RMM-DIIS:  cpu time    3.2701: real time    3.2702
    ORTHCH:  cpu time    0.2596: real time    0.2596
 BZINTS: Fermi energy:    0.821050;  398.000000 electrons
         Band energy:-0.131350E+04;  BLOECHL correction:   -0.073621
       DOS:  cpu time    0.0100: real time    0.0100
    --------------------------------------------
      LOOP:  cpu time    4.9470: real time    4.9471

 eigenvalue-minimisations  :  3428
 total energy-change (2. order) :-0.1527020E-05  (-0.1529188E-05)
 number of electron     398.0000027 magnetization 
 augmentation part      398.0000027 magnetization 

 Free energy of the ion-electron system (eV)
  ---------------------------------------------------
  alpha Z        PSCENC =       767.66603706
  Ewald energy   TEWEN  =     98169.44157787
  -Hartree energ DENC   =   -135897.81485891
  -exchange      EXHF   =         0.00000000
  -V(xc)+E(xc)   XCENC  =      -401.53719666
  PAW double counting   =     39419.68915294   -37836.04680251
  entropy T*S    EENTRO =         0.00000000
  eigenvalues    EBANDS =     -1313.50115116
  atomic energy  EATOM  =     36986.31269869
  Solvation  Ediel_sol  =         0.00000000
  ---------------------------------------------------
  free energy    TOTEN  =      -105.79054268 eV

  energy without entropy =     -105.79054268  energy(sigma->0) =     -105.79054268


--------------------------------------------------------------------------------------------------------




 average (electrostatic) potential at core
  the test charge radii are     1.1249  1.1957  0.7089
  (the norm of the test charge is              1.0000)
       1 -78.0664       2 -78.0490       3 -78.0489       4 -78.0490       5 -78.0309
       6 -78.0487       7 -78.0489       8 -78.0487       9 -78.0626      10 -78.2896
      11 -78.2889      12 -78.2893      13 -78.2889      14 -78.2885      15 -78.2770
      16 -78.2893      17 -78.2770      18 -78.2772      19 -78.2561      20 -78.4484
      21 -78.4480      22 -78.2774      23 -78.4480      24 -78.2771      25 -78.2562
      26 -78.2561      27 -78.2774      28 -77.9918      29 -77.9947      30 -77.9947
      31 -77.9947      32 -77.9944      33 -77.9947      34 -77.9944      35 -77.9659
      36 -51.6519      37 -69.2008
 
 
 
 E-fermi :   0.8210     XC(G=0):  -5.9456     alpha+bet : -5.6148

 Fermi energy:         0.8210497273

 k-point     1 :       0.0000    0.0000    0.0000
  band No.  band energies     occupation 
      1     -13.7599      2.00000
      2      -6.3361      2.00000
      3      -5.4788      2.00000
      4      -5.2293      2.00000
      5      -5.1921      2.00000
      6      -5.0908      2.00000
      7      -5.0908      2.00000
      8      -5.0544      2.00000
      9      -5.0263      2.00000
     10      -5.0263      2.00000
     11      -5.0134      2.00000
     12      -4.9919      2.00000
     13      -4.9784      2.00000
     14      -4.9784      2.00000
     15      -4.9770      2.00000
     16      -4.9673      2.00000
     17      -4.9672      2.00000
     18      -4.8852      2.00000
     19      -4.8852      2.00000
     20      -4.8607      2.00000
     21      -4.8069      2.00000
     22      -4.7944      2.00000
     23      -4.7944      2.00000
     24      -4.6587      2.00000
     25      -4.6256      2.00000
     26      -4.6164      2.00000
     27      -4.6164      2.00000
     28      -4.6049      2.00000
     29      -4.6049      2.00000
     30      -4.5972      2.00000
     31      -4.5913      2.00000
     32      -4.5908      2.00000
     33      -4.5908      2.00000
     34      -4.5540      2.00000
     35      -4.5540      2.00000
     36      -4.5083      2.00000
     37      -4.4491      2.00000
     38      -4.4362      2.00000
     39      -4.4362      2.00000
     40      -4.3872      2.00000
     41      -4.3872      2.00000
     42      -4.3688      2.00000
     43      -4.3688      2.00000
     44      -4.2885      2.00000
     45      -4.2270      2.00000
     46      -4.2269      2.00000
     47      -4.2056      2.00000
     48      -4.2056      2.00000
     49      -4.1968      2.00000
     50      -4.1932      2.00000
     51      -4.1932      2.00000
     52      -4.1269      2.00000
     53      -4.0639      2.00000
     54      -4.0549      2.00000
     55      -4.0334      2.00000
     56      -3.9823      2.00000
     57      -3.9823      2.00000
     58      -3.8544      2.00000
     59      -3.8356      2.00000
     60      -3.8356      2.00000
     61      -3.8320      2.00000
     62      -3.8182      2.00000
     63      -3.8108      2.00000
     64      -3.8108      2.00000
     65      -3.7828      2.00000
     66      -3.7828      2.00000
     67      -3.7656      2.00000
     68      -3.7656      2.00000
     69      -3.6924      2.00000
     70      -3.6722      2.00000
     71      -3.6721      2.00000
     72      -3.6486      2.00000
     73      -3.6486      2.00000
     74      -3.6475      2.00000
     75      -3.6317      2.00000
     76      -3.6316      2.00000
     77      -3.6252      2.00000
     78      -3.6175      2.00000
     79      -3.6174      2.00000
     80      -3.6124      2.00000
     81      -3.5913      2.00000
     82      -3.5912      2.00000
     83      -3.5659      2.00000
     84      -3.5659      2.00000
     85      -3.5546      2.00000
     86      -3.5208      2.00000
     87      -3.5034      2.00000
     88      -3.5034      2.00000
     89      -3.4339      2.00000
     90      -3.4273      2.00000
     91      -3.4273      2.00000
     92      -3.4061      2.00000
     93      -3.4061      2.00000
     94      -3.3824      2.00000
     95      -3.3823      2.00000
     96      -3.3539      2.00000
     97      -3.3539      2.00000
     98      -3.3276      2.00000
     99      -3.3276      2.00000
    100      -3.1492      2.00000
    101      -3.1339      2.00000
    102      -3.1338      2.00000
    103      -3.1184      2.00000
    104      -3.1174      2.00000
    105      -3.1174      2.00000
    106      -3.1042      2.00000
    107      -3.1042      2.00000
    108      -3.0789      2.00000
    109      -3.0487      2.00000
    110      -3.0487      2.00000
    111      -3.0410      2.00000
    112      -3.0209      2.00000
    113      -3.0209      2.00000
    114      -3.0044      2.00000
    115      -2.9908      2.00000
    116      -2.8653      2.00000
    117      -2.8652      2.00000
    118      -2.8447      2.00000
    119      -2.8447      2.00000
    120      -2.8215      2.00000
    121      -2.8215      2.00000
    122      -2.7789      2.00000
    123      -2.7784      2.00000
    124      -2.7784      2.00000
    125      -2.7567      2.00000
    126      -2.7387      2.00000
    127      -2.7373      2.00000
    128      -2.7372      2.00000
    129      -2.7231      2.00000
    130      -2.7231      2.00000
    131      -2.7226      2.00000
    132      -2.7225      2.00000
    133      -2.7010      2.00000
    134      -2.6798      2.00000
    135      -2.6798      2.00000
    136      -2.6670      2.00000
    137      -2.5359      2.00000
    138      -2.5323      2.00000
    139      -2.5322      2.00000
    140      -2.5214      2.00000
    141      -2.5213      2.00000
    142      -2.5213      2.00000
    143      -2.5033      2.00000
    144      -2.5032      2.00000
    145      -2.4896      2.00000
    146      -2.4881      2.00000
    147      -2.4880      2.00000
    148      -2.4742      2.00000
    149      -2.4531      2.00000
    150      -2.4531      2.00000
    151      -2.4334      2.00000
    152      -2.4159      2.00000
    153      -2.4100      2.00000
    154      -2.4038      2.00000
    155      -2.4037      2.00000
    156      -2.3829      2.00000
    157      -2.3817      2.00000
    158      -2.3817      2.00000
    159      -2.3460      2.00000
    160      -2.3460      2.00000
    161      -2.3234      2.00000
    162      -2.3162      2.00000
    163      -2.3117      2.00000
    164      -2.3059      2.00000
    165      -2.3059      2.00000
    166      -2.3034      2.00000
    167      -2.3034      2.00000
    168      -2.2972      2.00000
    169      -2.2598      2.00000
    170      -2.2598      2.00000
    171      -2.2546      2.00000
    172      -2.2546      2.00000
    173      -2.2488      2.00000
    174      -2.2369      2.00000
    175      -2.2073      2.00000
    176      -2.2072      2.00000
    177      -2.1495      2.00000
    178      -2.1495      2.00000
    179      -2.1238      2.00000
    180      -2.1181      2.00000
    181      -2.1181      2.00000
    182      -2.0941      2.00000
    183      -2.0400      2.00000
    184      -2.0163      2.00000
    185      -2.0162      2.00000
    186      -2.0072      2.00000
    187      -1.9748      2.00000
    188      -1.9748      2.00000
    189      -1.3026      2.00000
    190      -1.3025      2.00000
    191      -1.2925      2.00000
    192      -1.2396      2.00000
    193      -1.2395      2.00000
    194      -1.2345      2.00000
    195      -0.0430      2.00000
    196      -0.0430      2.00000
    197       0.0032      2.00000
    198       0.1638      2.00000
    199       0.4978      2.00000
    200       0.5399      2.00000
    201       0.5399      2.00000
    202       0.5598      2.46301
    203       0.5598      1.48888
    204       1.2953      0.00000
    205       2.1792      0.00000
    206       2.1792      0.00000
    207       2.2142      0.00000
    208       2.7095      0.00000
    209       2.7477      0.00000
    210       2.7477      0.00000
    211       2.9030      0.00000
    212       2.9030      0.00000
    213       4.0722      0.00000
    214       4.0743      0.00000
    215       4.3035      0.00000
    216       4.3035      0.00000
    217       4.3856      0.00000
    218       4.3856      0.00000
    219       4.5893      0.00000
    220       5.0634      0.00000
    221       5.0809      0.00000
    222       5.1025      0.00000
    223       5.1025      0.00000
    224       5.1125      0.00000
    225       5.1126      0.00000
    226       5.2031      0.00000
    227       5.2031      0.00000
    228       5.3169      0.00000
    229       5.3585      0.00000
    230       5.3761      0.00000
    231       5.4395      0.00000
    232       5.4396      0.00000
    233       6.0107      0.00000
    234       6.5834      0.00000
    235       6.7147      0.00000
    236       6.7147      0.00000
    237       6.7232      0.00000
    238       6.8549      0.00000
    239       6.8907      0.00000
    240       6.8907      0.00000
    241       7.0566      0.00000
    242       7.0567      0.00000
    243       7.0742      0.00000
    244       7.1510      0.00000
    245       7.1512      0.00000
    246       7.2147      0.00000
    247       7.2821      0.00000
    248       7.3580      0.00000
    249       7.3711      0.00000
    250       7.3723      0.00000
    251       7.4608      0.00000
    252       7.4649      0.00000

 k-point     2 :       0.1250   -0.0000    0.0000
  band No.  band energies     occupation 
      1     -13.7599      2.00000
      2      -6.2909      2.00000
      3      -5.4419      2.00000
      4      -5.2044      2.00000
      5      -5.1906      2.00000
      6      -5.1152      2.00000
      7      -5.0798      2.00000
      8      -5.0660      2.00000
      9      -5.0361      2.00000
     10      -5.0145      2.00000
     11      -5.0134      2.00000
     12      -4.9932      2.00000
     13      -4.9738      2.00000
     14      -4.9731      2.00000
     15      -4.9444      2.00000
     16      -4.9229      2.00000
     17      -4.9151      2.00000
     18      -4.9004      2.00000
     19      -4.8943      2.00000
     20      -4.8766      2.00000
     21      -4.7777      2.00000
     22      -4.7675      2.00000
     23      -4.7275      2.00000
     24      -4.6926      2.00000
     25      -4.6884      2.00000
     26      -4.6804      2.00000
     27      -4.6383      2.00000
     28      -4.6207      2.00000
     29      -4.6095      2.00000
     30      -4.5831      2.00000
     31      -4.5665      2.00000
     32      -4.5405      2.00000
     33      -4.5303      2.00000
     34      -4.5135      2.00000
     35      -4.5019      2.00000
     36      -4.4859      2.00000
     37      -4.4694      2.00000
     38      -4.4295      2.00000
     39      -4.4271      2.00000
     40      -4.3956      2.00000
     41      -4.3831      2.00000
     42      -4.3390      2.00000
     43      -4.3357      2.00000
     44      -4.3027      2.00000
     45      -4.2852      2.00000
     46      -4.2755      2.00000
     47      -4.2538      2.00000
     48      -4.2323      2.00000
     49      -4.1910      2.00000
     50      -4.1849      2.00000
     51      -4.1527      2.00000
     52      -4.1089      2.00000
     53      -4.0542      2.00000
     54      -4.0431      2.00000
     55      -4.0292      2.00000
     56      -3.9809      2.00000
     57      -3.9796      2.00000
     58      -3.8724      2.00000
     59      -3.8532      2.00000
     60      -3.8437      2.00000
     61      -3.8349      2.00000
     62      -3.8263      2.00000
     63      -3.8135      2.00000
     64      -3.8062      2.00000
     65      -3.8060      2.00000
     66      -3.7932      2.00000
     67      -3.7843      2.00000
     68      -3.7516      2.00000
     69      -3.7248      2.00000
     70      -3.6952      2.00000
     71      -3.6810      2.00000
     72      -3.6686      2.00000
     73      -3.6675      2.00000
     74      -3.6468      2.00000
     75      -3.6452      2.00000
     76      -3.6367      2.00000
     77      -3.6366      2.00000
     78      -3.6295      2.00000
     79      -3.6089      2.00000
     80      -3.6027      2.00000
     81      -3.5968      2.00000
     82      -3.5908      2.00000
     83      -3.5780      2.00000
     84      -3.5589      2.00000
     85      -3.5494      2.00000
     86      -3.5381      2.00000
     87      -3.5175      2.00000
     88      -3.5048      2.00000
     89      -3.4961      2.00000
     90      -3.4802      2.00000
     91      -3.4263      2.00000
     92      -3.4245      2.00000
     93      -3.4201      2.00000
     94      -3.3888      2.00000
     95      -3.3815      2.00000
     96      -3.3444      2.00000
     97      -3.2890      2.00000
     98      -3.2285      2.00000
     99      -3.2272      2.00000
    100      -3.2200      2.00000
    101      -3.1860      2.00000
    102      -3.1808      2.00000
    103      -3.1604      2.00000
    104      -3.1534      2.00000
    105      -3.1336      2.00000
    106      -3.1136      2.00000
    107      -3.1102      2.00000
    108      -3.1041      2.00000
    109      -3.0647      2.00000
    110      -3.0572      2.00000
    111      -3.0293      2.00000
    112      -3.0280      2.00000
    113      -3.0034      2.00000
    114      -2.9766      2.00000
    115      -2.9732      2.00000
    116      -2.9210      2.00000
    117      -2.9126      2.00000
    118      -2.8973      2.00000
    119      -2.8844      2.00000
    120      -2.8758      2.00000
    121      -2.8529      2.00000
    122      -2.8197      2.00000
    123      -2.8111      2.00000
    124      -2.8051      2.00000
    125      -2.7985      2.00000
    126      -2.7930      2.00000
    127      -2.7737      2.00000
    128      -2.7713      2.00000
    129      -2.7578      2.00000
    130      -2.7412      2.00000
    131      -2.7208      2.00000
    132      -2.7092      2.00000
    133      -2.7059      2.00000
    134      -2.6898      2.00000
    135      -2.6762      2.00000
    136      -2.6619      2.00000
    137      -2.6447      2.00000
    138      -2.6359      2.00000
    139      -2.6214      2.00000
    140      -2.6176      2.00000
    141      -2.5897      2.00000
    142      -2.5644      2.00000
    143      -2.5522      2.00000
    144      -2.5113      2.00000
    145      -2.5006      2.00000
    146      -2.4934      2.00000
    147      -2.4829      2.00000
    148      -2.4728      2.00000
    149      -2.4650      2.00000
    150      -2.4525      2.00000
    151      -2.4493      2.00000
    152      -2.4316      2.00000
    153      -2.4233      2.00000
    154      -2.4173      2.00000
    155      -2.4013      2.00000
    156      -2.3896      2.00000
    157      -2.3846      2.00000
    158      -2.3801      2.00000
    159      -2.3754      2.00000
    160      -2.3720      2.00000
    161      -2.3630      2.00000
    162      -2.3529      2.00000
    163      -2.3507      2.00000
    164      -2.3266      2.00000
    165      -2.3259      2.00000
    166      -2.3135      2.00000
[...]
  0.000   0.000   0.000   0.000   0.000   0.000   0.000   0.000   0.000   0.000   0.000   0.000   0.000   0.000   0.000   0.000
  0.000   0.000   0.000   0.000   0.000   0.000   0.000   0.000   0.000   0.000   0.000   0.000   0.000   0.000   0.000   0.000
  0.000   0.000   0.000   0.000   0.000   0.000   0.000   0.000   0.000   0.000   0.000   0.000   0.000   0.000   0.000   0.000
  0.000   0.000   0.000   0.000   0.000   0.000   0.000   0.000   0.000   0.000   0.000   0.000   0.000   0.000   0.000   0.000
  0.000   0.000   0.000   0.000   0.000   0.000   0.000   0.000   0.000   0.000   0.000   0.000   0.000   0.000   0.000   0.000
  0.000   0.000   0.000   0.000   0.000   0.000   0.000   0.000   0.000   0.000   1.000   0.000   0.000   0.000   0.000   0.000
  0.000   0.000   0.000   0.000   0.000   0.000   0.000   0.000   0.000   0.000   0.000   0.000   0.000   0.000   0.000   0.000
  0.000   0.000   0.000   0.000   0.000   0.000   0.000   0.000   0.000   0.000   0.000   0.000   0.000   0.000   0.000   0.000
  0.000   0.000   0.000   0.000   0.000   0.000   0.000   0.000   0.000   0.000   0.000   0.000   0.000   0.000   0.000   0.000
  0.000   0.000   0.000   0.000   0.000   0.000   0.000   0.000   0.000   0.000   0.000   0.000   0.000   0.000   0.000   0.000
  0.000   0.000   0.000   0.000   0.000   0.000   0.000   0.000   0.000   0.000   0.000   0.000   0.000   0.000   0.000   0.000
  0.000   0.000   0.000   0.000   0.000   0.000   0.000   0.000   0.000   0.000   0.000   0.000   0.000   0.000   0.000   0.000
  0.000   0.000   0.000   0.000   0.000   0.000   0.000   0.000   0.000   0.000   0.000   0.000   0.000   0.000   0.000   0.000


------------------------ aborting loop because EDIFF is reached ----------------------------------------





 total charge

# of ion       s       p       d       tot
------------------------------------------
    1        0.419   0.201   9.178   9.798
    2        0.415   0.204   9.177   9.796
    3        0.415   0.204   9.177   9.796
    4        0.415   0.204   9.177   9.796
    5        0.422   0.201   9.176   9.799
    6        0.415   0.204   9.177   9.796
    7        0.415   0.204   9.177   9.796
    8        0.415   0.204   9.177   9.796
    9        0.413   0.204   9.176   9.793
   10        0.408   0.267   9.165   9.840
   11        0.403   0.274   9.165   9.842
   12        0.408   0.267   9.165   9.840
   13        0.403   0.274   9.165   9.842
   14        0.403   0.274   9.165   9.842
   15        0.403   0.269   9.165   9.837
   16        0.408   0.267   9.165   9.840
   17        0.403   0.269   9.165   9.837
   18        0.403   0.269   9.165   9.837
   19        0.405   0.264   9.167   9.836
   20        0.434   0.302   9.145   9.882
   21        0.434   0.302   9.145   9.882
   22        0.394   0.276   9.166   9.836
   23        0.434   0.302   9.145   9.882
   24        0.394   0.276   9.166   9.836
   25        0.405   0.264   9.167   9.836
   26        0.405   0.264   9.167   9.836
   27        0.394   0.276   9.166   9.836
   28        0.417   0.194   9.182   9.793
   29        0.404   0.219   9.179   9.803
   30        0.404   0.219   9.179   9.803
   31        0.404   0.219   9.179   9.803
   32        0.404   0.219   9.179   9.803
   33        0.404   0.219   9.179   9.803
   34        0.404   0.219   9.179   9.803
   35        0.414   0.195   9.183   9.791
   36        0.693   0.613   6.165   7.471
   37        1.351   2.213   0.000   3.564
--------------------------------------------------
tot         16.386  11.318 327.116 354.819
 
    CHARGE:  cpu time    0.3364: real time    0.3365
    FORLOC:  cpu time    0.0100: real time    0.0100
    FORNL :  cpu time    1.4937: real time    1.4939
    STRESS:  cpu time    4.4562: real time    4.4564
    FORCOR:  cpu time    0.0429: real time    0.0429
    FORHAR:  cpu time    0.0165: real time    0.0166
    OFIELD:  cpu time    0.0002: real time    0.0002

  FORCE on cell =-STRESS in cart. coord.  units (eV):
  Direction    XX          YY          ZZ          XY          YZ          ZX
  --------------------------------------------------------------------------------------
  Alpha Z   767.66604   767.66604   767.66604
  Ewald  120901.25488120901.25492************     0.00003    -0.00000     0.00003
  Hartree131113.03261131113.03262************     0.00001    -0.00000     0.00001
  E(xc)   -2087.04638 -2087.04637 -2092.26678    -0.00001     0.00000     0.00000
  Local  ************************263410.95319     0.00037    -0.00005    -0.00014
  n-local  -361.79832  -343.52032  -350.48156    11.43606    -0.36538     0.52644
  augment  3238.71368  3238.71380  3242.96688    -0.00010     0.00000     0.00008
  Kinetic  4985.13381  4987.67160  4979.47242     4.39219     1.03907    -0.40702
  Fock        0.00000     0.00000     0.00000     0.00000     0.00000     0.00000
  -------------------------------------------------------------------------------------
  Total      -6.04594    -6.04594     0.09756    -0.00000     0.00000    -0.00000
  in kB      -6.52538    -6.52538     0.10530    -0.00000     0.00000    -0.00000
  external pressure =       -4.32 kB  Pullay stress =        0.00 kB


 VOLUME and BASIS-vectors are now :
 -----------------------------------------------------------------------------
  energy-cutoff  :      500.00
  volume of cell :     1484.46
      direct lattice vectors                 reciprocal lattice vectors
     8.791366577  0.000000000  0.000000000     0.113747958 -0.065672414  0.000000000
     4.395683289  7.613546790  0.000000000     0.000000000  0.131344829  0.000000000
     0.000000000  0.000000000 22.178121567     0.000000000  0.000000000  0.045089481

  length of vectors
     8.791366577  8.791366577 22.178121567     0.131344829  0.131344829  0.045089481


 FORCES acting on ions
    electron-ion (+dipol)            ewald-force                    non-local-force                 convergence-correction
 -----------------------------------------------------------------------------------------------
   0.459E-04 -.283E-04 0.251E+04   -.954E-04 0.593E-04 -.251E+04   0.104E-16 -.287E-17 -.191E+01   -.126E-03 -.179E-03 -.109E+00
   0.527E+00 0.475E+00 0.251E+04   -.566E+00 -.563E+00 -.251E+04   0.237E-01 0.105E+00 -.165E+01   0.223E-01 -.103E-01 -.847E-01
   -.527E+00 0.475E+00 0.251E+04   0.566E+00 -.563E+00 -.251E+04   -.237E-01 0.105E+00 -.165E+01   -.228E-01 -.829E-02 -.840E-01
   0.674E+00 0.219E+00 0.251E+04   -.770E+00 -.208E+00 -.251E+04   0.103E+00 -.322E-01 -.165E+01   0.245E-02 0.246E-01 -.847E-01
   -.626E-05 -.192E-04 0.251E+04   0.980E-04 -.197E-05 -.251E+04   0.354E-18 0.411E-19 -.157E+01   0.630E-02 0.385E-02 -.153E-01
   -.674E+00 0.219E+00 0.251E+04   0.770E+00 -.209E+00 -.251E+04   -.103E+00 -.322E-01 -.165E+01   -.391E-02 0.256E-01 -.837E-01
   0.148E+00 -.693E+00 0.251E+04   -.205E+00 0.771E+00 -.251E+04   0.795E-01 -.732E-01 -.165E+01   -.181E-01 -.151E-01 -.839E-01
   -.148E+00 -.693E+00 0.251E+04   0.204E+00 0.771E+00 -.251E+04   -.795E-01 -.732E-01 -.165E+01   0.198E-01 -.161E-01 -.837E-01
   0.361E-04 -.131E-04 0.251E+04   0.792E-04 -.643E-04 -.251E+04   -.310E-17 -.334E-17 -.172E+01   -.670E-02 -.346E-02 -.705E-01
   0.657E+01 0.379E+01 0.849E+03   -.625E+01 -.361E+01 -.848E+03   -.340E+00 -.196E+00 -.638E+00   -.470E-02 -.269E-02 0.401E-02
   -.287E-04 0.572E+01 0.856E+03   0.410E-04 -.586E+01 -.856E+03   0.977E-12 0.149E+00 -.425E+00   0.644E-02 -.472E-01 -.108E-01
   -.657E+01 0.379E+01 0.849E+03   0.625E+01 -.361E+01 -.848E+03   0.340E+00 -.196E+00 -.638E+00   0.294E-02 -.120E-02 0.453E-02
   0.495E+01 -.286E+01 0.856E+03   -.508E+01 0.293E+01 -.856E+03   0.129E+00 -.744E-01 -.425E+00   -.378E-01 0.292E-01 -.109E-01
   -.495E+01 -.286E+01 0.856E+03   0.508E+01 0.293E+01 -.856E+03   -.129E+00 -.744E-01 -.425E+00   0.489E-01 0.285E-01 -.107E-01
   0.159E-04 0.168E+01 0.849E+03   -.109E-03 -.176E+01 -.849E+03   0.107E-13 0.163E-02 -.620E+00   -.195E-02 0.581E-01 -.367E-01
   -.806E-05 -.758E+01 0.849E+03   0.205E-04 0.721E+01 -.848E+03   0.258E-11 0.393E+00 -.638E+00   0.387E-03 0.307E-02 0.454E-02
   0.145E+01 -.838E+00 0.849E+03   -.153E+01 0.882E+00 -.849E+03   0.141E-02 -.814E-03 -.620E+00   0.493E-01 -.308E-01 -.367E-01
   -.145E+01 -.838E+00 0.849E+03   0.153E+01 0.882E+00 -.849E+03   -.141E-02 -.814E-03 -.620E+00   -.494E-01 -.286E-01 -.363E-01
   0.394E-04 0.226E+01 -.844E+03   -.128E-03 -.208E+01 0.843E+03   -.716E-12 -.109E+00 0.568E+00   -.616E-02 -.733E-01 -.655E-02
   0.118E+02 0.682E+01 -.803E+03   -.109E+02 -.630E+01 0.804E+03   -.100E+01 -.580E+00 -.593E+00   -.693E-01 -.399E-01 -.333E-02
   -.118E+02 0.682E+01 -.803E+03   0.109E+02 -.630E+01 0.804E+03   0.100E+01 -.580E+00 -.593E+00   0.708E-01 -.386E-01 -.327E-02
   0.219E+01 -.126E+01 -.831E+03   -.248E+01 0.143E+01 0.830E+03   0.366E+00 -.212E+00 0.727E+00   -.444E-01 0.208E-01 -.623E-01
   -.538E-04 -.136E+02 -.803E+03   0.430E-04 0.126E+02 0.804E+03   0.761E-11 0.116E+01 -.593E+00   0.231E-02 0.812E-01 -.324E-02
   -.219E+01 -.126E+01 -.831E+03   0.248E+01 0.143E+01 0.830E+03   -.366E+00 -.212E+00 0.727E+00   0.337E-01 0.196E-01 -.627E-01
   -.196E+01 -.113E+01 -.844E+03   0.180E+01 0.104E+01 0.843E+03   0.944E-01 0.545E-01 0.568E+00   0.575E-01 0.330E-01 -.730E-02
   0.196E+01 -.113E+01 -.844E+03   -.180E+01 0.104E+01 0.843E+03   -.944E-01 0.545E-01 0.568E+00   -.669E-01 0.312E-01 -.651E-02
   0.205E-04 0.253E+01 -.831E+03   0.110E-03 -.287E+01 0.830E+03   0.278E-11 0.423E+00 0.727E+00   -.489E-02 -.488E-01 -.623E-01
   0.536E-04 -.364E-04 -.248E+04   -.115E-03 0.778E-04 0.248E+04   -.937E-17 -.678E-17 0.192E+01   0.115E-02 0.527E-03 0.122E+00
   0.223E+02 0.401E+02 -.248E+04   -.220E+02 -.398E+02 0.248E+04   -.427E+00 -.593E+00 0.219E+01   -.307E-01 0.636E-02 0.978E-01
   -.223E+02 0.401E+02 -.248E+04   0.220E+02 -.398E+02 0.248E+04   0.427E+00 -.593E+00 0.219E+01   0.202E-01 0.833E-02 0.976E-01
   0.458E+02 -.752E+00 -.248E+04   -.455E+02 0.869E+00 0.248E+04   -.728E+00 -.734E-01 0.219E+01   -.963E-02 -.296E-01 0.978E-01
   -.458E+02 -.752E+00 -.248E+04   0.455E+02 0.869E+00 0.248E+04   0.728E+00 -.734E-01 0.219E+01   -.204E-02 -.288E-01 0.969E-01
   0.236E+02 -.393E+02 -.248E+04   -.235E+02 0.389E+02 0.248E+04   -.300E+00 0.667E+00 0.219E+01   0.178E-01 0.139E-01 0.976E-01
   -.236E+02 -.393E+02 -.248E+04   0.235E+02 0.389E+02 0.248E+04   0.300E+00 0.667E+00 0.219E+01   -.263E-01 0.127E-01 0.969E-01
   0.223E-04 -.122E-04 -.248E+04   0.106E-03 -.658E-04 0.248E+04   -.475E-17 -.908E-18 0.204E+01   -.551E-02 -.275E-02 0.134E+00
   -.309E-05 -.173E-04 -.156E+04   0.774E-04 0.978E-05 0.156E+04   -.271E-17 -.525E-17 0.177E+01   0.281E-02 0.167E-02 -.589E-02
   0.107E-03 -.598E-04 -.139E+04   0.255E-04 0.391E-06 0.142E+04   -.392E-18 0.436E-18 -.243E+02   0.204E-02 0.123E-02 -.769E-01
 -----------------------------------------------------------------------------------------------
   0.474E-03 -.751E-03 0.238E+02   0.279E-13 -.302E-13 0.887E-11   -.174E-15 -.572E-17 -.234E+02   -.442E-01 -.223E-01 -.289E+00
 
 
 POSITION                                       TOTAL-FORCE (eV/Angst)
 -----------------------------------------------------------------------------------
      0.00000      0.00000      5.28219        -0.000000     -0.000000     -0.009751
      2.93046      0.00000      5.28219         0.007568      0.008076      0.042737
      5.86091      0.00000      5.28219        -0.007568      0.008076      0.042737
      1.46523      2.53785      5.28219         0.010778      0.002516      0.042737
      4.39568      2.53785      5.28219         0.000000     -0.000000      0.010573
      7.32614      2.53785      5.28219        -0.010778      0.002516      0.042737
      2.93046      5.07570      5.28219         0.003210     -0.010592      0.042737
      5.86091      5.07570      5.28219        -0.003210     -0.010592      0.042737
      8.79137      5.07570      5.28219         0.000000      0.000000      0.032186
      1.46523      0.84595      7.67490        -0.026221     -0.015139     -0.008045
      4.39568      0.84595      7.67490        -0.000000     -0.045678     -0.067925
      7.32614      0.84595      7.67490         0.026221     -0.015139     -0.008045
      2.93046      3.38380      7.67490        -0.039558      0.022839     -0.067925
      5.86091      3.38380      7.67490         0.039558      0.022839     -0.067925
      8.79137      3.38380      7.67490        -0.000000     -0.028586      0.005569
      4.39568      5.92165      7.67490         0.000000      0.030278     -0.008045
      7.32614      5.92165      7.67490        -0.024756      0.014293      0.005569
     10.25659      5.92165      7.67490         0.024756      0.014293      0.005569
      8.79137      1.69824     10.07044         0.000000      0.006113     -0.001536
      2.93075      1.69207     10.02201        -0.171647     -0.099100     -0.210292
      5.86061      1.69207     10.02201         0.171647     -0.099100     -0.210292
     10.25044      4.23330     10.05478         0.033161     -0.019146      0.001749
      4.39568      4.22940     10.02201         0.000000      0.198201     -0.210292
      7.33230      4.23330     10.05478        -0.033161     -0.019146      0.001749
     11.71633      6.76443     10.07044        -0.005294     -0.003057     -0.001536
      5.86640      6.76443     10.07044         0.005294     -0.003057     -0.001536
      8.79137      6.76048     10.05478         0.000000      0.038291      0.001749
      0.00000      0.00000     12.42728         0.000000     -0.000000      0.018029
      2.96092      0.05748     12.44843        -0.170850     -0.329408     -0.169604
      5.83045      0.05748     12.44843         0.170850     -0.329408     -0.169604
      1.53024      2.53549     12.44843        -0.370701      0.016744     -0.169604
      7.26113      2.53549     12.44843         0.370701      0.016744     -0.169604
      2.96500      5.02058     12.44843        -0.199851      0.312664     -0.169604
      5.82636      5.02058     12.44843         0.199851      0.312664     -0.169604
      8.79137      5.07570     12.42122         0.000000      0.000000      0.027151
      4.39568      2.53785     12.20312         0.000000      0.000000      1.551975
      4.39568      2.53785     13.88981         0.000000      0.000000     -0.027525
 -----------------------------------------------------------------------------------
    total drift:                               -0.043751     -0.023021      0.047771


--------------------------------------------------------------------------------------------------------



  FREE ENERGIE OF THE ION-ELECTRON SYSTEM (eV)
  ---------------------------------------------------
  free  energy   TOTEN  =      -105.79054268 eV

  energy  without entropy=     -105.79054268  energy(sigma->0) =     -105.79054268
 


--------------------------------------------------------------------------------------------------------


    POTLOK:  cpu time    0.0532: real time    0.0532


--------------------------------------------------------------------------------------------------------


 stress matrix after NEB project (eV)
     -6.04594     -0.00000     -0.00000
     -0.00000     -6.04594      0.00000
      0.00000      0.00000      0.09756
  FORCES: max atom, RMS     0.027525    0.004525
  FORCE total and by dimension    0.027525    0.027525
  Stress total and by dimension    8.550803    6.045937
     LOOP+:  cpu time   69.1271: real time   69.1385
 -----------------------------------------------------------------------------
|                                                                             |
|           W    W    AA    RRRRR   N    N  II  N    N   GGGG   !!!           |
|           W    W   A  A   R    R  NN   N  II  NN   N  G    G  !!!           |
|           W    W  A    A  R    R  N N  N  II  N N  N  G       !!!           |
|           W WW W  AAAAAA  RRRRR   N  N N  II  N  N N  G  GGG   !            |
|           WW  WW  A    A  R   R   N   NN  II  N   NN  G    G                |
|           W    W  A    A  R    R  N    N  II  N    N   GGGG   !!!           |
|                                                                             |
|     Tetrahedron method does not include variations of the Fermi             |
|     occupations, so forces and stress will be inaccurate. We suggest        |
|     using a different smearing scheme ISMEAR = 1 or 2 for metals in         |
|     relaxations.                                                            |
|                                                                             |
 -----------------------------------------------------------------------------

    4ORBIT:  cpu time    0.0000: real time    0.0000



 total charge

# of ion       s       p       d       tot
------------------------------------------
    1        0.419   0.201   9.178   9.798
    2        0.415   0.204   9.177   9.796
    3        0.415   0.204   9.177   9.796
    4        0.415   0.204   9.177   9.796
    5        0.422   0.201   9.176   9.799
    6        0.415   0.204   9.177   9.796
    7        0.415   0.204   9.177   9.796
    8        0.415   0.204   9.177   9.796
    9        0.413   0.204   9.176   9.793
   10        0.408   0.267   9.165   9.840
   11        0.403   0.274   9.165   9.842
   12        0.408   0.267   9.165   9.840
   13        0.403   0.274   9.165   9.842
   14        0.403   0.274   9.165   9.842
   15        0.403   0.269   9.165   9.837
   16        0.408   0.267   9.165   9.840
   17        0.403   0.269   9.165   9.837
   18        0.403   0.269   9.165   9.837
   19        0.405   0.264   9.167   9.836
   20        0.434   0.302   9.145   9.882
   21        0.434   0.302   9.145   9.882
   22        0.394   0.276   9.166   9.836
   23        0.434   0.302   9.145   9.882
   24        0.394   0.276   9.166   9.836
   25        0.405   0.264   9.167   9.836
   26        0.405   0.264   9.167   9.836
   27        0.394   0.276   9.166   9.836
   28        0.417   0.194   9.182   9.793
   29        0.404   0.219   9.179   9.803
   30        0.404   0.219   9.179   9.803
   31        0.404   0.219   9.179   9.803
   32        0.404   0.219   9.179   9.803
   33        0.404   0.219   9.179   9.803
   34        0.404   0.219   9.179   9.803
   35        0.414   0.195   9.183   9.791
   36        0.693   0.613   6.165   7.471
   37        1.351   2.213   0.000   3.564
--------------------------------------------------
tot         16.386  11.318 327.116 354.819
 
 BZINTS: Fermi energy:    0.821050;  398.000000 electrons
         Band energy:-0.131350E+04;  BLOECHL correction:   -0.073621

 total amount of memory used by VASP MPI-rank0   123558. kBytes
=======================================================================

   base      :      30000. kBytes
   nonlr-proj:      15455. kBytes
   fftplans  :       4330. kBytes
   grid      :      17879. kBytes
   one-center:        575. kBytes
   wavefun   :      55319. kBytes
 
  
  
 General timing and accounting informations for this job:
 ========================================================
  
                  Total CPU time used (sec):       76.446
                            User time (sec):       73.639
                          System time (sec):        2.807
                         Elapsed time (sec):       76.843
  
                   Maximum memory used (kb):      379880.
                   Average memory used (kb):          N/A
  
                          Minor page faults:        74372
                          Major page faults:            0
                 Voluntary context switches:         4702
