PROCAR new format
# of k-points:   10         # of bands:  252         # of ions:   37

 k-point     1 :    0.00000000 0.00000000 0.00000000     weight = 0.01562500

band     1 # energy  -13.75989688 # occ.  2.00000000
 
ion      s      p      d    tot
    1  0.000  0.000  0.000  0.000
    2  0.000  0.000  0.000  0.000
    3  0.000  0.000  0.000  0.000
    4  0.000  0.000  0.000  0.000
    5  0.000  0.000  0.000  0.000
    6  0.000  0.000  0.000  0.000
    7  0.000  0.000  0.000  0.000
    8  0.000  0.000  0.000  0.000
    9  0.000  0.000  0.000  0.000
   10  0.000  0.000  0.000  0.000
   11  0.000  0.000  0.000  0.000
   12  0.000  0.000  0.000  0.000
   13  0.000  0.000  0.000  0.000
   14  0.000  0.000  0.000  0.000
   15  0.000  0.000  0.000  0.000
   16  0.000  0.000  0.000  0.000
   17  0.000  0.000  0.000  0.000
   18  0.000  0.000  0.000  0.000
   19  0.000  0.000  0.000  0.000
   20  0.000  0.000  0.000  0.001
   21  0.000  0.000  0.000  0.001
   22  0.000  0.000  0.000  0.000
   23  0.000  0.000  0.000  0.001
   24  0.000  0.000  0.000  0.000
   25  0.000  0.000  0.000  0.000
   26  0.000  0.000  0.000  0.000
   27  0.000  0.000  0.000  0.000
   28  0.000  0.000  0.000  0.000
   29  0.000  0.000  0.000  0.000
   30  0.000  0.000  0.000  0.000
   31  0.000  0.000  0.000  0.000
   32  0.000  0.000  0.000  0.000
   33  0.000  0.000  0.000  0.000
   34  0.000  0.000  0.000  0.000
   35  0.000  0.000  0.000  0.000
   36  0.085  0.072  0.179  0.336
   37  0.607  0.028  0.000  0.636
tot    0.694  0.102  0.180  0.975
 
band     2 # energy   -6.33614998 # occ.  2.00000000
 
ion      s      p      d    tot
    1  0.005  0.001  0.000  0.006
    2  0.005  0.001  0.000  0.006
    3  0.005  0.001  0.000  0.006
    4  0.005  0.001  0.000  0.006
    5  0.005  0.001  0.000  0.006
    6  0.005  0.001  0.000  0.006
    7  0.005  0.001  0.000  0.006
    8  0.005  0.001  0.000  0.006
    9  0.005  0.000  0.000  0.006
   10  0.022  0.000  0.000  0.022
   11  0.022  0.000  0.000  0.023
   12  0.022  0.000  0.000  0.022
   13  0.022  0.000  0.000  0.023
   14  0.022  0.000  0.000  0.023
   15  0.020  0.000  0.000  0.021
   16  0.022  0.000  0.000  0.022
   17  0.020  0.000  0.000  0.021
   18  0.020  0.000  0.000  0.021
   19  0.022  0.000  0.001  0.022
   20  0.029  0.000  0.001  0.030
   21  0.029  0.000  0.001  0.030
   22  0.022  0.000  0.000  0.023
   23  0.029  0.000  0.001  0.030
   24  0.022  0.000  0.000  0.023
   25  0.022  0.000  0.001  0.022
   26  0.022  0.000  0.001  0.022
   27  0.022  0.000  0.000  0.023
   28  0.005  0.001  0.000  0.006
   29  0.006  0.001  0.000  0.007
   30  0.006  0.001  0.000  0.007
   31  0.006  0.001  0.000  0.007
   32  0.006  0.001  0.000  0.007
   33  0.006  0.001  0.000  0.007
   34  0.006  0.001  0.000  0.007
   35  0.005  0.001  0.000  0.006
   36  0.015  0.004  0.000  0.019
   37  0.003  0.001  0.000  0.003
tot    0.525  0.016  0.009  0.551
 
band     3 # energy   -5.47881504 # occ.  2.00000000
 
ion      s      p      d    tot
    1  0.008  0.000  0.001  0.009
    2  0.009  0.000  0.000  0.010
    3  0.009  0.000  0.000  0.010
    4  0.009  0.000  0.000  0.010
    5  0.009  0.000  0.000  0.010
    6  0.009  0.000  0.000  0.010
    7  0.009  0.000  0.000  0.010
    8  0.009  0.000  0.000  0.010
    9  0.010  0.001  0.000  0.011
   10  0.011  0.001  0.016  0.028
   11  0.013  0.001  0.012  0.025
   12  0.011  0.001  0.016  0.028
   13  0.013  0.001  0.012  0.025
   14  0.013  0.001  0.012  0.025
   15  0.015  0.001  0.010  0.025
   16  0.011  0.001  0.016  0.028
   17  0.015  0.001  0.010  0.025
   18  0.015  0.001  0.010  0.025
   19  0.006  0.001  0.013  0.020
   20  0.016  0.002  0.018  0.036
   21  0.016  0.002  0.018  0.036
   22  0.005  0.001  0.011  0.018
   23  0.016  0.002  0.018  0.036
   24  0.005  0.001  0.011  0.018
   25  0.006  0.001  0.013  0.020
   26  0.006  0.001  0.013  0.020
   27  0.005  0.001  0.011  0.018
   28  0.005  0.000  0.001  0.005
   29  0.007  0.000  0.002  0.009
   30  0.007  0.000  0.002  0.009
   31  0.007  0.000  0.002  0.009
   32  0.007  0.000  0.002  0.009
   33  0.007  0.000  0.002  0.009
   34  0.007  0.000  0.002  0.009
   35  0.004  0.000  0.000  0.004
   36  0.028  0.005  0.000  0.033
   37  0.004  0.003  0.000  0.007
tot    0.361  0.035  0.256  0.652
 
band     4 # energy   -5.22927550 # occ.  2.00000000
 
ion      s      p      d    tot
    1  0.004  0.000  0.009  0.013
    2  0.004  0.000  0.005  0.009
    3  0.004  0.000  0.005  0.009
    4  0.004  0.000  0.005  0.009
    5  0.003  0.000  0.004  0.007
    6  0.004  0.000  0.005  0.009
    7  0.004  0.000  0.005  0.009
    8  0.004  0.000  0.005  0.009
    9  0.005  0.000  0.004  0.009
   10  0.000  0.000  0.017  0.018
   11  0.000  0.000  0.009  0.010
   12  0.000  0.000  0.017  0.018
   13  0.000  0.000  0.009  0.010
   14  0.000  0.000  0.009  0.010
   15  0.000  0.000  0.006  0.006
   16  0.000  0.000  0.017  0.018
   17  0.000  0.000  0.006  0.006
   18  0.000  0.000  0.006  0.006
   19  0.003  0.000  0.016  0.020
   20  0.000  0.001  0.064  0.065
   21  0.000  0.001  0.064  0.065
   22  0.000  0.000  0.012  0.013
   23  0.000  0.001  0.064  0.065
   24  0.000  0.000  0.012  0.013
   25  0.003  0.000  0.016  0.020
   26  0.003  0.000  0.016  0.020
   27  0.000  0.000  0.012  0.013
   28  0.004  0.000  0.012  0.016
   29  0.012  0.000  0.022  0.034
   30  0.012  0.000  0.022  0.034
   31  0.012  0.000  0.022  0.034
   32  0.012  0.000  0.022  0.034
   33  0.012  0.000  0.022  0.034
   34  0.012  0.000  0.022  0.034
   35  0.008  0.000  0.010  0.018
   36  0.028  0.000  0.055  0.082
   37  0.000  0.004  0.000  0.004
tot    0.158  0.012  0.629  0.798
 
band     5 # energy   -5.19213008 # occ.  2.00000000
 
ion      s      p      d    tot
    1  0.004  0.001  0.002  0.007
    2  0.000  0.000  0.002  0.002
    3  0.000  0.000  0.002  0.002
    4  0.000  0.000  0.002  0.002
    5  0.000  0.000  0.000  0.001
    6  0.000  0.000  0.002  0.002
    7  0.000  0.000  0.002  0.002
    8  0.000  0.000  0.002  0.002
    9  0.001  0.000  0.000  0.001
   10  0.006  0.000  0.016  0.022
   11  0.000  0.000  0.015  0.016
   12  0.006  0.000  0.016  0.022
   13  0.000  0.000  0.015  0.016
   14  0.000  0.000  0.015  0.016
   15  0.001  0.000  0.007  0.008
   16  0.006  0.000  0.016  0.022
   17  0.001  0.000  0.007  0.008
   18  0.001  0.000  0.007  0.008
   19  0.002  0.001  0.030  0.032
   20  0.005  0.001  0.117  0.123
   21  0.005  0.001  0.117  0.123
   22  0.017  0.000  0.005  0.022
   23  0.005  0.001  0.117  0.123
   24  0.017  0.000  0.005  0.022
   25  0.002  0.001  0.030  0.032
   26  0.002  0.001  0.030  0.032
   27  0.017  0.000  0.005  0.022
   28  0.002  0.000  0.001  0.004
   29  0.001  0.000  0.004  0.005
   30  0.001  0.000  0.004  0.005
   31  0.001  0.000  0.004  0.005
   32  0.001  0.000  0.004  0.005
   33  0.001  0.000  0.004  0.005
   34  0.001  0.000  0.004  0.005
   35  0.007  0.001  0.001  0.009
   36  0.018  0.008  0.029  0.055
   37  0.008  0.018  0.000  0.027
tot    0.137  0.039  0.640  0.816
 
band     6 # energy   -5.09079769 # occ.  2.00000000
 
ion      s      p      d    tot
    1  0.000  0.000  0.007  0.007
    2  0.000  0.000  0.002  0.002
    3  0.000  0.000  0.002  0.002
    4  0.000  0.000  0.002  0.002
    5  0.000  0.000  0.003  0.003
    6  0.001  0.000  0.002  0.003
    7  0.000  0.000  0.002  0.002
    8  0.001  0.000  0.002  0.003
    9  0.000  0.000  0.001  0.001
   10  0.010  0.001  0.014  0.026
   11  0.001  0.001  0.024  0.026
   12  0.002  0.001  0.017  0.020
   13  0.001  0.001  0.024  0.026
   14  0.003  0.000  0.014  0.017
   15  0.000  0.000  0.009  0.009
   16  0.003  0.001  0.017  0.020
   17  0.000  0.000  0.009  0.009
   18  0.002  0.000  0.008  0.010
   19  0.004  0.001  0.017  0.022
   20  0.037  0.000  0.012  0.050
   21  0.009  0.000  0.112  0.121
   22  0.000  0.001  0.042  0.043
   23  0.010  0.000  0.109  0.119
   24  0.002  0.001  0.021  0.023
   25  0.015  0.000  0.034  0.049
   26  0.004  0.001  0.017  0.022
   27  0.000  0.001  0.042  0.043
   28  0.000  0.000  0.003  0.003
   29  0.001  0.001  0.009  0.011
   30  0.000  0.000  0.006  0.007
   31  0.001  0.001  0.009  0.010
   32  0.000  0.000  0.009  0.010
   33  0.000  0.000  0.006  0.007
   34  0.000  0.000  0.010  0.010
   35  0.000  0.000  0.001  0.001
   36  0.000  0.001  0.054  0.054
   37  0.000  0.012  0.000  0.012
tot    0.109  0.028  0.669  0.806
 
band     7 # energy   -5.09079570 # occ.  2.00000000
 
ion      s      p      d    tot
    1  0.000  0.000  0.007  0.007
    2  0.001  0.000  0.002  0.003
    3  0.001  0.000  0.002  0.003
    4  0.001  0.000  0.002  0.003
    5  0.000  0.000  0.003  0.003
    6  0.000  0.000  0.002  0.002
    7  0.001  0.000  0.002  0.003
    8  0.000  0.000  0.002  0.002
    9  0.000  0.000  0.001  0.001
   10  0.000  0.000  0.018  0.018
   11  0.002  0.001  0.018  0.020
   12  0.008  0.001  0.015  0.024
   13  0.002  0.000  0.017  0.020
   14  0.000  0.001  0.027  0.028
   15  0.001  0.000  0.008  0.010
   16  0.008  0.001  0.015  0.024
   17  0.001  0.000  0.008  0.010
   18  0.000  0.000  0.009  0.009
   19  0.011  0.001  0.028  0.040
   20  0.000  0.000  0.144  0.144
   21  0.028  0.000  0.044  0.072
   22  0.001  0.001  0.028  0.030
   23  0.028  0.000  0.046  0.074
   24  0.000  0.001  0.049  0.049
   25  0.000  0.001  0.012  0.013
   26  0.012  0.001  0.028  0.041
   27  0.001  0.001  0.028  0.030
   28  0.000  0.000  0.003  0.003
   29  0.000  0.000  0.007  0.008
   30  0.001  0.001  0.010  0.011
   31  0.000  0.000  0.008  0.008
   32  0.001  0.001  0.007  0.008
   33  0.001  0.001  0.010  0.011
   34  0.001  0.001  0.007  0.008
   35  0.000  0.000  0.001  0.001
   36  0.000  0.001  0.054  0.054
   37  0.000  0.012  0.000  0.012
tot    0.109  0.028  0.670  0.806
 
band     8 # energy   -5.05440716 # occ.  2.00000000
 
ion      s      p      d    tot
    1  0.017  0.000  0.010  0.027
    2  0.011  0.000  0.024  0.035
    3  0.011  0.000  0.024  0.035
    4  0.011  0.000  0.024  0.035
    5  0.014  0.000  0.035  0.048
    6  0.011  0.000  0.024  0.035
    7  0.011  0.000  0.024  0.035
    8  0.011  0.000  0.024  0.035
    9  0.005  0.000  0.024  0.030
   10  0.000  0.001  0.017  0.018
   11  0.001  0.000  0.040  0.042
   12  0.000  0.001  0.017  0.018
   13  0.001  0.000  0.040  0.042
   14  0.001  0.000  0.040  0.042
   15  0.004  0.000  0.021  0.025
   16  0.000  0.001  0.017  0.018
   17  0.004  0.000  0.021  0.025
   18  0.004  0.000  0.021  0.025
   19  0.004  0.000  0.002  0.006
   20  0.000  0.000  0.031  0.031
   21  0.000  0.000  0.031  0.031
   22  0.000  0.000  0.012  0.012
   23  0.000  0.000  0.031  0.031
   24  0.000  0.000  0.012  0.012
   25  0.004  0.000  0.002  0.006
   26  0.004  0.000  0.002  0.006
   27  0.000  0.000  0.012  0.012
   28  0.001  0.000  0.001  0.003
   29  0.000  0.000  0.009  0.010
   30  0.000  0.000  0.009  0.010
   31  0.000  0.000  0.009  0.010
   32  0.000  0.000  0.009  0.010
   33  0.000  0.000  0.009  0.010
   34  0.000  0.000  0.009  0.010
   35  0.000  0.000  0.000  0.000
   36  0.010  0.000  0.009  0.019
   37  0.000  0.000  0.000  0.000
tot    0.145  0.009  0.642  0.796
 
band     9 # energy   -5.02626222 # occ.  2.00000000
 
ion      s      p      d    tot
    1  0.000  0.000  0.002  0.002
    2  0.001  0.001  0.006  0.007
    3  0.000  0.000  0.002  0.003
    4  0.001  0.001  0.006  0.008
    5  0.000  0.000  0.008  0.008
    6  0.000  0.000  0.005  0.005
    7  0.000  0.000  0.002  0.002
    8  0.000  0.000  0.004  0.004
    9  0.000  0.000  0.002  0.003
   10  0.000  0.001  0.078  0.078
   11  0.023  0.001  0.027  0.050
   12  0.002  0.001  0.041  0.043
   13  0.019  0.001  0.040  0.060
   14  0.000  0.000  0.100  0.101
   15  0.010  0.001  0.031  0.042
   16  0.002  0.001  0.033  0.036
   17  0.008  0.001  0.027  0.036
   18  0.000  0.002  0.007  0.009
   19  0.003  0.000  0.016  0.020
   20  0.000  0.001  0.034  0.035
   21  0.003  0.001  0.040  0.044
   22  0.009  0.001  0.017  0.026
   23  0.004  0.000  0.042  0.046
   24  0.000  0.000  0.023  0.023
   25  0.000  0.000  0.038  0.038
   26  0.003  0.000  0.020  0.023
   27  0.011  0.001  0.015  0.027
   28  0.000  0.000  0.002  0.002
   29  0.000  0.000  0.003  0.003
   30  0.001  0.000  0.003  0.004
   31  0.000  0.000  0.003  0.003
   32  0.001  0.000  0.003  0.004
   33  0.001  0.000  0.003  0.005
   34  0.001  0.000  0.003  0.004
   35  0.000  0.000  0.006  0.006
   36  0.000  0.000  0.004  0.004
   37  0.000  0.000  0.000  0.000
tot    0.103  0.014  0.698  0.815
 
band    10 # energy   -5.02626015 # occ.  2.00000000
 
ion      s      p      d    tot
    1  0.000  0.000  0.002  0.002
    2  0.000  0.000  0.003  0.003
    3  0.001  0.000  0.006  0.007
    4  0.000  0.000  0.002  0.002
    5  0.000  0.000  0.008  0.008
    6  0.001  0.000  0.004  0.005
    7  0.001  0.000  0.006  0.008
    8  0.001  0.000  0.004  0.006
    9  0.000  0.000  0.002  0.003
   10  0.003  0.000  0.024  0.027
   11  0.005  0.000  0.085  0.090
   12  0.001  0.001  0.060  0.061
   13  0.009  0.000  0.072  0.081
   14  0.027  0.001  0.012  0.040
   15  0.002  0.001  0.012  0.016
   16  0.000  0.001  0.068  0.069
   17  0.004  0.001  0.016  0.022
   18  0.012  0.000  0.036  0.049
   19  0.001  0.000  0.034  0.034
   20  0.005  0.000  0.043  0.048
   21  0.002  0.001  0.037  0.039
   22  0.004  0.001  0.020  0.025
   23  0.001  0.001  0.036  0.037
   24  0.013  0.001  0.014  0.028
   25  0.004  0.000  0.012  0.016
   26  0.001  0.000  0.030  0.031
   27  0.002  0.001  0.021  0.024
   28  0.000  0.000  0.002  0.002
   29  0.001  0.000  0.004  0.005
   30  0.000  0.000  0.003  0.003
   31  0.001  0.000  0.004  0.005
   32  0.000  0.000  0.003  0.003
   33  0.000  0.000  0.003  0.003
   34  0.000  0.000  0.003  0.003
   35  0.000  0.000  0.006  0.006
   36  0.000  0.000  0.004  0.004
   37  0.000  0.000  0.000  0.000
tot    0.103  0.014  0.698  0.815
 
band    11 # energy   -5.01336938 # occ.  2.00000000
 
ion      s      p      d    tot
    1  0.000  0.000  0.001  0.002
    2  0.000  0.000  0.006  0.006
    3  0.000  0.000  0.006  0.006
    4  0.000  0.000  0.006  0.006
    5  0.005  0.001  0.002  0.008
    6  0.000  0.000  0.006  0.006
    7  0.000  0.000  0.006  0.006
    8  0.000  0.000  0.006  0.006
    9  0.001  0.000  0.005  0.005
   10  0.008  0.001  0.004  0.013
   11  0.013  0.001  0.044  0.058
   12  0.008  0.001  0.004  0.013
   13  0.013  0.001  0.044  0.058
   14  0.013  0.001  0.043  0.057
   15  0.001  0.000  0.048  0.050
   16  0.008  0.001  0.004  0.013
   17  0.001  0.000  0.048  0.050
   18  0.001  0.000  0.048  0.049
   19  0.012  0.001  0.030  0.042
   20  0.005  0.001  0.019  0.026
   21  0.005  0.001  0.019  0.026
   22  0.000  0.000  0.048  0.048
   23  0.005  0.001  0.019  0.026
   24  0.000  0.000  0.048  0.048
   25  0.012  0.001  0.030  0.042
   26  0.012  0.001  0.030  0.042
   27  0.000  0.000  0.048  0.048
   28  0.003  0.001  0.005  0.009
   29  0.000  0.000  0.003  0.003
   30  0.000  0.000  0.003  0.003
   31  0.000  0.000  0.003  0.003
   32  0.000  0.000  0.003  0.003
   33  0.000  0.000  0.003  0.003
   34  0.000  0.000  0.003  0.003
   35  0.001  0.000  0.004  0.005
   36  0.000  0.000  0.000  0.000
   37  0.000  0.000  0.000  0.000
tot    0.130  0.018  0.651  0.799
 
band    12 # energy   -4.99189813 # occ.  2.00000000
 
ion      s      p      d    tot
    1  0.000  0.000  0.005  0.005
    2  0.002  0.000  0.010  0.012
    3  0.002  0.000  0.010  0.012
    4  0.002  0.000  0.010  0.012
    5  0.001  0.000  0.001  0.002
    6  0.002  0.000  0.010  0.012
    7  0.002  0.000  0.010  0.012
    8  0.002  0.000  0.010  0.012
    9  0.006  0.000  0.015  0.021
   10  0.001  0.000  0.018  0.019
   11  0.000  0.000  0.012  0.013
   12  0.001  0.000  0.018  0.019
   13  0.000  0.000  0.012  0.013
   14  0.000  0.000  0.012  0.013
   15  0.002  0.000  0.043  0.046
   16  0.001  0.000  0.018  0.019
   17  0.002  0.000  0.043  0.046
   18  0.002  0.000  0.043  0.046
   19  0.003  0.001  0.006  0.010
   20  0.001  0.000  0.043  0.044
   21  0.001  0.000  0.043  0.044
   22  0.004  0.000  0.061  0.066
   23  0.001  0.000  0.043  0.044
   24  0.004  0.000  0.062  0.066
   25  0.003  0.001  0.006  0.010
   26  0.003  0.001  0.006  0.010
   27  0.004  0.000  0.061  0.066
   28  0.008  0.001  0.000  0.009
   29  0.003  0.000  0.011  0.014
   30  0.003  0.000  0.011  0.014
   31  0.003  0.000  0.011  0.014
   32  0.003  0.000  0.011  0.014
   33  0.003  0.000  0.011  0.014
   34  0.003  0.000  0.011  0.014
   35  0.003  0.000  0.025  0.028
   36  0.000  0.000  0.007  0.007
   37  0.000  0.002  0.000  0.002
tot    0.086  0.010  0.726  0.822
 
band    13 # energy   -4.97843372 # occ.  2.00000000
 
ion      s      p      d    tot
    1  0.000  0.001  0.012  0.012
    2  0.001  0.000  0.006  0.007
    3  0.001  0.001  0.010  0.012
    4  0.001  0.000  0.006  0.007
    5  0.000  0.000  0.007  0.007
    6  0.004  0.001  0.006  0.011
    7  0.001  0.001  0.010  0.012
    8  0.004  0.001  0.006  0.011
    9  0.000  0.000  0.009  0.010
   10  0.000  0.001  0.065  0.065
   11  0.000  0.000  0.034  0.035
   12  0.018  0.000  0.030  0.048
   13  0.000  0.000  0.035  0.036
   14  0.000  0.001  0.013  0.014
   15  0.012  0.000  0.034  0.047
   16  0.018  0.000  0.031  0.049
   17  0.013  0.000  0.031  0.044
   18  0.000  0.000  0.110  0.110
   19  0.002  0.000  0.021  0.024
   20  0.000  0.000  0.020  0.020
   21  0.001  0.000  0.019  0.020
   22  0.007  0.000  0.019  0.025
   23  0.001  0.000  0.019  0.020
   24  0.000  0.000  0.027  0.028
   25  0.000  0.000  0.038  0.038
   26  0.003  0.000  0.020  0.023
   27  0.007  0.000  0.019  0.025
   28  0.000  0.000  0.010  0.010
   29  0.002  0.000  0.003  0.006
   30  0.003  0.001  0.005  0.009
   31  0.003  0.000  0.003  0.006
   32  0.000  0.000  0.004  0.004
   33  0.003  0.001  0.005  0.009
   34  0.000  0.000  0.004  0.004
   35  0.000  0.000  0.003  0.004
   36  0.000  0.000  0.003  0.004
   37  0.000  0.000  0.000  0.000
tot    0.106  0.013  0.698  0.816
 
band    14 # energy   -4.97841537 # occ.  2.00000000
 
ion      s      p      d    tot
    1  0.000  0.001  0.012  0.012
    2  0.003  0.001  0.009  0.013
    3  0.003  0.001  0.005  0.009
    4  0.003  0.001  0.009  0.013
    5  0.000  0.000  0.007  0.007
    6  0.000  0.000  0.008  0.009
    7  0.003  0.001  0.005  0.009
    8  0.000  0.000  0.009  0.009
    9  0.000  0.000  0.009  0.010
   10  0.024  0.000  0.017  0.042
   11  0.000  0.001  0.021  0.022
   12  0.005  0.000  0.055  0.061
   13  0.000  0.001  0.020  0.021
   14  0.001  0.000  0.041  0.041
   15  0.004  0.000  0.082  0.087
   16  0.006  0.000  0.053  0.060
   17  0.004  0.000  0.086  0.089
   18  0.017  0.000  0.007  0.024
   19  0.001  0.000  0.031  0.033
   20  0.001  0.001  0.018  0.019
   21  0.000  0.000  0.020  0.020
   22  0.002  0.000  0.025  0.027
   23  0.000  0.000  0.020  0.020
   24  0.009  0.000  0.015  0.024
   25  0.003  0.000  0.015  0.019
   26  0.001  0.000  0.032  0.033
   27  0.002  0.000  0.025  0.027
   28  0.000  0.000  0.010  0.010
   29  0.001  0.000  0.005  0.007
   30  0.001  0.000  0.003  0.004
   31  0.001  0.000  0.005  0.006
   32  0.003  0.001  0.004  0.008
   33  0.001  0.000  0.003  0.004
   34  0.004  0.001  0.004  0.009
   35  0.000  0.000  0.003  0.004
   36  0.000  0.000  0.003  0.004
   37  0.000  0.000  0.000  0.000
tot    0.105  0.013  0.698  0.816
 
band    15 # energy   -4.97704859 # occ.  2.00000000
 
ion      s      p      d    tot
    1  0.002  0.000  0.025  0.027
    2  0.001  0.000  0.009  0.011
    3  0.001  0.000  0.009  0.011
    4  0.001  0.000  0.009  0.011
    5  0.000  0.000  0.001  0.001
    6  0.001  0.000  0.010  0.011
    7  0.001  0.000  0.009  0.011
    8  0.001  0.000  0.010  0.011
    9  0.006  0.001  0.000  0.007
   10  0.002  0.000  0.086  0.089
   11  0.005  0.001  0.020  0.026
   12  0.003  0.000  0.084  0.087
   13  0.005  0.001  0.020  0.026
   14  0.006  0.001  0.021  0.028
   15  0.007  0.001  0.022  0.030
   16  0.003  0.000  0.084  0.087
   17  0.007  0.001  0.022  0.030
   18  0.007  0.001  0.021  0.029
   19  0.001  0.000  0.029  0.030
   20  0.001  0.001  0.008  0.009
   21  0.001  0.001  0.007  0.009
   22  0.000  0.000  0.025  0.025
   23  0.001  0.001  0.007  0.009
   24  0.000  0.000  0.026  0.026
   25  0.001  0.000  0.029  0.029
   26  0.001  0.000  0.029  0.030
   27  0.000  0.000  0.025  0.025
   28  0.007  0.000  0.011  0.018
   29  0.002  0.000  0.010  0.012
   30  0.002  0.000  0.010  0.012
   31  0.002  0.000  0.010  0.012
   32  0.002  0.000  0.010  0.013
   33  0.002  0.000  0.010  0.012
   34  0.002  0.000  0.010  0.013
   35  0.000  0.000  0.007  0.008
   36  0.002  0.000  0.001  0.003
   37  0.000  0.000  0.000  0.000
tot    0.089  0.009  0.728  0.826
 
band    16 # energy   -4.96729457 # occ.  2.00000000
 
ion      s      p      d    tot
    1  0.000  0.000  0.007  0.007
    2  0.001  0.000  0.007  0.009
    3  0.000  0.000  0.007  0.008
    4  0.001  0.000  0.007  0.009
    5  0.000  0.000  0.004  0.004
    6  0.002  0.000  0.005  0.007
    7  0.000  0.000  0.007  0.007
    8  0.002  0.000  0.005  0.007
    9  0.000  0.000  0.017  0.017
   10  0.000  0.000  0.038  0.038
   11  0.001  0.000  0.045  0.046
   12  0.000  0.000  0.015  0.015
   13  0.001  0.000  0.044  0.045
   14  0.003  0.000  0.009  0.013
   15  0.001  0.000  0.048  0.049
   16  0.000  0.000  0.014  0.014
   17  0.001  0.000  0.047  0.048
   18  0.003  0.000  0.031  0.034
   19  0.002  0.000  0.075  0.077
   20  0.000  0.000  0.053  0.053
   21  0.000  0.000  0.022  0.022
   22  0.003  0.000  0.054  0.057
   23  0.000  0.000  0.021  0.021
   24  0.010  0.000  0.033  0.043
   25  0.007  0.000  0.006  0.013
   26  0.002  0.000  0.072  0.074
   27  0.002  0.000  0.055  0.057
   28  0.000  0.000  0.006  0.006
   29  0.001  0.000  0.007  0.008
   30  0.001  0.000  0.002  0.004
   31  0.001  0.000  0.008  0.008
   32  0.000  0.000  0.008  0.008
   33  0.001  0.000  0.003  0.004
   34  0.000  0.000  0.008  0.008
   35  0.000  0.000  0.011  0.011
   36  0.000  0.000  0.002  0.002
   37  0.000  0.000  0.000  0.000
tot    0.044  0.006  0.801  0.852
 
band    17 # energy   -4.96724911 # occ.  2.00000000
 
ion      s      p      d    tot
    1  0.000  0.000  0.007  0.007
    2  0.001  0.000  0.005  0.006
    3  0.002  0.000  0.005  0.008
    4  0.001  0.000  0.006  0.007
    5  0.000  0.000  0.004  0.004
    6  0.000  0.000  0.008  0.009
    7  0.002  0.000  0.006  0.008
    8  0.000  0.000  0.008  0.009
    9  0.000  0.000  0.017  0.017
   10  0.000  0.000  0.006  0.006
   11  0.002  0.000  0.020  0.023
   12  0.000  0.000  0.030  0.030
   13  0.002  0.000  0.022  0.024
   14  0.000  0.000  0.056  0.056
   15  0.002  0.000  0.036  0.038
   16  0.000  0.000  0.030  0.030
   17  0.002  0.000  0.037  0.039
   18  0.000  0.000  0.053  0.053
   19  0.005  0.000  0.027  0.033
   20  0.000  0.000  0.011  0.011
   21  0.000  0.000  0.042  0.042
   22  0.007  0.000  0.041  0.048
   23  0.000  0.000  0.043  0.043
   24  0.000  0.000  0.061  0.061
   25  0.000  0.000  0.096  0.096
   26  0.005  0.000  0.030  0.035
   27  0.008  0.000  0.040  0.048
   28  0.000  0.000  0.006  0.006
   29  0.001  0.000  0.005  0.006
   30  0.000  0.000  0.009  0.010
   31  0.001  0.000  0.004  0.006
   32  0.001  0.000  0.004  0.005
   33  0.000  0.000  0.009  0.010
   34  0.001  0.000  0.004  0.006
   35  0.000  0.000  0.011  0.011
   36  0.000  0.000  0.002  0.002
   37  0.000  0.000  0.000  0.000
tot    0.044  0.006  0.801  0.852
 
band    18 # energy   -4.88524413 # occ.  2.00000000
 
ion      s      p      d    tot
    1  0.000  0.000  0.003  0.003
    2  0.001  0.000  0.004  0.006
    3  0.002  0.001  0.005  0.008
    4  0.001  0.000  0.004  0.006
    5  0.000  0.001  0.013  0.014
    6  0.000  0.000  0.006  0.006
    7  0.002  0.001  0.005  0.008
    8  0.000  0.000  0.006  0.006
    9  0.000  0.000  0.006  0.006
   10  0.000  0.000  0.000  0.000
   11  0.003  0.000  0.047  0.050
   12  0.000  0.000  0.016  0.016
   13  0.003  0.000  0.046  0.050
   14  0.000  0.000  0.043  0.043
   15  0.001  0.000  0.018  0.019
   16  0.000  0.001  0.016  0.017
   17  0.001  0.000  0.018  0.019
   18  0.000  0.000  0.018  0.018
   19  0.000  0.000  0.019  0.020
   20  0.000  0.000  0.120  0.120
   21  0.000  0.000  0.097  0.097
   22  0.000  0.000  0.031  0.032
   23  0.000  0.000  0.096  0.097
   24  0.000  0.000  0.050  0.050
   25  0.000  0.000  0.001  0.001
   26  0.000  0.000  0.018  0.019
   27  0.000  0.000  0.031  0.031
   28  0.000  0.000  0.000  0.000
   29  0.001  0.001  0.010  0.012
   30  0.000  0.000  0.009  0.009
   31  0.001  0.001  0.010  0.012
   32  0.000  0.000  0.008  0.008
   33  0.000  0.000  0.009  0.009
   34  0.000  0.000  0.008  0.008
   35  0.000  0.000  0.000  0.000
   36  0.000  0.000  0.042  0.042
   37  0.000  0.011  0.000  0.011
tot    0.019  0.021  0.834  0.874
 
band    19 # energy   -4.88523582 # occ.  2.00000000
 
ion      s      p      d    tot
    1  0.000  0.000  0.003  0.003
    2  0.001  0.001  0.006  0.007
    3  0.000  0.000  0.005  0.005
    4  0.001  0.001  0.006  0.007
    5  0.000  0.001  0.013  0.014
    6  0.002  0.001  0.004  0.007
    7  0.000  0.000  0.005  0.005
    8  0.002  0.001  0.004  0.007
    9  0.000  0.000  0.006  0.006
   10  0.000  0.001  0.021  0.022
   11  0.001  0.000  0.044  0.045
   12  0.000  0.000  0.006  0.006
   13  0.001  0.000  0.044  0.045
   14  0.004  0.000  0.048  0.052
   15  0.000  0.000  0.018  0.019
   16  0.000  0.000  0.005  0.005
   17  0.000  0.000  0.018  0.019
   18  0.001  0.000  0.018  0.019
   19  0.000  0.000  0.007  0.007
   20  0.000  0.000  0.089  0.089
   21  0.000  0.000  0.112  0.112
   22  0.000  0.000  0.044  0.044
   23  0.000  0.000  0.112  0.112
   24  0.000  0.001  0.024  0.025
   25  0.000  0.001  0.024  0.025
   26  0.000  0.000  0.007  0.008
   27  0.000  0.000  0.044  0.044
   28  0.000  0.000  0.000  0.000
   29  0.000  0.000  0.007  0.008
   30  0.001  0.001  0.009  0.010
   31  0.000  0.000  0.007  0.008
   32  0.001  0.001  0.010  0.011
   33  0.001  0.001  0.009  0.010
   34  0.001  0.001  0.010  0.011
   35  0.000  0.000  0.000  0.000
   36  0.000  0.000  0.042  0.042
   37  0.000  0.011  0.000  0.011
tot    0.019  0.021  0.834  0.874
 
band    20 # energy   -4.86067240 # occ.  2.00000000
 
ion      s      p      d    tot
    1  0.000  0.000  0.000  0.000
    2  0.000  0.000  0.005  0.005
    3  0.000  0.000  0.005  0.005
    4  0.000  0.000  0.005  0.005
    5  0.001  0.000  0.013  0.015
    6  0.000  0.000  0.005  0.005
    7  0.000  0.000  0.005  0.005
    8  0.000  0.000  0.005  0.005
    9  0.000  0.000  0.011  0.011
   10  0.001  0.000  0.005  0.006
   11  0.000  0.001  0.080  0.080
   12  0.001  0.000  0.005  0.006
   13  0.000  0.001  0.080  0.080
   14  0.000  0.001  0.080  0.080
   15  0.001  0.001  0.043  0.045
   16  0.001  0.000  0.005  0.006
   17  0.001  0.001  0.043  0.045
   18  0.001  0.001  0.043  0.045
   19  0.001  0.000  0.018  0.018
   20  0.003  0.001  0.053  0.057
   21  0.003  0.001  0.053  0.057
   22  0.005  0.000  0.022  0.027
   23  0.003  0.001  0.053  0.057
   24  0.005  0.000  0.022  0.027
   25  0.001  0.000  0.018  0.018
   26  0.001  0.000  0.018  0.018
   27  0.005  0.000  0.022  0.027
   28  0.003  0.000  0.001  0.004
   29  0.000  0.001  0.013  0.014
   30  0.000  0.001  0.013  0.014
   31  0.000  0.001  0.013  0.014
   32  0.000  0.001  0.013  0.014
   33  0.000  0.001  0.013  0.014
   34  0.000  0.001  0.013  0.014
   35  0.003  0.000  0.001  0.005
   36  0.001  0.001  0.006  0.008
   37  0.001  0.004  0.000  0.005
tot    0.040  0.017  0.803  0.860
 
band    21 # energy   -4.80687356 # occ.  2.00000000
 
ion      s      p      d    tot
    1  0.000  0.000  0.004  0.004
    2  0.000  0.001  0.013  0.014
    3  0.000  0.001  0.013  0.014
    4  0.000  0.001  0.013  0.014
    5  0.005  0.001  0.000  0.006
    6  0.000  0.001  0.013  0.013
    7  0.000  0.001  0.013  0.014
    8  0.000  0.001  0.013  0.013
    9  0.003  0.001  0.001  0.005
   10  0.003  0.001  0.039  0.042
   11  0.000  0.000  0.033  0.033
   12  0.003  0.001  0.039  0.042
   13  0.000  0.000  0.033  0.033
   14  0.000  0.000  0.033  0.033
   15  0.004  0.000  0.016  0.020
   16  0.003  0.001  0.039  0.042
   17  0.004  0.000  0.016  0.020
   18  0.004  0.000  0.016  0.020
   19  0.001  0.000  0.057  0.058
   20  0.001  0.000  0.012  0.013
   21  0.001  0.000  0.012  0.013
   22  0.000  0.001  0.042  0.043
   23  0.001  0.000  0.012  0.013
   24  0.000  0.001  0.042  0.043
   25  0.001  0.000  0.057  0.058
   26  0.001  0.000  0.057  0.058
   27  0.000  0.001  0.042  0.043
   28  0.001  0.000  0.023  0.024
   29  0.001  0.000  0.012  0.014
   30  0.001  0.000  0.012  0.014
   31  0.001  0.000  0.012  0.014
   32  0.001  0.000  0.012  0.014
   33  0.001  0.000  0.012  0.014
   34  0.001  0.000  0.012  0.014
   35  0.009  0.001  0.000  0.010
   36  0.002  0.000  0.000  0.002