PROCAR new format
# of k-points:   10         # of bands:  252         # of ions:   37

 k-point     1 :    0.00000000 0.00000000 0.00000000     weight = 0.01562500

band     1 # energy   -8.83481285 # occ.  2.00000000
 
ion      s      p      d    tot
    1  0.007  0.001  0.000  0.007
    2  0.007  0.001  0.000  0.007
    3  0.007  0.001  0.000  0.007
    4  0.007  0.001  0.000  0.007
    5  0.007  0.001  0.000  0.007
    6  0.007  0.001  0.000  0.007
    7  0.007  0.001  0.000  0.007
    8  0.007  0.001  0.000  0.007
    9  0.007  0.001  0.000  0.007
   10  0.025  0.000  0.000  0.025
   11  0.025  0.000  0.000  0.025
   12  0.025  0.000  0.000  0.025
   13  0.025  0.000  0.000  0.025
   14  0.025  0.000  0.000  0.025
   15  0.024  0.000  0.000  0.025
   16  0.025  0.000  0.000  0.025
   17  0.024  0.000  0.000  0.025
   18  0.024  0.000  0.000  0.025
   19  0.025  0.000  0.000  0.025
   20  0.025  0.000  0.000  0.025
   21  0.025  0.000  0.000  0.025
   22  0.024  0.000  0.000  0.024
   23  0.025  0.000  0.000  0.025
   24  0.024  0.000  0.000  0.024
   25  0.025  0.000  0.000  0.025
   26  0.025  0.000  0.000  0.025
   27  0.024  0.000  0.000  0.024
   28  0.007  0.001  0.000  0.008
   29  0.006  0.001  0.000  0.007
   30  0.006  0.001  0.000  0.007
   31  0.006  0.001  0.000  0.007
   32  0.006  0.001  0.000  0.007
   33  0.006  0.001  0.000  0.007
   34  0.006  0.001  0.000  0.007
   35  0.007  0.001  0.000  0.007
   36  0.009  0.001  0.000  0.010
   37  0.000  0.000  0.000  0.000
tot    0.566  0.017  0.001  0.583
 
band     2 # energy   -7.52998225 # occ.  2.00000000
 
ion      s      p      d    tot
    1  0.018  0.001  0.001  0.019
    2  0.018  0.001  0.001  0.019
    3  0.018  0.001  0.001  0.019
    4  0.018  0.001  0.001  0.019
    5  0.018  0.001  0.001  0.020
    6  0.018  0.001  0.001  0.019
    7  0.018  0.001  0.001  0.019
    8  0.018  0.001  0.001  0.019
    9  0.018  0.001  0.001  0.019
   10  0.010  0.002  0.001  0.013
   11  0.010  0.002  0.001  0.013
   12  0.010  0.002  0.001  0.013
   13  0.010  0.002  0.001  0.013
   14  0.010  0.002  0.001  0.013
   15  0.010  0.002  0.001  0.012
   16  0.010  0.002  0.001  0.013
   17  0.010  0.002  0.001  0.012
   18  0.010  0.002  0.001  0.012
   19  0.011  0.002  0.001  0.014
   20  0.010  0.002  0.001  0.012
   21  0.010  0.002  0.001  0.012
   22  0.011  0.002  0.001  0.013
   23  0.010  0.002  0.001  0.012
   24  0.011  0.002  0.001  0.013
   25  0.011  0.002  0.001  0.014
   26  0.011  0.002  0.001  0.014
   27  0.011  0.002  0.001  0.013
   28  0.019  0.001  0.001  0.020
   29  0.018  0.001  0.000  0.019
   30  0.018  0.001  0.000  0.019
   31  0.018  0.001  0.000  0.019
   32  0.018  0.001  0.000  0.019
   33  0.018  0.001  0.000  0.019
   34  0.018  0.001  0.000  0.019
   35  0.019  0.001  0.000  0.020
   36  0.021  0.001  0.000  0.022
   37  0.001  0.000  0.000  0.001
tot    0.512  0.054  0.019  0.586
 
band     3 # energy   -5.91548886 # occ.  2.00000000
 
ion      s      p      d    tot
    1  0.017  0.000  0.006  0.022
    2  0.014  0.000  0.006  0.021
    3  0.014  0.000  0.006  0.021
    4  0.014  0.000  0.006  0.021
    5  0.006  0.001  0.007  0.013
    6  0.014  0.000  0.006  0.021
    7  0.014  0.000  0.006  0.021
    8  0.014  0.000  0.006  0.021
    9  0.025  0.000  0.004  0.029
   10  0.003  0.003  0.003  0.009
   11  0.013  0.005  0.001  0.020
   12  0.003  0.003  0.003  0.009
   13  0.013  0.005  0.001  0.020
   14  0.013  0.005  0.001  0.020
   15  0.000  0.003  0.004  0.007
   16  0.003  0.003  0.003  0.009
   17  0.000  0.003  0.004  0.007
   18  0.000  0.003  0.004  0.007
   19  0.001  0.003  0.005  0.009
   20  0.018  0.005  0.002  0.024
   21  0.018  0.005  0.002  0.024
   22  0.000  0.004  0.003  0.008
   23  0.018  0.005  0.002  0.024
   24  0.000  0.004  0.003  0.008
   25  0.001  0.003  0.005  0.009
   26  0.001  0.003  0.005  0.009
   27  0.000  0.004  0.003  0.008
   28  0.021  0.000  0.005  0.026
   29  0.016  0.000  0.007  0.023
   30  0.016  0.000  0.007  0.023
   31  0.016  0.000  0.007  0.023
   32  0.016  0.000  0.007  0.023
   33  0.016  0.000  0.007  0.023
   34  0.016  0.000  0.007  0.023
   35  0.026  0.000  0.005  0.031
   36  0.004  0.003  0.007  0.014
   37  0.000  0.000  0.000  0.000
tot    0.384  0.073  0.170  0.627
 
band     4 # energy   -5.85788706 # occ.  2.00000000
 
ion      s      p      d    tot
    1  0.000  0.003  0.005  0.008
    2  0.010  0.002  0.002  0.014
    3  0.002  0.001  0.002  0.005
    4  0.010  0.002  0.002  0.014
    5  0.000  0.002  0.003  0.006
    6  0.003  0.001  0.002  0.006
    7  0.002  0.001  0.002  0.005
    8  0.003  0.001  0.002  0.007
    9  0.000  0.000  0.003  0.003
   10  0.059  0.005  0.004  0.067
   11  0.006  0.010  0.004  0.020
   12  0.015  0.002  0.012  0.030
   13  0.006  0.010  0.004  0.020
   14  0.026  0.000  0.007  0.033
   15  0.002  0.004  0.008  0.014
   16  0.015  0.003  0.012  0.030
   17  0.002  0.004  0.008  0.014
   18  0.007  0.003  0.003  0.013
   19  0.007  0.010  0.004  0.021
   20  0.063  0.004  0.004  0.072
   21  0.016  0.002  0.015  0.032
   22  0.001  0.005  0.008  0.014
   23  0.016  0.002  0.015  0.033
   24  0.005  0.003  0.003  0.012
   25  0.029  0.000  0.007  0.037
   26  0.007  0.010  0.004  0.021
   27  0.001  0.005  0.008  0.014
   28  0.000  0.003  0.004  0.007
   29  0.011  0.003  0.003  0.016
   30  0.004  0.002  0.003  0.008
   31  0.011  0.003  0.003  0.016
   32  0.002  0.001  0.003  0.005
   33  0.004  0.002  0.003  0.008
   34  0.002  0.001  0.003  0.005
   35  0.000  0.000  0.003  0.003
   36  0.000  0.005  0.007  0.012
   37  0.000  0.000  0.000  0.000
tot    0.345  0.117  0.181  0.643
 
band     5 # energy   -5.85784977 # occ.  2.00000000
 
ion      s      p      d    tot
    1  0.000  0.003  0.005  0.008
    2  0.000  0.001  0.002  0.003
    3  0.008  0.002  0.002  0.012
    4  0.000  0.001  0.002  0.003
    5  0.000  0.002  0.003  0.006
    6  0.007  0.002  0.002  0.011
    7  0.008  0.002  0.002  0.012
    8  0.007  0.002  0.002  0.011
    9  0.000  0.000  0.003  0.003
   10  0.000  0.002  0.015  0.017
   11  0.019  0.004  0.006  0.028
   12  0.045  0.004  0.006  0.055
   13  0.019  0.004  0.006  0.028
   14  0.000  0.013  0.003  0.016
   15  0.005  0.003  0.005  0.013
   16  0.044  0.004  0.007  0.055
   17  0.005  0.003  0.005  0.013
   18  0.000  0.005  0.009  0.014
   19  0.022  0.004  0.006  0.032
   20  0.000  0.002  0.018  0.020
   21  0.047  0.004  0.008  0.059
   22  0.004  0.003  0.005  0.012
   23  0.047  0.004  0.008  0.058
   24  0.000  0.006  0.009  0.015
   25  0.000  0.013  0.003  0.016
   26  0.022  0.004  0.006  0.032
   27  0.004  0.003  0.005  0.012
   28  0.000  0.003  0.004  0.007
   29  0.000  0.001  0.002  0.003
   30  0.007  0.002  0.003  0.012
   31  0.000  0.001  0.002  0.003
   32  0.009  0.002  0.003  0.014
   33  0.007  0.002  0.003  0.012
   34  0.009  0.002  0.003  0.014
   35  0.000  0.000  0.003  0.003
   36  0.000  0.005  0.007  0.012
   37  0.000  0.000  0.000  0.000
tot    0.345  0.117  0.181  0.643
 
band     6 # energy   -5.83455257 # occ.  2.00000000
 
ion      s      p      d    tot
    1  0.020  0.003  0.001  0.024
    2  0.000  0.002  0.004  0.006
    3  0.000  0.002  0.004  0.006
    4  0.000  0.002  0.004  0.006
    5  0.003  0.001  0.000  0.004
    6  0.000  0.002  0.004  0.006
    7  0.000  0.002  0.004  0.006
    8  0.000  0.002  0.004  0.006
    9  0.008  0.001  0.000  0.009
   10  0.032  0.007  0.005  0.043
   11  0.007  0.000  0.012  0.019
   12  0.032  0.007  0.005  0.043
   13  0.007  0.000  0.012  0.019
   14  0.007  0.000  0.012  0.019
   15  0.008  0.007  0.004  0.019
   16  0.032  0.007  0.005  0.043
   17  0.008  0.007  0.004  0.019
   18  0.008  0.007  0.004  0.020
   19  0.026  0.009  0.002  0.037
   20  0.000  0.003  0.010  0.014
   21  0.000  0.003  0.010  0.014
   22  0.021  0.001  0.010  0.033
   23  0.000  0.003  0.010  0.014
   24  0.021  0.001  0.010  0.032
   25  0.025  0.009  0.002  0.037
   26  0.026  0.009  0.002  0.037
   27  0.021  0.001  0.010  0.033
   28  0.018  0.003  0.001  0.021
   29  0.000  0.002  0.004  0.006
   30  0.000  0.002  0.004  0.006
   31  0.000  0.002  0.004  0.006
   32  0.000  0.002  0.004  0.006
   33  0.000  0.002  0.004  0.006
   34  0.000  0.002  0.004  0.006
   35  0.013  0.002  0.001  0.016
   36  0.001  0.000  0.000  0.001
   37  0.000  0.000  0.000  0.000
tot    0.345  0.114  0.182  0.640
 
band     7 # energy   -5.82898229 # occ.  2.00000000
 
ion      s      p      d    tot
    1  0.000  0.001  0.002  0.003
    2  0.010  0.002  0.002  0.015
    3  0.002  0.001  0.002  0.005
    4  0.010  0.002  0.002  0.015
    5  0.000  0.001  0.004  0.005
    6  0.003  0.001  0.002  0.007
    7  0.002  0.001  0.002  0.005
    8  0.003  0.001  0.002  0.006
    9  0.000  0.003  0.005  0.008
   10  0.000  0.012  0.003  0.014
   11  0.028  0.004  0.005  0.037
   12  0.001  0.004  0.005  0.010
   13  0.027  0.003  0.006  0.036
   14  0.000  0.000  0.016  0.016
   15  0.041  0.004  0.006  0.051
   16  0.001  0.003  0.005  0.010
   17  0.040  0.004  0.006  0.050
   18  0.000  0.008  0.009  0.017
   19  0.026  0.004  0.005  0.035
   20  0.000  0.013  0.002  0.015
   21  0.002  0.004  0.005  0.011
   22  0.043  0.004  0.006  0.053
   23  0.002  0.003  0.005  0.011
   24  0.000  0.008  0.009  0.017
   25  0.000  0.000  0.016  0.017
   26  0.026  0.004  0.006  0.035
   27  0.044  0.004  0.006  0.054
   28  0.000  0.001  0.005  0.006
   29  0.011  0.003  0.003  0.016
   30  0.004  0.002  0.003  0.008
   31  0.011  0.003  0.003  0.016
   32  0.002  0.001  0.002  0.006
   33  0.003  0.002  0.003  0.008
   34  0.002  0.001  0.002  0.005
   35  0.000  0.004  0.006  0.009
   36  0.000  0.002  0.003  0.005
   37  0.000  0.000  0.000  0.000
tot    0.344  0.116  0.178  0.639
 
band     8 # energy   -5.82894825 # occ.  2.00000000
 
ion      s      p      d    tot
    1  0.000  0.001  0.002  0.003
    2  0.000  0.001  0.002  0.003
    3  0.008  0.002  0.002  0.012
    4  0.000  0.001  0.002  0.003
    5  0.000  0.001  0.004  0.005
    6  0.007  0.002  0.002  0.011
    7  0.008  0.002  0.002  0.013
    8  0.007  0.002  0.002  0.011
    9  0.000  0.003  0.005  0.008
   10  0.002  0.001  0.006  0.008
   11  0.009  0.001  0.013  0.022
   12  0.001  0.009  0.004  0.013
   13  0.009  0.001  0.012  0.023
   14  0.036  0.005  0.002  0.043
   15  0.013  0.007  0.008  0.028
   16  0.001  0.009  0.004  0.013
   17  0.014  0.007  0.008  0.029
   18  0.053  0.002  0.006  0.061
   19  0.008  0.001  0.013  0.023
   20  0.003  0.001  0.006  0.010
   21  0.001  0.010  0.003  0.014
   22  0.015  0.006  0.008  0.030
   23  0.001  0.010  0.003  0.014
   24  0.058  0.002  0.005  0.066
   25  0.035  0.005  0.002  0.042
   26  0.009  0.002  0.013  0.023
   27  0.013  0.007  0.008  0.028
   28  0.000  0.001  0.005  0.006
   29  0.000  0.001  0.003  0.004
   30  0.007  0.002  0.003  0.012
   31  0.000  0.001  0.003  0.004
   32  0.009  0.002  0.003  0.014
   33  0.008  0.002  0.003  0.012
   34  0.009  0.002  0.003  0.015
   35  0.000  0.004  0.006  0.009
   36  0.000  0.002  0.003  0.005
   37  0.000  0.000  0.000  0.000
tot    0.344  0.116  0.178  0.639
 
band     9 # energy   -5.79031999 # occ.  2.00000000
 
ion      s      p      d    tot
    1  0.001  0.000  0.001  0.002
    2  0.002  0.002  0.005  0.009
    3  0.002  0.002  0.005  0.009
    4  0.002  0.002  0.005  0.009
    5  0.034  0.002  0.000  0.036
    6  0.002  0.002  0.005  0.009
    7  0.002  0.002  0.005  0.009
    8  0.002  0.002  0.005  0.009
    9  0.004  0.002  0.004  0.010
   10  0.001  0.003  0.009  0.014
   11  0.015  0.009  0.004  0.028
   12  0.001  0.003  0.009  0.014
   13  0.015  0.009  0.004  0.028
   14  0.015  0.009  0.004  0.028
   15  0.030  0.003  0.008  0.041
   16  0.001  0.003  0.009  0.014
   17  0.030  0.003  0.008  0.041
   18  0.030  0.003  0.008  0.041
   19  0.007  0.001  0.009  0.018
   20  0.019  0.004  0.007  0.030
   21  0.019  0.004  0.007  0.030
   22  0.013  0.007  0.003  0.024
   23  0.019  0.004  0.007  0.030
   24  0.013  0.007  0.003  0.024
   25  0.007  0.001  0.009  0.018
   26  0.007  0.001  0.009  0.018
   27  0.013  0.007  0.003  0.024
   28  0.001  0.000  0.003  0.004
   29  0.003  0.001  0.004  0.007
   30  0.003  0.001  0.004  0.007
   31  0.003  0.001  0.004  0.007
   32  0.003  0.001  0.004  0.007
   33  0.003  0.001  0.004  0.007
   34  0.003  0.001  0.004  0.007
   35  0.001  0.001  0.002  0.004
   36  0.031  0.002  0.000  0.034
   37  0.002  0.000  0.000  0.002
tot    0.360  0.108  0.186  0.653
 
band    10 # energy   -5.09512199 # occ.  2.00000000
 
ion      s      p      d    tot
    1  0.003  0.001  0.009  0.013
    2  0.005  0.001  0.009  0.014
    3  0.005  0.001  0.009  0.014
    4  0.005  0.001  0.009  0.014
    5  0.000  0.001  0.009  0.010
    6  0.005  0.001  0.009  0.014
    7  0.005  0.001  0.009  0.014
    8  0.005  0.001  0.009  0.014
    9  0.018  0.000  0.006  0.024
   10  0.009  0.000  0.024  0.033
   11  0.010  0.000  0.021  0.031
   12  0.009  0.000  0.024  0.033
   13  0.010  0.000  0.021  0.031
   14  0.010  0.000  0.021  0.031
   15  0.001  0.000  0.021  0.023
   16  0.009  0.000  0.024  0.033
   17  0.001  0.000  0.021  0.023
   18  0.001  0.000  0.021  0.023
   19  0.005  0.000  0.020  0.025
   20  0.011  0.001  0.027  0.038
   21  0.011  0.001  0.027  0.038
   22  0.002  0.000  0.021  0.023
   23  0.011  0.001  0.027  0.038
   24  0.002  0.000  0.021  0.023
   25  0.005  0.000  0.020  0.025
   26  0.005  0.000  0.020  0.025
   27  0.002  0.000  0.021  0.023
   28  0.002  0.001  0.007  0.009
   29  0.004  0.001  0.009  0.013
   30  0.004  0.001  0.009  0.013
   31  0.004  0.001  0.009  0.013
   32  0.004  0.001  0.009  0.013
   33  0.004  0.001  0.009  0.013
   34  0.004  0.001  0.009  0.013
   35  0.016  0.000  0.006  0.022
   36  0.000  0.003  0.007  0.010
   37  0.000  0.000  0.000  0.000
tot    0.202  0.019  0.555  0.776
 
band    11 # energy   -5.08071208 # occ.  2.00000000
 
ion      s      p      d    tot
    1  0.000  0.003  0.011  0.014
    2  0.020  0.004  0.005  0.029
    3  0.002  0.002  0.005  0.008
    4  0.020  0.004  0.005  0.029
    5  0.000  0.000  0.011  0.011
    6  0.010  0.003  0.005  0.018
    7  0.002  0.002  0.005  0.008
    8  0.010  0.003  0.005  0.018
    9  0.000  0.006  0.008  0.014
   10  0.000  0.004  0.021  0.025
   11  0.005  0.002  0.010  0.017
   12  0.004  0.001  0.010  0.016
   13  0.005  0.002  0.010  0.017
   14  0.000  0.002  0.015  0.016
   15  0.018  0.004  0.010  0.031
   16  0.004  0.001  0.010  0.016
   17  0.018  0.004  0.010  0.031
   18  0.000  0.001  0.024  0.024
   19  0.011  0.004  0.011  0.025
   20  0.000  0.003  0.020  0.023
   21  0.000  0.001  0.012  0.013
   22  0.011  0.003  0.010  0.024
   23  0.000  0.001  0.012  0.013
   24  0.000  0.002  0.028  0.030
   25  0.000  0.000  0.016  0.016
   26  0.011  0.004  0.011  0.025
   27  0.011  0.003  0.010  0.024
   28  0.000  0.003  0.009  0.013
   29  0.021  0.004  0.006  0.031
   30  0.001  0.002  0.007  0.010
   31  0.021  0.004  0.006  0.031
   32  0.012  0.003  0.006  0.021
   33  0.001  0.002  0.007  0.010
   34  0.012  0.003  0.006  0.021
   35  0.000  0.006  0.010  0.015
   36  0.000  0.001  0.012  0.013
   37  0.000  0.000  0.000  0.000
tot    0.228  0.094  0.381  0.703
 
band    12 # energy   -5.08071109 # occ.  2.00000000
 
ion      s      p      d    tot
    1  0.000  0.003  0.011  0.014
    2  0.001  0.002  0.005  0.008
    3  0.019  0.004  0.005  0.028
    4  0.001  0.002  0.005  0.008
    5  0.000  0.000  0.011  0.011
    6  0.011  0.003  0.005  0.018
    7  0.019  0.004  0.005  0.028
    8  0.011  0.003  0.005  0.019
    9  0.000  0.006  0.008  0.014
   10  0.006  0.001  0.006  0.013
   11  0.002  0.002  0.013  0.017
   12  0.001  0.003  0.017  0.022
   13  0.002  0.002  0.013  0.017
   14  0.006  0.002  0.009  0.018
   15  0.006  0.002  0.019  0.027
   16  0.001  0.003  0.017  0.022
   17  0.006  0.002  0.019  0.027
   18  0.024  0.005  0.005  0.034
   19  0.004  0.001  0.014  0.019
   20  0.000  0.000  0.010  0.010
   21  0.000  0.002  0.017  0.020
   22  0.004  0.002  0.022  0.028
   23  0.000  0.002  0.017  0.020
   24  0.014  0.004  0.004  0.022
   25  0.015  0.005  0.009  0.029
   26  0.004  0.001  0.014  0.019
   27  0.004  0.002  0.022  0.028
   28  0.000  0.003  0.009  0.013
   29  0.002  0.002  0.007  0.010
   30  0.022  0.004  0.006  0.032
   31  0.002  0.002  0.007  0.010
   32  0.010  0.003  0.007  0.020
   33  0.022  0.004  0.006  0.032
   34  0.010  0.003  0.007  0.020
   35  0.000  0.006  0.010  0.015
   36  0.000  0.001  0.012  0.013
   37  0.000  0.000  0.000  0.000
tot    0.228  0.094  0.381  0.703
 
band    13 # energy   -5.07543340 # occ.  2.00000000
 
ion      s      p      d    tot
    1  0.000  0.003  0.009  0.012
    2  0.020  0.004  0.005  0.030
    3  0.002  0.002  0.005  0.008
    4  0.020  0.004  0.005  0.029
    5  0.000  0.006  0.010  0.015
    6  0.009  0.003  0.005  0.017
    7  0.002  0.002  0.005  0.009
    8  0.010  0.003  0.005  0.018
    9  0.000  0.000  0.012  0.012
   10  0.018  0.005  0.008  0.031
   11  0.005  0.003  0.021  0.028
   12  0.004  0.001  0.017  0.022
   13  0.004  0.003  0.022  0.028
   14  0.017  0.003  0.005  0.025
   15  0.000  0.003  0.014  0.017
   16  0.005  0.001  0.016  0.023
   17  0.000  0.003  0.014  0.017
   18  0.000  0.000  0.009  0.009
   19  0.001  0.003  0.020  0.024
   20  0.021  0.006  0.006  0.033
   21  0.005  0.002  0.025  0.031
   22  0.001  0.002  0.012  0.015
   23  0.006  0.002  0.024  0.031
   24  0.006  0.003  0.010  0.018
   25  0.004  0.001  0.006  0.011
   26  0.001  0.003  0.021  0.024
   27  0.002  0.002  0.012  0.015
   28  0.000  0.003  0.012  0.015
   29  0.019  0.004  0.006  0.029
   30  0.001  0.002  0.006  0.008
   31  0.018  0.004  0.006  0.028
   32  0.011  0.003  0.006  0.020
   33  0.001  0.002  0.006  0.008
   34  0.012  0.003  0.006  0.021
   35  0.000  0.000  0.011  0.011
   36  0.000  0.010  0.006  0.017
   37  0.000  0.000  0.000  0.000
tot    0.224  0.097  0.390  0.712
 
band    14 # energy   -5.07540833 # occ.  2.00000000
 
ion      s      p      d    tot
    1  0.000  0.003  0.009  0.012
    2  0.001  0.002  0.005  0.008
    3  0.020  0.004  0.005  0.029
    4  0.001  0.002  0.005  0.008
    5  0.000  0.006  0.010  0.015
    6  0.012  0.003  0.005  0.020
    7  0.019  0.004  0.005  0.028
    8  0.011  0.003  0.005  0.019
    9  0.000  0.000  0.012  0.012
   10  0.000  0.000  0.020  0.020
   11  0.012  0.003  0.011  0.026
   12  0.014  0.004  0.010  0.029
   13  0.013  0.003  0.010  0.026
   14  0.000  0.002  0.027  0.029
   15  0.000  0.001  0.011  0.012
   16  0.014  0.004  0.011  0.028
   17  0.000  0.001  0.010  0.011
   18  0.000  0.003  0.016  0.019
   19  0.003  0.001  0.011  0.016
   20  0.000  0.000  0.030  0.030
   21  0.016  0.004  0.012  0.032
   22  0.004  0.002  0.011  0.017
   23  0.015  0.004  0.013  0.032
   24  0.000  0.001  0.013  0.014
   25  0.000  0.003  0.025  0.028
   26  0.003  0.001  0.011  0.015
   27  0.004  0.002  0.011  0.017
   28  0.000  0.003  0.012  0.015
   29  0.002  0.002  0.006  0.009
   30  0.020  0.004  0.006  0.030
   31  0.002  0.002  0.006  0.010
   32  0.010  0.003  0.006  0.019
   33  0.019  0.004  0.006  0.029
   34  0.009  0.003  0.006  0.017
   35  0.000  0.000  0.011  0.012
   36  0.000  0.010  0.006  0.017
   37  0.000  0.000  0.000  0.000
tot    0.224  0.097  0.390  0.712
 
band    15 # energy   -5.07332291 # occ.  2.00000000
 
ion      s      p      d    tot
    1  0.037  0.003  0.000  0.040
    2  0.000  0.003  0.010  0.013
    3  0.000  0.003  0.010  0.013
    4  0.000  0.003  0.010  0.013
    5  0.000  0.000  0.001  0.001
    6  0.000  0.003  0.010  0.013
    7  0.000  0.003  0.010  0.013
    8  0.000  0.003  0.010  0.013
    9  0.023  0.003  0.001  0.028
   10  0.007  0.003  0.011  0.021
   11  0.002  0.000  0.015  0.018
   12  0.007  0.003  0.011  0.021
   13  0.002  0.000  0.015  0.018
   14  0.002  0.000  0.016  0.018
   15  0.008  0.003  0.016  0.027
   16  0.007  0.003  0.011  0.021
   17  0.008  0.003  0.016  0.027
   18  0.008  0.003  0.016  0.027
   19  0.004  0.004  0.019  0.026
   20  0.000  0.000  0.016  0.016
   21  0.000  0.000  0.016  0.016
   22  0.012  0.003  0.010  0.025
   23  0.000  0.000  0.016  0.016
   24  0.012  0.003  0.010  0.025
   25  0.004  0.004  0.019  0.026
   26  0.004  0.004  0.019  0.026
   27  0.012  0.003  0.010  0.025
   28  0.040  0.003  0.000  0.044
   29  0.000  0.003  0.012  0.015
   30  0.000  0.003  0.012  0.015
   31  0.000  0.003  0.012  0.015
   32  0.000  0.003  0.012  0.015
   33  0.000  0.003  0.012  0.015
   34  0.000  0.003  0.012  0.015
   35  0.022  0.003  0.002  0.027
   36  0.000  0.000  0.000  0.000
   37  0.000  0.000  0.000  0.000
tot    0.224  0.088  0.397  0.708
 
band    16 # energy   -4.97998630 # occ.  2.00000000
 
ion      s      p      d    tot
    1  0.009  0.001  0.001  0.011
    2  0.000  0.003  0.011  0.014
    3  0.000  0.003  0.011  0.014
    4  0.000  0.003  0.011  0.014
    5  0.046  0.004  0.000  0.049
    6  0.000  0.003  0.011  0.014
    7  0.000  0.003  0.011  0.014
    8  0.000  0.003  0.011  0.014
    9  0.006  0.001  0.001  0.009
   10  0.002  0.001  0.022  0.025
   11  0.004  0.004  0.018  0.026
   12  0.002  0.001  0.022  0.025
   13  0.004  0.004  0.018  0.026
   14  0.004  0.004  0.018  0.026
   15  0.006  0.001  0.010  0.017
   16  0.002  0.001  0.022  0.025
   17  0.006  0.001  0.010  0.017
   18  0.006  0.001  0.010  0.017
   19  0.010  0.001  0.018  0.028
   20  0.009  0.004  0.013  0.026
   21  0.009  0.004  0.013  0.026
   22  0.003  0.001  0.017  0.021
   23  0.009  0.004  0.013  0.026
   24  0.003  0.001  0.017  0.021
   25  0.010  0.001  0.018  0.028
   26  0.010  0.001  0.018  0.028
   27  0.003  0.001  0.017  0.021
   28  0.003  0.002  0.004  0.009
   29  0.001  0.002  0.010  0.013
   30  0.001  0.002  0.010  0.013
   31  0.001  0.002  0.010  0.013
   32  0.001  0.002  0.010  0.013
   33  0.001  0.002  0.010  0.013
   34  0.001  0.002  0.010  0.013
   35  0.005  0.001  0.002  0.008
   36  0.055  0.004  0.002  0.060
   37  0.005  0.000  0.000  0.005
tot    0.235  0.083  0.427  0.745
 
band    17 # energy   -4.40936386 # occ.  2.00000000
 
ion      s      p      d    tot
    1  0.000  0.000  0.033  0.034
    2  0.014  0.001  0.009  0.025
    3  0.008  0.001  0.009  0.018
    4  0.014  0.001  0.009  0.025
    5  0.000  0.001  0.013  0.014
    6  0.001  0.001  0.009  0.011
    7  0.008  0.001  0.009  0.018
    8  0.001  0.001  0.009  0.011
    9  0.000  0.003  0.005  0.008
   10  0.000  0.000  0.059  0.059
   11  0.000  0.004  0.017  0.021
   12  0.000  0.000  0.019  0.020
   13  0.000  0.004  0.017  0.021
   14  0.000  0.000  0.009  0.009
   15  0.001  0.004  0.016  0.021
   16  0.000  0.000  0.018  0.019
   17  0.001  0.004  0.016  0.021
   18  0.000  0.000  0.030  0.030
   19  0.001  0.004  0.017  0.022
   20  0.000  0.000  0.067  0.067
   21  0.000  0.000  0.025  0.026
   22  0.001  0.003  0.016  0.021
   23  0.000  0.000  0.024  0.025
   24  0.000  0.000  0.030  0.030
   25  0.000  0.000  0.012  0.012
   26  0.001  0.004  0.017  0.022
   27  0.001  0.003  0.016  0.020
   28  0.000  0.001  0.009  0.010
   29  0.011  0.001  0.014  0.026
   30  0.000  0.001  0.013  0.013
   31  0.012  0.001  0.014  0.026
   32  0.011  0.001  0.012  0.025
   33  0.000  0.001  0.013  0.013
   34  0.011  0.001  0.012  0.024
   35  0.000  0.002  0.011  0.013
   36  0.000  0.000  0.023  0.023
   37  0.000  0.000  0.000  0.000
tot    0.099  0.051  0.653  0.803
 
band    18 # energy   -4.40933906 # occ.  2.00000000
 
ion      s      p      d    tot
    1  0.000  0.000  0.033  0.034
    2  0.001  0.001  0.009  0.011
    3  0.007  0.001  0.009  0.017
    4  0.001  0.001  0.009  0.011
    5  0.000  0.001  0.013  0.014
    6  0.015  0.001  0.009  0.025
    7  0.007  0.001  0.009  0.018
    8  0.015  0.001  0.009  0.025
    9  0.000  0.003  0.005  0.008
   10  0.000  0.000  0.006  0.006
   11  0.000  0.001  0.011  0.013
   12  0.000  0.000  0.045  0.045
   13  0.000  0.001  0.012  0.013
   14  0.000  0.005  0.020  0.025
   15  0.000  0.001  0.025  0.027
   16  0.000  0.000  0.046  0.046
   17  0.000  0.002  0.025  0.027
   18  0.001  0.006  0.011  0.018
   19  0.000  0.001  0.013  0.015
   20  0.000  0.000  0.011  0.011
   21  0.000  0.000  0.052  0.053
   22  0.000  0.001  0.025  0.027
   23  0.000  0.000  0.054  0.054
   24  0.002  0.004  0.011  0.017
   25  0.001  0.005  0.019  0.026
   26  0.000  0.002  0.014  0.015
   27  0.000  0.001  0.026  0.027
   28  0.000  0.001  0.009  0.010
   29  0.004  0.001  0.012  0.017
   30  0.015  0.001  0.013  0.029
   31  0.004  0.001  0.012  0.016
   32  0.004  0.001  0.014  0.018
   33  0.015  0.001  0.013  0.029
   34  0.004  0.001  0.014  0.019
   35  0.000  0.002  0.011  0.013
   36  0.000  0.000  0.023  0.023
   37  0.000  0.000  0.000  0.000
tot    0.099  0.051  0.653  0.803
 
band    19 # energy   -4.38967101 # occ.  2.00000000
 
ion      s      p      d    tot
    1  0.005  0.000  0.001  0.006
    2  0.000  0.001  0.017  0.018
    3  0.000  0.001  0.017  0.018
    4  0.000  0.001  0.017  0.018
    5  0.010  0.000  0.000  0.010
    6  0.000  0.001  0.017  0.018
    7  0.000  0.001  0.017  0.018
    8  0.000  0.001  0.017  0.018
    9  0.028  0.001  0.002  0.031
   10  0.000  0.002  0.012  0.014
   11  0.000  0.000  0.015  0.015
   12  0.000  0.002  0.012  0.014
   13  0.000  0.000  0.015  0.015
   14  0.000  0.000  0.015  0.015
   15  0.000  0.003  0.037  0.040
   16  0.000  0.002  0.012  0.014
   17  0.000  0.003  0.037  0.040
   18  0.000  0.003  0.037  0.040
   19  0.000  0.002  0.030  0.032
   20  0.000  0.000  0.010  0.011
   21  0.000  0.000  0.010  0.011
   22  0.001  0.003  0.030  0.034
   23  0.000  0.000  0.010  0.011
   24  0.001  0.003  0.030  0.034
   25  0.000  0.002  0.030  0.032
   26  0.000  0.002  0.030  0.032
   27  0.001  0.003  0.030  0.034
   28  0.025  0.001  0.002  0.027
   29  0.000  0.001  0.025  0.026
   30  0.000  0.001  0.025  0.026
   31  0.000  0.001  0.025  0.026
   32  0.000  0.001  0.025  0.026
   33  0.000  0.001  0.025  0.026
   34  0.000  0.001  0.025  0.026
   35  0.021  0.000  0.004  0.025
   36  0.001  0.000  0.001  0.002
   37  0.000  0.000  0.000  0.000
tot    0.096  0.048  0.659  0.803
 
band    20 # energy   -4.38580532 # occ.  2.00000000
 
ion      s      p      d    tot
    1  0.000  0.002  0.001  0.004
    2  0.014  0.001  0.010  0.025
    3  0.008  0.001  0.009  0.018
    4  0.014  0.001  0.010  0.025
    5  0.000  0.002  0.021  0.023
    6  0.001  0.001  0.009  0.011
    7  0.008  0.001  0.009  0.018
    8  0.001  0.001  0.009  0.011
    9  0.000  0.000  0.030  0.030
   10  0.001  0.007  0.021  0.029
   11  0.000  0.001  0.042  0.042
   12  0.000  0.002  0.010  0.012
   13  0.000  0.001  0.042  0.043
   14  0.001  0.002  0.004  0.007
   15  0.000  0.000  0.030  0.030
   16  0.000  0.002  0.010  0.013
   17  0.000  0.000  0.030  0.030
   18  0.000  0.001  0.012  0.013
   19  0.000  0.000  0.045  0.045
   20  0.002  0.007  0.023  0.031
   21  0.000  0.002  0.017  0.019
   22  0.000  0.001  0.024  0.025
   23  0.000  0.002  0.017  0.019
   24  0.000  0.002  0.014  0.017
   25  0.001  0.001  0.004  0.005
   26  0.000  0.000  0.045  0.045
   27  0.000  0.001  0.024  0.025
   28  0.000  0.001  0.030  0.031
   29  0.012  0.001  0.012  0.026
   30  0.000  0.001  0.011  0.012
   31  0.012  0.001  0.012  0.026
   32  0.010  0.001  0.011  0.023
   33  0.000  0.001  0.011  0.012
   34  0.010  0.001  0.011  0.023
   35  0.000  0.000  0.029  0.029
   36  0.000  0.004  0.000  0.004
   37  0.000  0.000  0.000  0.000
tot    0.098  0.054  0.650  0.802
 
band    21 # energy   -4.38575656 # occ.  2.00000000
 
ion      s      p      d    tot
    1  0.000  0.002  0.001  0.004
    2  0.001  0.001  0.009  0.011
    3  0.008  0.001  0.010  0.018
    4  0.001  0.001  0.009  0.011
    5  0.000  0.002  0.021  0.023
    6  0.014  0.001  0.009  0.025
    7  0.008  0.001  0.010  0.018
    8  0.014  0.001  0.009  0.025
    9  0.000  0.000  0.030  0.030
   10  0.000  0.000  0.007  0.007
   11  0.001  0.002  0.017  0.019
   12  0.001  0.006  0.017  0.024
   13  0.001  0.002  0.017  0.019
   14  0.000  0.000  0.054  0.054
   15  0.000  0.001  0.018  0.019
   16  0.001  0.006  0.017  0.024
   17  0.000  0.001  0.018  0.019
   18  0.000  0.000  0.035  0.036
   19  0.001  0.001  0.017  0.019
   20  0.000  0.000  0.015  0.015
   21  0.001  0.005  0.021  0.027
   22  0.000  0.002  0.018  0.020
   23  0.001  0.005  0.021  0.027
   24  0.000  0.000  0.028  0.028
   25  0.000  0.000  0.058  0.058
   26  0.001  0.001  0.017  0.019
   27  0.000  0.002  0.018  0.020
   28  0.000  0.001  0.030  0.031
   29  0.003  0.001  0.011  0.014
   30  0.015  0.001  0.012  0.028
   31  0.003  0.001  0.011  0.014
   32  0.005  0.001  0.012  0.017
   33  0.015  0.001  0.012  0.028
   34  0.005  0.001  0.012  0.017
   35  0.000  0.000  0.029  0.029
   36  0.000  0.004  0.000  0.004