PROCAR new format
# of k-points:   10         # of bands:  252         # of ions:   37

 k-point     1 :    0.00000000 0.00000000 0.00000000     weight = 0.01562500

band     1 # energy   -9.30654282 # occ.  2.00000000
 
ion      s      p      d    tot
    1  0.000  0.000  0.000  0.000
    2  0.000  0.000  0.000  0.000
    3  0.000  0.000  0.000  0.000
    4  0.000  0.000  0.000  0.000
    5  0.000  0.000  0.000  0.000
    6  0.000  0.000  0.000  0.000
    7  0.000  0.000  0.000  0.000
    8  0.000  0.000  0.000  0.000
    9  0.000  0.000  0.000  0.000
   10  0.001  0.000  0.000  0.001
   11  0.001  0.000  0.000  0.001
   12  0.001  0.000  0.000  0.001
   13  0.001  0.000  0.000  0.001
   14  0.001  0.000  0.000  0.001
   15  0.001  0.000  0.000  0.001
   16  0.001  0.000  0.000  0.001
   17  0.001  0.000  0.000  0.001
   18  0.001  0.000  0.000  0.001
   19  0.002  0.000  0.000  0.002
   20  0.005  0.000  0.001  0.007
   21  0.005  0.000  0.001  0.007
   22  0.002  0.000  0.000  0.002
   23  0.005  0.000  0.001  0.007
   24  0.002  0.000  0.000  0.002
   25  0.002  0.000  0.000  0.002
   26  0.002  0.000  0.000  0.002
   27  0.002  0.000  0.000  0.002
   28  0.001  0.000  0.000  0.001
   29  0.005  0.001  0.002  0.007
   30  0.005  0.001  0.002  0.007
   31  0.005  0.001  0.002  0.007
   32  0.005  0.001  0.002  0.007
   33  0.005  0.001  0.002  0.007
   34  0.005  0.001  0.002  0.007
   35  0.001  0.000  0.000  0.001
   36  0.114  0.058  0.111  0.283
   37  0.385  0.019  0.000  0.404
tot    0.565  0.081  0.124  0.771
 
band     2 # energy   -8.63025559 # occ.  2.00000000
 
ion      s      p      d    tot
    1  0.007  0.001  0.000  0.008
    2  0.007  0.001  0.000  0.008
    3  0.007  0.001  0.000  0.008
    4  0.007  0.001  0.000  0.008
    5  0.007  0.001  0.000  0.008
    6  0.007  0.001  0.000  0.008
    7  0.007  0.001  0.000  0.008
    8  0.007  0.001  0.000  0.008
    9  0.007  0.001  0.000  0.008
   10  0.027  0.000  0.000  0.027
   11  0.028  0.000  0.000  0.028
   12  0.027  0.000  0.000  0.027
   13  0.028  0.000  0.000  0.028
   14  0.028  0.000  0.000  0.028
   15  0.027  0.000  0.000  0.028
   16  0.027  0.000  0.000  0.027
   17  0.027  0.000  0.000  0.028
   18  0.027  0.000  0.000  0.028
   19  0.021  0.000  0.000  0.021
   20  0.021  0.000  0.000  0.021
   21  0.021  0.000  0.000  0.021
   22  0.022  0.000  0.000  0.023
   23  0.021  0.000  0.000  0.021
   24  0.022  0.000  0.000  0.023
   25  0.021  0.000  0.000  0.021
   26  0.021  0.000  0.000  0.021
   27  0.022  0.000  0.000  0.023
   28  0.003  0.000  0.000  0.004
   29  0.002  0.001  0.000  0.003
   30  0.002  0.001  0.000  0.003
   31  0.002  0.001  0.000  0.003
   32  0.002  0.001  0.000  0.003
   33  0.002  0.001  0.000  0.003
   34  0.002  0.001  0.000  0.003
   35  0.003  0.000  0.000  0.004
   36  0.002  0.010  0.010  0.022
   37  0.036  0.001  0.000  0.037
tot    0.557  0.024  0.017  0.598
 
band     3 # energy   -7.43934726 # occ.  2.00000000
 
ion      s      p      d    tot
    1  0.017  0.000  0.001  0.019
    2  0.017  0.000  0.001  0.019
    3  0.017  0.000  0.001  0.019
    4  0.017  0.000  0.001  0.019
    5  0.017  0.000  0.001  0.018
    6  0.017  0.000  0.001  0.019
    7  0.017  0.000  0.001  0.019
    8  0.017  0.000  0.001  0.019
    9  0.016  0.000  0.001  0.018
   10  0.009  0.002  0.002  0.014
   11  0.009  0.002  0.003  0.013
   12  0.009  0.002  0.002  0.014
   13  0.009  0.002  0.003  0.013
   14  0.009  0.002  0.003  0.013
   15  0.008  0.002  0.003  0.013
   16  0.009  0.002  0.002  0.014
   17  0.008  0.002  0.003  0.013
   18  0.008  0.002  0.003  0.013
   19  0.017  0.001  0.005  0.022
   20  0.016  0.001  0.006  0.022
   21  0.016  0.001  0.006  0.022
   22  0.019  0.001  0.004  0.024
   23  0.016  0.001  0.006  0.022
   24  0.019  0.001  0.004  0.024
   25  0.017  0.001  0.005  0.022
   26  0.017  0.001  0.005  0.022
   27  0.019  0.001  0.004  0.024
   28  0.012  0.001  0.000  0.013
   29  0.010  0.001  0.001  0.011
   30  0.010  0.001  0.001  0.011
   31  0.010  0.001  0.001  0.011
   32  0.010  0.001  0.001  0.011
   33  0.010  0.001  0.001  0.011
   34  0.010  0.001  0.001  0.011
   35  0.013  0.001  0.000  0.013
   36  0.000  0.005  0.005  0.011
   37  0.013  0.000  0.000  0.013
tot    0.482  0.037  0.089  0.608
 
band     4 # energy   -6.56183719 # occ.  2.00000000
 
ion      s      p      d    tot
    1  0.002  0.000  0.013  0.015
    2  0.007  0.000  0.010  0.018
    3  0.007  0.000  0.010  0.018
    4  0.007  0.000  0.010  0.018
    5  0.002  0.000  0.007  0.009
    6  0.008  0.000  0.010  0.018
    7  0.007  0.000  0.010  0.018
    8  0.008  0.000  0.010  0.018
    9  0.032  0.001  0.003  0.036
   10  0.010  0.001  0.022  0.032
   11  0.019  0.003  0.009  0.031
   12  0.010  0.001  0.022  0.032
   13  0.019  0.003  0.009  0.031
   14  0.019  0.003  0.009  0.031
   15  0.008  0.001  0.019  0.028
   16  0.010  0.001  0.022  0.032
   17  0.008  0.001  0.019  0.028
   18  0.008  0.001  0.020  0.028
   19  0.001  0.001  0.016  0.017
   20  0.020  0.002  0.012  0.033
   21  0.020  0.002  0.012  0.033
   22  0.010  0.002  0.004  0.016
   23  0.020  0.002  0.012  0.033
   24  0.010  0.002  0.004  0.016
   25  0.001  0.001  0.016  0.017
   26  0.001  0.001  0.016  0.017
   27  0.010  0.002  0.004  0.016
   28  0.005  0.000  0.000  0.006
   29  0.002  0.000  0.004  0.006
   30  0.002  0.000  0.004  0.006
   31  0.002  0.000  0.004  0.006
   32  0.002  0.000  0.004  0.006
   33  0.002  0.000  0.004  0.006
   34  0.002  0.000  0.004  0.006
   35  0.009  0.000  0.000  0.010
   36  0.002  0.002  0.001  0.005
   37  0.000  0.000  0.000  0.000
tot    0.309  0.034  0.355  0.698
 
band     5 # energy   -6.54133233 # occ.  2.00000000
 
ion      s      p      d    tot
    1  0.000  0.000  0.006  0.006
    2  0.006  0.001  0.004  0.010
    3  0.005  0.001  0.003  0.009
    4  0.006  0.001  0.004  0.011
    5  0.000  0.001  0.009  0.010
    6  0.000  0.000  0.003  0.003
    7  0.005  0.001  0.003  0.009
    8  0.000  0.000  0.003  0.003
    9  0.000  0.000  0.001  0.002
   10  0.000  0.000  0.031  0.031
   11  0.043  0.002  0.015  0.060
   12  0.016  0.001  0.011  0.029
   13  0.045  0.001  0.014  0.061
   14  0.000  0.002  0.034  0.036
   15  0.007  0.001  0.011  0.019
   16  0.016  0.001  0.012  0.029
   17  0.007  0.001  0.012  0.020
   18  0.000  0.004  0.002  0.006
   19  0.002  0.001  0.010  0.013
   20  0.000  0.003  0.028  0.031
   21  0.042  0.002  0.015  0.058
   22  0.023  0.002  0.011  0.035
   23  0.040  0.002  0.015  0.057
   24  0.000  0.000  0.035  0.035
   25  0.000  0.003  0.003  0.007
   26  0.002  0.001  0.010  0.013
   27  0.022  0.001  0.012  0.035
   28  0.000  0.000  0.001  0.001
   29  0.000  0.000  0.002  0.003
   30  0.006  0.001  0.003  0.010
   31  0.000  0.000  0.002  0.003
   32  0.004  0.001  0.004  0.009
   33  0.006  0.001  0.003  0.010
   34  0.004  0.001  0.004  0.008
   35  0.000  0.000  0.006  0.006
   36  0.000  0.002  0.002  0.004
   37  0.000  0.000  0.000  0.000
tot    0.308  0.043  0.343  0.694
 
band     6 # energy   -6.54132329 # occ.  2.00000000
 
ion      s      p      d    tot
    1  0.000  0.000  0.006  0.006
    2  0.002  0.001  0.003  0.005
    3  0.002  0.001  0.003  0.006
    4  0.002  0.000  0.003  0.005
    5  0.000  0.001  0.009  0.010
    6  0.007  0.001  0.004  0.012
    7  0.002  0.001  0.003  0.006
    8  0.007  0.001  0.003  0.012
    9  0.000  0.000  0.001  0.002
   10  0.021  0.002  0.006  0.029
   11  0.016  0.002  0.027  0.045
   12  0.005  0.001  0.025  0.031
   13  0.014  0.002  0.028  0.044
   14  0.059  0.001  0.008  0.069
   15  0.003  0.003  0.005  0.011
   16  0.006  0.001  0.024  0.031
   17  0.002  0.003  0.005  0.010
   18  0.009  0.000  0.015  0.024
   19  0.001  0.003  0.006  0.009
   20  0.055  0.001  0.011  0.067
   21  0.012  0.003  0.024  0.039
   22  0.007  0.000  0.028  0.035
   23  0.014  0.003  0.023  0.040
   24  0.030  0.002  0.003  0.035
   25  0.003  0.000  0.013  0.015
   26  0.001  0.003  0.006  0.009
   27  0.008  0.001  0.027  0.035
   28  0.000  0.000  0.001  0.001
   29  0.007  0.001  0.003  0.011
   30  0.001  0.000  0.003  0.004
   31  0.007  0.001  0.003  0.011
   32  0.003  0.001  0.002  0.006
   33  0.001  0.000  0.003  0.004
   34  0.003  0.001  0.002  0.006
   35  0.000  0.000  0.006  0.006
   36  0.000  0.002  0.002  0.004
   37  0.000  0.000  0.000  0.000
tot    0.308  0.043  0.343  0.694
 
band     7 # energy   -6.54055639 # occ.  2.00000000
 
ion      s      p      d    tot
    1  0.021  0.000  0.009  0.030
    2  0.013  0.000  0.015  0.028
    3  0.013  0.000  0.015  0.028
    4  0.013  0.000  0.015  0.028
    5  0.021  0.000  0.013  0.034
    6  0.013  0.000  0.015  0.028
    7  0.013  0.000  0.015  0.028
    8  0.013  0.000  0.015  0.028
    9  0.003  0.001  0.018  0.022
   10  0.002  0.000  0.031  0.033
   11  0.000  0.001  0.025  0.026
   12  0.002  0.000  0.031  0.033
   13  0.000  0.001  0.025  0.026
   14  0.000  0.001  0.025  0.026
   15  0.028  0.001  0.016  0.045
   16  0.002  0.000  0.031  0.033
   17  0.028  0.001  0.016  0.045
   18  0.029  0.001  0.016  0.045
   19  0.000  0.000  0.014  0.014
   20  0.013  0.000  0.008  0.022
   21  0.014  0.000  0.008  0.022
   22  0.002  0.001  0.009  0.012
   23  0.014  0.000  0.008  0.022
   24  0.002  0.001  0.009  0.012
   25  0.000  0.000  0.014  0.014
   26  0.000  0.000  0.014  0.014
   27  0.002  0.001  0.009  0.012
   28  0.000  0.000  0.000  0.000
   29  0.000  0.000  0.002  0.002
   30  0.000  0.000  0.002  0.002
   31  0.000  0.000  0.002  0.002
   32  0.000  0.000  0.002  0.002
   33  0.000  0.000  0.002  0.002
   34  0.000  0.000  0.002  0.002
   35  0.001  0.000  0.000  0.002
   36  0.001  0.002  0.000  0.003
   37  0.001  0.000  0.000  0.001
tot    0.264  0.018  0.448  0.729
 
band     8 # energy   -6.51858972 # occ.  2.00000000
 
ion      s      p      d    tot
    1  0.011  0.002  0.001  0.013
    2  0.000  0.001  0.006  0.006
    3  0.000  0.001  0.006  0.006
    4  0.000  0.001  0.006  0.006
    5  0.012  0.002  0.002  0.016
    6  0.000  0.001  0.006  0.006
    7  0.000  0.001  0.006  0.006
    8  0.000  0.001  0.006  0.006
    9  0.000  0.000  0.001  0.001
   10  0.026  0.003  0.003  0.032
   11  0.019  0.000  0.024  0.044
   12  0.026  0.003  0.003  0.032
   13  0.019  0.000  0.024  0.044
   14  0.019  0.000  0.024  0.044
   15  0.000  0.001  0.021  0.023
   16  0.026  0.003  0.003  0.032
   17  0.000  0.001  0.021  0.023
   18  0.000  0.001  0.021  0.023
   19  0.027  0.003  0.003  0.033
   20  0.002  0.002  0.021  0.025
   21  0.002  0.002  0.021  0.025
   22  0.012  0.000  0.026  0.037
   23  0.002  0.002  0.021  0.025
   24  0.012  0.000  0.026  0.038
   25  0.027  0.003  0.003  0.033
   26  0.027  0.003  0.003  0.033
   27  0.012  0.000  0.026  0.037
   28  0.009  0.001  0.001  0.011
   29  0.000  0.000  0.004  0.004
   30  0.000  0.000  0.004  0.004
   31  0.000  0.000  0.004  0.004
   32  0.000  0.000  0.004  0.004
   33  0.000  0.000  0.004  0.004
   34  0.000  0.000  0.004  0.004
   35  0.006  0.001  0.002  0.009
   36  0.000  0.000  0.000  0.000
   37  0.000  0.000  0.000  0.000
tot    0.300  0.041  0.355  0.695
 
band     9 # energy   -6.49449640 # occ.  2.00000000
 
ion      s      p      d    tot
    1  0.000  0.001  0.005  0.007
    2  0.006  0.001  0.004  0.011
    3  0.006  0.001  0.003  0.011
    4  0.006  0.001  0.004  0.012
    5  0.000  0.000  0.003  0.003
    6  0.000  0.000  0.003  0.004
    7  0.006  0.001  0.003  0.011
    8  0.000  0.000  0.003  0.004
    9  0.000  0.001  0.011  0.012
   10  0.041  0.000  0.015  0.056
   11  0.000  0.002  0.014  0.016
   12  0.010  0.003  0.012  0.025
   13  0.000  0.002  0.014  0.016
   14  0.001  0.001  0.012  0.013
   15  0.014  0.001  0.036  0.051
   16  0.011  0.003  0.012  0.026
   17  0.013  0.001  0.037  0.050
   18  0.055  0.002  0.003  0.060
   19  0.013  0.001  0.028  0.041
   20  0.005  0.001  0.009  0.016
   21  0.001  0.001  0.017  0.019
   22  0.006  0.003  0.010  0.019
   23  0.001  0.001  0.016  0.019
   24  0.024  0.000  0.014  0.038
   25  0.048  0.002  0.004  0.054
   26  0.011  0.001  0.028  0.041
   27  0.006  0.003  0.010  0.020
   28  0.000  0.001  0.006  0.007
   29  0.000  0.000  0.002  0.002
   30  0.003  0.001  0.002  0.006
   31  0.000  0.000  0.002  0.002
   32  0.003  0.001  0.003  0.007
   33  0.003  0.001  0.002  0.006
   34  0.003  0.001  0.003  0.006
   35  0.000  0.001  0.002  0.003
   36  0.000  0.000  0.001  0.001
   37  0.000  0.000  0.000  0.000
tot    0.299  0.042  0.353  0.694
 
band    10 # energy   -6.49447398 # occ.  2.00000000
 
ion      s      p      d    tot
    1  0.000  0.001  0.005  0.007
    2  0.002  0.001  0.003  0.006
    3  0.002  0.001  0.004  0.007
    4  0.002  0.001  0.003  0.006
    5  0.000  0.000  0.003  0.003
    6  0.008  0.001  0.004  0.014
    7  0.002  0.001  0.004  0.006
    8  0.008  0.001  0.004  0.014
    9  0.000  0.001  0.011  0.012
   10  0.000  0.004  0.011  0.015
   11  0.001  0.001  0.012  0.014
   12  0.031  0.001  0.014  0.047
   13  0.001  0.001  0.012  0.014
   14  0.000  0.003  0.014  0.017
   15  0.041  0.001  0.015  0.057
   16  0.030  0.001  0.014  0.046
   17  0.042  0.002  0.014  0.057
   18  0.000  0.000  0.047  0.047
   19  0.036  0.002  0.012  0.050
   20  0.000  0.001  0.019  0.020
   21  0.004  0.001  0.011  0.017
   22  0.018  0.001  0.013  0.032
   23  0.004  0.001  0.012  0.017
   24  0.000  0.004  0.009  0.013
   25  0.000  0.001  0.036  0.037
   26  0.037  0.002  0.012  0.050
   27  0.018  0.001  0.013  0.032
   28  0.000  0.001  0.006  0.007
   29  0.004  0.001  0.002  0.008
   30  0.001  0.000  0.002  0.004
   31  0.004  0.001  0.002  0.008
   32  0.001  0.000  0.002  0.003
   33  0.001  0.000  0.002  0.004
   34  0.001  0.000  0.002  0.003
   35  0.000  0.001  0.002  0.003
   36  0.000  0.000  0.001  0.001
   37  0.000  0.000  0.000  0.000
tot    0.299  0.042  0.353  0.694
 
band    11 # energy   -6.32316008 # occ.  2.00000000
 
ion      s      p      d    tot
    1  0.001  0.000  0.000  0.001
    2  0.001  0.000  0.001  0.002
    3  0.001  0.000  0.001  0.002
    4  0.001  0.000  0.001  0.002
    5  0.003  0.000  0.000  0.004
    6  0.001  0.000  0.001  0.002
    7  0.001  0.000  0.001  0.002
    8  0.001  0.000  0.001  0.002
    9  0.000  0.000  0.001  0.002
   10  0.000  0.000  0.005  0.005
   11  0.001  0.001  0.001  0.003
   12  0.000  0.000  0.005  0.005
   13  0.001  0.001  0.001  0.003
   14  0.001  0.001  0.001  0.003
   15  0.004  0.000  0.004  0.008
   16  0.000  0.000  0.005  0.005
   17  0.004  0.000  0.004  0.008
   18  0.004  0.000  0.004  0.008
   19  0.002  0.001  0.015  0.018
   20  0.002  0.000  0.027  0.029
   21  0.002  0.000  0.027  0.029
   22  0.008  0.002  0.023  0.032
   23  0.002  0.000  0.027  0.029
   24  0.008  0.002  0.023  0.032
   25  0.002  0.001  0.015  0.018
   26  0.002  0.001  0.015  0.018
   27  0.008  0.002  0.023  0.032
   28  0.034  0.000  0.020  0.054
   29  0.024  0.000  0.022  0.047
   30  0.024  0.000  0.022  0.047
   31  0.024  0.000  0.022  0.047
   32  0.024  0.000  0.022  0.047
   33  0.024  0.000  0.022  0.047
   34  0.024  0.000  0.022  0.047
   35  0.030  0.000  0.022  0.053
   36  0.001  0.000  0.018  0.019
   37  0.007  0.000  0.000  0.007
tot    0.279  0.016  0.424  0.720
 
band    12 # energy   -6.06299384 # occ.  2.00000000
 
ion      s      p      d    tot
    1  0.013  0.002  0.002  0.017
    2  0.000  0.001  0.008  0.009
    3  0.000  0.001  0.008  0.009
    4  0.000  0.001  0.008  0.009
    5  0.001  0.000  0.002  0.002
    6  0.000  0.001  0.008  0.009
    7  0.000  0.001  0.008  0.009
    8  0.000  0.001  0.008  0.009
    9  0.018  0.002  0.000  0.020
   10  0.011  0.001  0.015  0.027
   11  0.002  0.000  0.046  0.048
   12  0.011  0.001  0.015  0.027
   13  0.002  0.000  0.046  0.048
   14  0.002  0.000  0.046  0.048
   15  0.004  0.001  0.021  0.027
   16  0.011  0.001  0.015  0.027
   17  0.004  0.001  0.021  0.027
   18  0.004  0.001  0.021  0.027
   19  0.004  0.001  0.014  0.018
   20  0.001  0.000  0.051  0.053
   21  0.002  0.000  0.051  0.052
   22  0.011  0.001  0.018  0.029
   23  0.002  0.000  0.051  0.052
   24  0.011  0.001  0.018  0.029
   25  0.004  0.001  0.014  0.018
   26  0.004  0.001  0.014  0.018
   27  0.011  0.001  0.018  0.029
   28  0.009  0.001  0.001  0.011
   29  0.000  0.000  0.005  0.006
   30  0.000  0.000  0.005  0.006
   31  0.000  0.000  0.005  0.006
   32  0.000  0.000  0.005  0.006
   33  0.000  0.000  0.005  0.006
   34  0.000  0.000  0.005  0.006
   35  0.009  0.001  0.002  0.012
   36  0.000  0.000  0.001  0.001
   37  0.000  0.000  0.000  0.000
tot    0.148  0.027  0.580  0.756
 
band    13 # energy   -6.05277442 # occ.  2.00000000
 
ion      s      p      d    tot
    1  0.000  0.001  0.004  0.005
    2  0.001  0.001  0.005  0.006
    3  0.009  0.001  0.005  0.015
    4  0.001  0.001  0.005  0.006
    5  0.000  0.001  0.011  0.012
    6  0.005  0.001  0.004  0.010
    7  0.009  0.001  0.005  0.015
    8  0.005  0.001  0.004  0.010
    9  0.000  0.000  0.009  0.009
   10  0.000  0.001  0.051  0.051
   11  0.016  0.001  0.021  0.038
   12  0.007  0.002  0.019  0.028
   13  0.016  0.001  0.021  0.038
   14  0.000  0.000  0.051  0.051
   15  0.002  0.000  0.020  0.022
   16  0.007  0.002  0.019  0.028
   17  0.002  0.000  0.020  0.022
   18  0.000  0.001  0.010  0.012
   19  0.006  0.000  0.019  0.025
   20  0.000  0.000  0.070  0.070
   21  0.017  0.001  0.022  0.041
   22  0.003  0.001  0.019  0.023
   23  0.017  0.001  0.022  0.041
   24  0.000  0.001  0.034  0.035
   25  0.000  0.001  0.013  0.014
   26  0.006  0.000  0.018  0.025
   27  0.003  0.001  0.019  0.023
   28  0.000  0.000  0.008  0.008
   29  0.002  0.001  0.004  0.006
   30  0.010  0.001  0.004  0.015
   31  0.002  0.001  0.004  0.006
   32  0.003  0.001  0.004  0.008
   33  0.010  0.001  0.004  0.015
   34  0.003  0.001  0.004  0.008
   35  0.000  0.000  0.003  0.003
   36  0.000  0.002  0.002  0.004
   37  0.000  0.000  0.000  0.000
tot    0.161  0.032  0.554  0.747
 
band    14 # energy   -6.05276517 # occ.  2.00000000
 
ion      s      p      d    tot
    1  0.000  0.001  0.004  0.005
    2  0.009  0.001  0.004  0.014
    3  0.001  0.000  0.004  0.006
    4  0.009  0.001  0.004  0.014
    5  0.000  0.001  0.011  0.012
    6  0.005  0.001  0.005  0.011
    7  0.001  0.000  0.004  0.006
    8  0.005  0.001  0.005  0.011
    9  0.000  0.000  0.009  0.009
   10  0.010  0.002  0.008  0.020
   11  0.005  0.000  0.041  0.047
   12  0.002  0.001  0.040  0.043
   13  0.005  0.000  0.041  0.047
   14  0.022  0.001  0.011  0.034
   15  0.001  0.001  0.014  0.015
   16  0.002  0.001  0.040  0.043
   17  0.001  0.001  0.014  0.015
   18  0.002  0.000  0.023  0.025
   19  0.002  0.001  0.015  0.018
   20  0.023  0.002  0.006  0.031
   21  0.006  0.000  0.054  0.060
   22  0.001  0.001  0.029  0.031
   23  0.006  0.000  0.054  0.060
   24  0.003  0.001  0.014  0.018
   25  0.008  0.000  0.020  0.029
   26  0.002  0.001  0.015  0.018
   27  0.001  0.001  0.029  0.031
   28  0.000  0.000  0.008  0.008
   29  0.008  0.001  0.004  0.013
   30  0.000  0.001  0.004  0.005
   31  0.008  0.001  0.004  0.013
   32  0.007  0.001  0.004  0.012
   33  0.000  0.000  0.004  0.005
   34  0.007  0.001  0.004  0.011
   35  0.000  0.000  0.003  0.003
   36  0.000  0.002  0.002  0.004
   37  0.000  0.000  0.000  0.000
tot    0.161  0.032  0.554  0.747
 
band    15 # energy   -6.00905624 # occ.  2.00000000
 
ion      s      p      d    tot
    1  0.010  0.000  0.001  0.011
    2  0.000  0.001  0.009  0.009
    3  0.000  0.001  0.009  0.009
    4  0.000  0.001  0.009  0.009
    5  0.017  0.002  0.001  0.020
    6  0.000  0.001  0.009  0.009
    7  0.000  0.001  0.009  0.009
    8  0.000  0.001  0.009  0.009
    9  0.002  0.000  0.002  0.004
   10  0.000  0.000  0.040  0.040
   11  0.007  0.001  0.010  0.019
   12  0.000  0.000  0.040  0.041
   13  0.007  0.001  0.010  0.019
   14  0.007  0.001  0.010  0.019
   15  0.005  0.001  0.028  0.035
   16  0.000  0.000  0.040  0.041
   17  0.005  0.001  0.028  0.035
   18  0.005  0.001  0.028  0.035
   19  0.010  0.000  0.042  0.053
   20  0.009  0.002  0.006  0.017
   21  0.009  0.002  0.006  0.017
   22  0.001  0.000  0.038  0.038
   23  0.009  0.002  0.006  0.017
   24  0.000  0.000  0.037  0.038
   25  0.010  0.000  0.042  0.053
   26  0.010  0.000  0.042  0.053
   27  0.001  0.000  0.038  0.038
   28  0.000  0.001  0.008  0.009
   29  0.001  0.000  0.006  0.007
   30  0.001  0.000  0.006  0.007
   31  0.001  0.000  0.006  0.007
   32  0.001  0.000  0.006  0.007
   33  0.001  0.000  0.006  0.007
   34  0.001  0.000  0.006  0.007
   35  0.000  0.000  0.001  0.001
   36  0.006  0.005  0.000  0.011
   37  0.003  0.000  0.000  0.003
tot    0.141  0.029  0.593  0.763
 
band    16 # energy   -6.00372517 # occ.  2.00000000
 
ion      s      p      d    tot
    1  0.000  0.001  0.014  0.015
    2  0.010  0.001  0.005  0.016
    3  0.002  0.000  0.005  0.007
    4  0.010  0.001  0.005  0.016
    5  0.000  0.000  0.005  0.005
    6  0.003  0.001  0.005  0.010
    7  0.002  0.000  0.005  0.007
    8  0.003  0.001  0.005  0.010
    9  0.000  0.001  0.007  0.009
   10  0.000  0.001  0.028  0.029
   11  0.001  0.001  0.020  0.022
   12  0.007  0.000  0.022  0.030
   13  0.001  0.001  0.020  0.022
   14  0.000  0.001  0.020  0.021
   15  0.011  0.002  0.021  0.034
   16  0.007  0.000  0.023  0.030
   17  0.011  0.002  0.021  0.034
   18  0.000  0.000  0.065  0.065
   19  0.013  0.001  0.020  0.034
   20  0.000  0.002  0.019  0.021
   21  0.000  0.001  0.022  0.023
   22  0.018  0.001  0.021  0.040
   23  0.000  0.001  0.022  0.023
   24  0.000  0.000  0.034  0.034
   25  0.000  0.000  0.066  0.067
   26  0.013  0.001  0.020  0.034
   27  0.018  0.001  0.021  0.039
   28  0.000  0.001  0.004  0.005
   29  0.005  0.001  0.004  0.010
   30  0.000  0.000  0.004  0.005
   31  0.005  0.001  0.004  0.010
   32  0.003  0.001  0.002  0.006
   33  0.000  0.000  0.004  0.005
   34  0.003  0.001  0.002  0.006
   35  0.000  0.001  0.007  0.008
   36  0.000  0.000  0.000  0.001
   37  0.000  0.000  0.000  0.000
tot    0.148  0.029  0.576  0.752
 
band    17 # energy   -6.00371187 # occ.  2.00000000
 
ion      s      p      d    tot
    1  0.000  0.001  0.014  0.015
    2  0.000  0.000  0.005  0.006
    3  0.008  0.001  0.005  0.015
    4  0.000  0.000  0.005  0.006
    5  0.000  0.000  0.005  0.005
    6  0.007  0.001  0.005  0.012
    7  0.008  0.001  0.005  0.014
    8  0.007  0.001  0.005  0.012
    9  0.000  0.001  0.007  0.009
   10  0.009  0.000  0.021  0.030
   11  0.000  0.001  0.020  0.021
   12  0.002  0.001  0.026  0.029
   13  0.000  0.001  0.020  0.021
   14  0.001  0.001  0.020  0.022
   15  0.004  0.001  0.050  0.055
   16  0.002  0.001  0.026  0.029
   17  0.004  0.001  0.051  0.055
   18  0.015  0.002  0.006  0.024
   19  0.004  0.001  0.051  0.056
   20  0.000  0.000  0.023  0.024
   21  0.000  0.001  0.020  0.022
   22  0.006  0.001  0.029  0.036
   23  0.000  0.001  0.020  0.022
   24  0.024  0.001  0.017  0.041
   25  0.017  0.001  0.004  0.023
   26  0.004  0.001  0.051  0.056
   27  0.006  0.001  0.029  0.036
   28  0.000  0.001  0.004  0.005
   29  0.001  0.000  0.003  0.004
   30  0.006  0.001  0.003  0.009
   31  0.001  0.000  0.003  0.004
   32  0.003  0.001  0.005  0.008
   33  0.006  0.001  0.003  0.009
   34  0.003  0.001  0.005  0.008
   35  0.000  0.001  0.007  0.008
   36  0.000  0.000  0.000  0.001
   37  0.000  0.000  0.000  0.000
tot    0.148  0.029  0.576  0.752
 
band    18 # energy   -5.67006644 # occ.  2.00000000
 
ion      s      p      d    tot
    1  0.000  0.000  0.015  0.015
    2  0.000  0.001  0.011  0.011
    3  0.005  0.000  0.014  0.020
    4  0.000  0.001  0.011  0.011
    5  0.000  0.000  0.027  0.028
    6  0.007  0.001  0.009  0.017
    7  0.005  0.000  0.014  0.020
    8  0.007  0.001  0.009  0.017
    9  0.000  0.001  0.006  0.007
   10  0.000  0.000  0.017  0.018
   11  0.000  0.000  0.050  0.051
   12  0.000  0.000  0.010  0.010
   13  0.000  0.000  0.050  0.051
   14  0.000  0.000  0.046  0.047
   15  0.000  0.000  0.028  0.028
   16  0.000  0.000  0.010  0.011
   17  0.000  0.000  0.027  0.027
   18  0.000  0.000  0.044  0.044
   19  0.000  0.000  0.011  0.011
   20  0.001  0.000  0.054  0.055
   21  0.000  0.000  0.040  0.040
   22  0.000  0.000  0.035  0.035
   23  0.000  0.000  0.040  0.041
   24  0.000  0.000  0.034  0.034
   25  0.001  0.000  0.012  0.013
   26  0.000  0.000  0.011  0.011
   27  0.000  0.000  0.035  0.035
   28  0.000  0.000  0.012  0.012
   29  0.008  0.001  0.011  0.019
   30  0.000  0.001  0.008  0.009
   31  0.007  0.001  0.011  0.019
   32  0.009  0.001  0.006  0.015
   33  0.000  0.001  0.008  0.009
   34  0.009  0.001  0.006  0.016
   35  0.000  0.000  0.016  0.017
   36  0.000  0.002  0.001  0.003
   37  0.000  0.000  0.000  0.000
tot    0.062  0.016  0.750  0.828
 
band    19 # energy   -5.67006426 # occ.  2.00000000
 
ion      s      p      d    tot
    1  0.000  0.000  0.015  0.015
    2  0.008  0.000  0.012  0.021
    3  0.003  0.001  0.008  0.012
    4  0.008  0.000  0.012  0.021
    5  0.000  0.000  0.027  0.028
    6  0.001  0.000  0.014  0.015
    7  0.003  0.001  0.008  0.012
    8  0.001  0.000  0.014  0.015
    9  0.000  0.001  0.006  0.007
   10  0.000  0.000  0.008  0.008
   11  0.000  0.000  0.048  0.048
   12  0.000  0.000  0.015  0.015
   13  0.000  0.000  0.048  0.048
   14  0.000  0.000  0.052  0.052
   15  0.000  0.000  0.038  0.038
   16  0.000  0.000  0.015  0.015
   17  0.000  0.000  0.039  0.039
   18  0.000  0.000  0.022  0.022
   19  0.001  0.000  0.012  0.012
   20  0.000  0.000  0.035  0.036
   21  0.001  0.000  0.049  0.050
   22  0.000  0.000  0.034  0.035
   23  0.001  0.000  0.049  0.050
   24  0.000  0.000  0.035  0.035
   25  0.000  0.000  0.010  0.010
   26  0.001  0.000  0.012  0.012
   27  0.000  0.000  0.034  0.035
   28  0.000  0.000  0.012  0.012
   29  0.003  0.001  0.006  0.010
   30  0.011  0.001  0.009  0.020
   31  0.004  0.001  0.006  0.010
   32  0.002  0.001  0.011  0.014
   33  0.011  0.001  0.009  0.020
   34  0.002  0.001  0.011  0.014
   35  0.000  0.000  0.016  0.017
   36  0.000  0.002  0.001  0.003
   37  0.000  0.000  0.000  0.000
tot    0.062  0.016  0.750  0.828
 
band    20 # energy   -5.65167106 # occ.  2.00000000
 
ion      s      p      d    tot
    1  0.015  0.000  0.004  0.020
    2  0.000  0.001  0.012  0.013
    3  0.000  0.001  0.012  0.013
    4  0.000  0.001  0.012  0.013
    5  0.001  0.000  0.014  0.016
    6  0.000  0.001  0.012  0.013
    7  0.000  0.001  0.012  0.013
    8  0.000  0.001  0.012  0.013
    9  0.007  0.001  0.002  0.010
   10  0.000  0.000  0.027  0.027
   11  0.000  0.000  0.048  0.048
   12  0.000  0.000  0.027  0.027
   13  0.000  0.000  0.048  0.048
   14  0.000  0.000  0.048  0.048
   15  0.000  0.000  0.036  0.037
   16  0.000  0.000  0.027  0.027
   17  0.000  0.000  0.036  0.037
   18  0.000  0.000  0.036  0.037
   19  0.000  0.000  0.022  0.023
   20  0.001  0.000  0.039  0.040
   21  0.001  0.000  0.039  0.040
   22  0.001  0.000  0.030  0.031
   23  0.001  0.000  0.039  0.040
   24  0.001  0.000  0.030  0.031
   25  0.000  0.000  0.022  0.022
   26  0.000  0.000  0.022  0.023
   27  0.001  0.000  0.030  0.031
   28  0.009  0.001  0.000  0.009
   29  0.000  0.001  0.010  0.011
   30  0.000  0.001  0.010  0.011
   31  0.000  0.001  0.010  0.011
   32  0.000  0.001  0.010  0.011
   33  0.000  0.001  0.010  0.011
   34  0.000  0.001  0.010  0.011
   35  0.011  0.000  0.002  0.013
   36  0.000  0.000  0.003  0.004
   37  0.000  0.000  0.000  0.000
tot    0.049  0.014  0.769  0.833
 
band    21 # energy   -5.63942284 # occ.  2.00000000
 
ion      s      p      d    tot
    1  0.001  0.001  0.008  0.010
    2  0.000  0.001  0.019  0.019
    3  0.000  0.001  0.019  0.019
    4  0.000  0.001  0.019  0.019
    5  0.025  0.001  0.000  0.027
    6  0.000  0.001  0.019  0.020
    7  0.000  0.001  0.019  0.019
    8  0.000  0.001  0.019  0.020
    9  0.015  0.000  0.012  0.027
   10  0.000  0.000  0.046  0.046
   11  0.000  0.001  0.034  0.035
   12  0.000  0.000  0.046  0.047
   13  0.000  0.001  0.034  0.035
   14  0.000  0.001  0.034  0.035
   15  0.000  0.000  0.035  0.035
   16  0.000  0.000  0.046  0.047
   17  0.000  0.000  0.035  0.035
   18  0.000  0.000  0.035  0.035
   19  0.001  0.000  0.025  0.027
   20  0.000  0.000  0.029  0.029
   21  0.000  0.000  0.029  0.029
   22  0.001  0.000  0.017  0.018
   23  0.000  0.000  0.029  0.029
   24  0.001  0.000  0.017  0.018
   25  0.001  0.000  0.025  0.027
   26  0.001  0.000  0.025  0.027
   27  0.001  0.000  0.017  0.018
   28  0.005  0.000  0.005  0.009
   29  0.000  0.000  0.009  0.010
   30  0.000  0.000  0.009  0.010
   31  0.000  0.000  0.009  0.010
   32  0.000  0.000  0.009  0.010
   33  0.000  0.000  0.009  0.010
   34  0.000  0.000  0.009  0.010
   35  0.000  0.000  0.004  0.004
   36  0.003  0.001  0.002  0.005