PROCAR new format
# of k-points:   10         # of bands:  252         # of ions:   38

 k-point     1 :    0.00000000 0.00000000 0.00000000     weight = 0.01562500

band     1 # energy  -19.62109283 # occ.  2.00000000
 
ion      s      p      d    tot
    1  0.000  0.000  0.000  0.000
    2  0.000  0.000  0.000  0.000
    3  0.000  0.000  0.000  0.000
    4  0.000  0.000  0.000  0.000
    5  0.000  0.000  0.000  0.000
    6  0.000  0.000  0.000  0.000
    7  0.000  0.000  0.000  0.000
    8  0.000  0.000  0.000  0.000
    9  0.000  0.000  0.000  0.000
   10  0.000  0.000  0.000  0.000
   11  0.000  0.000  0.000  0.000
   12  0.000  0.000  0.000  0.000
   13  0.000  0.000  0.000  0.000
   14  0.000  0.000  0.000  0.000
   15  0.000  0.000  0.000  0.000
   16  0.000  0.000  0.000  0.000
   17  0.000  0.000  0.000  0.000
   18  0.000  0.000  0.000  0.000
   19  0.000  0.000  0.000  0.000
   20  0.000  0.000  0.000  0.000
   21  0.000  0.000  0.000  0.000
   22  0.000  0.000  0.000  0.000
   23  0.000  0.000  0.000  0.000
   24  0.000  0.000  0.000  0.000
   25  0.000  0.000  0.000  0.000
   26  0.000  0.000  0.000  0.000
   27  0.000  0.000  0.000  0.000
   28  0.000  0.000  0.000  0.000
   29  0.000  0.000  0.000  0.000
   30  0.000  0.000  0.000  0.000
   31  0.000  0.000  0.000  0.000
   32  0.000  0.000  0.000  0.000
   33  0.000  0.000  0.000  0.000
   34  0.000  0.000  0.000  0.000
   35  0.000  0.000  0.000  0.000
   36  0.013  0.015  0.024  0.051
   37  0.746  0.011  0.000  0.758
   38  0.111  0.023  0.000  0.135
tot    0.871  0.049  0.024  0.944
 
band     2 # energy   -8.61600756 # occ.  2.00000000
 
ion      s      p      d    tot
    1  0.000  0.000  0.000  0.000
    2  0.000  0.000  0.000  0.000
    3  0.000  0.000  0.000  0.000
    4  0.000  0.000  0.000  0.000
    5  0.000  0.000  0.000  0.000
    6  0.000  0.000  0.000  0.000
    7  0.000  0.000  0.000  0.000
    8  0.000  0.000  0.000  0.000
    9  0.000  0.000  0.000  0.000
   10  0.001  0.000  0.000  0.001
   11  0.001  0.000  0.000  0.001
   12  0.001  0.000  0.000  0.001
   13  0.001  0.000  0.000  0.001
   14  0.001  0.000  0.000  0.001
   15  0.000  0.000  0.000  0.000
   16  0.001  0.000  0.000  0.001
   17  0.000  0.000  0.000  0.000
   18  0.000  0.000  0.000  0.000
   19  0.001  0.000  0.000  0.001
   20  0.005  0.001  0.003  0.009
   21  0.005  0.001  0.003  0.009
   22  0.001  0.000  0.000  0.001
   23  0.005  0.001  0.003  0.009
   24  0.001  0.000  0.000  0.001
   25  0.001  0.000  0.000  0.001
   26  0.001  0.000  0.000  0.001
   27  0.001  0.000  0.000  0.001
   28  0.000  0.000  0.000  0.000
   29  0.001  0.000  0.000  0.002
   30  0.001  0.000  0.000  0.002
   31  0.001  0.000  0.000  0.002
   32  0.001  0.000  0.000  0.002
   33  0.001  0.000  0.000  0.002
   34  0.001  0.000  0.000  0.002
   35  0.000  0.000  0.000  0.000
   36  0.079  0.025  0.130  0.233
   37  0.013  0.487  0.000  0.501
   38  0.163  0.019  0.000  0.181
tot    0.290  0.534  0.140  0.964
 
band     3 # energy   -7.84100068 # occ.  2.00000000
 
ion      s      p      d    tot
    1  0.007  0.001  0.000  0.007
    2  0.007  0.001  0.000  0.007
    3  0.007  0.001  0.000  0.007
    4  0.007  0.001  0.000  0.007
    5  0.007  0.001  0.000  0.007
    6  0.007  0.001  0.000  0.007
    7  0.007  0.001  0.000  0.007
    8  0.007  0.001  0.000  0.007
    9  0.007  0.001  0.000  0.007
   10  0.026  0.000  0.000  0.026
   11  0.027  0.000  0.000  0.027
   12  0.026  0.000  0.000  0.026
   13  0.027  0.000  0.000  0.027
   14  0.027  0.000  0.000  0.027
   15  0.026  0.000  0.000  0.027
   16  0.026  0.000  0.000  0.026
   17  0.026  0.000  0.000  0.027
   18  0.026  0.000  0.000  0.027
   19  0.021  0.000  0.000  0.021
   20  0.023  0.000  0.000  0.023
   21  0.023  0.000  0.000  0.023
   22  0.023  0.000  0.000  0.023
   23  0.023  0.000  0.000  0.023
   24  0.023  0.000  0.000  0.023
   25  0.021  0.000  0.000  0.021
   26  0.021  0.000  0.000  0.021
   27  0.023  0.000  0.000  0.023
   28  0.004  0.000  0.000  0.005
   29  0.004  0.000  0.000  0.005
   30  0.004  0.000  0.000  0.005
   31  0.004  0.000  0.000  0.005
   32  0.004  0.000  0.000  0.005
   33  0.004  0.000  0.000  0.005
   34  0.004  0.000  0.000  0.005
   35  0.004  0.000  0.000  0.005
   36  0.001  0.006  0.009  0.015
   37  0.002  0.027  0.000  0.029
   38  0.009  0.001  0.000  0.010
tot    0.543  0.045  0.013  0.601
 
band     4 # energy   -6.70472806 # occ.  2.00000000
 
ion      s      p      d    tot
    1  0.017  0.000  0.001  0.018
    2  0.016  0.000  0.001  0.018
    3  0.016  0.000  0.001  0.018
    4  0.016  0.000  0.001  0.018
    5  0.016  0.000  0.001  0.017
    6  0.016  0.000  0.001  0.018
    7  0.016  0.000  0.001  0.018
    8  0.016  0.000  0.001  0.018
    9  0.016  0.000  0.001  0.018
   10  0.010  0.001  0.002  0.014
   11  0.009  0.001  0.002  0.013
   12  0.010  0.001  0.002  0.014
   13  0.009  0.001  0.002  0.013
   14  0.009  0.001  0.002  0.013
   15  0.010  0.001  0.002  0.014
   16  0.010  0.001  0.002  0.014
   17  0.010  0.001  0.002  0.014
   18  0.010  0.001  0.002  0.014
   19  0.012  0.001  0.003  0.016
   20  0.014  0.001  0.002  0.018
   21  0.014  0.001  0.002  0.018
   22  0.013  0.001  0.003  0.018
   23  0.014  0.001  0.002  0.018
   24  0.013  0.001  0.003  0.018
   25  0.012  0.001  0.003  0.016
   26  0.012  0.001  0.003  0.016
   27  0.013  0.001  0.003  0.018
   28  0.014  0.000  0.001  0.015
   29  0.015  0.001  0.001  0.017
   30  0.015  0.001  0.001  0.017
   31  0.015  0.001  0.001  0.017
   32  0.015  0.001  0.001  0.017
   33  0.015  0.001  0.001  0.017
   34  0.015  0.001  0.001  0.017
   35  0.014  0.000  0.001  0.015
   36  0.012  0.003  0.009  0.025
   37  0.001  0.008  0.000  0.009
   38  0.002  0.000  0.000  0.002
tot    0.489  0.043  0.073  0.604
 
band     5 # energy   -5.76438270 # occ.  2.00000000
 
ion      s      p      d    tot
    1  0.017  0.000  0.012  0.029
    2  0.016  0.000  0.013  0.028
    3  0.016  0.000  0.013  0.028
    4  0.016  0.000  0.013  0.028
    5  0.018  0.000  0.012  0.030
    6  0.016  0.000  0.013  0.028
    7  0.016  0.000  0.013  0.028
    8  0.016  0.000  0.013  0.028
    9  0.013  0.000  0.014  0.027
   10  0.003  0.001  0.007  0.011
   11  0.002  0.001  0.007  0.010
   12  0.003  0.001  0.007  0.011
   13  0.002  0.001  0.007  0.010
   14  0.002  0.001  0.007  0.010
   15  0.006  0.001  0.006  0.013
   16  0.003  0.001  0.007  0.011
   17  0.006  0.001  0.006  0.013
   18  0.006  0.001  0.006  0.013
   19  0.004  0.001  0.003  0.008
   20  0.001  0.001  0.008  0.011
   21  0.001  0.001  0.008  0.011
   22  0.003  0.001  0.003  0.008
   23  0.001  0.001  0.008  0.011
   24  0.003  0.001  0.003  0.008
   25  0.004  0.001  0.003  0.008
   26  0.004  0.001  0.003  0.008
   27  0.003  0.001  0.003  0.008
   28  0.011  0.000  0.010  0.020
   29  0.017  0.000  0.012  0.029
   30  0.017  0.000  0.012  0.029
   31  0.017  0.000  0.012  0.029
   32  0.017  0.000  0.012  0.029
   33  0.017  0.000  0.012  0.029
   34  0.017  0.000  0.012  0.029
   35  0.012  0.000  0.009  0.021
   36  0.018  0.000  0.019  0.037
   37  0.000  0.001  0.000  0.001
   38  0.000  0.000  0.000  0.000
tot    0.344  0.021  0.324  0.689
 
band     6 # energy   -5.75799507 # occ.  2.00000000
 
ion      s      p      d    tot
    1  0.001  0.001  0.006  0.008
    2  0.001  0.000  0.006  0.007
    3  0.001  0.000  0.006  0.007
    4  0.001  0.000  0.006  0.007
    5  0.000  0.000  0.001  0.001
    6  0.001  0.000  0.006  0.007
    7  0.001  0.000  0.006  0.007
    8  0.001  0.000  0.006  0.007
    9  0.021  0.001  0.000  0.022
   10  0.010  0.000  0.027  0.037
   11  0.013  0.003  0.011  0.026
   12  0.010  0.000  0.027  0.037
   13  0.013  0.003  0.011  0.026
   14  0.013  0.003  0.011  0.026
   15  0.017  0.002  0.014  0.033
   16  0.010  0.000  0.027  0.037
   17  0.017  0.002  0.014  0.033
   18  0.017  0.002  0.014  0.033
   19  0.003  0.001  0.020  0.023
   20  0.017  0.001  0.023  0.042
   21  0.017  0.001  0.023  0.042
   22  0.022  0.003  0.003  0.028
   23  0.017  0.001  0.023  0.042
   24  0.022  0.003  0.003  0.028
   25  0.003  0.001  0.020  0.023
   26  0.003  0.001  0.020  0.023
   27  0.022  0.003  0.003  0.027
   28  0.001  0.000  0.002  0.003
   29  0.000  0.001  0.006  0.006
   30  0.000  0.001  0.006  0.006
   31  0.000  0.001  0.006  0.006
   32  0.000  0.001  0.006  0.006
   33  0.000  0.001  0.006  0.006
   34  0.000  0.001  0.006  0.006
   35  0.004  0.001  0.001  0.005
   36  0.013  0.006  0.002  0.021
   37  0.001  0.005  0.000  0.005
   38  0.002  0.000  0.000  0.002
tot    0.295  0.047  0.372  0.713
 
band     7 # energy   -5.75405237 # occ.  2.00000000
 
ion      s      p      d    tot
    1  0.000  0.000  0.008  0.009
    2  0.003  0.001  0.003  0.007
    3  0.006  0.001  0.003  0.010
    4  0.003  0.001  0.003  0.007
    5  0.000  0.001  0.006  0.007
    6  0.000  0.000  0.003  0.003
    7  0.006  0.001  0.003  0.010
    8  0.000  0.000  0.003  0.003
    9  0.000  0.000  0.001  0.001
   10  0.000  0.000  0.033  0.033
   11  0.036  0.002  0.014  0.052
   12  0.028  0.002  0.012  0.042
   13  0.036  0.001  0.014  0.052
   14  0.000  0.004  0.024  0.028
   15  0.001  0.001  0.010  0.011
   16  0.027  0.002  0.013  0.042
   17  0.001  0.001  0.010  0.011
   18  0.000  0.003  0.005  0.008
   19  0.008  0.001  0.010  0.019
   20  0.000  0.002  0.035  0.037
   21  0.051  0.001  0.018  0.070
   22  0.011  0.001  0.010  0.023
   23  0.050  0.001  0.018  0.070
   24  0.000  0.000  0.026  0.026
   25  0.000  0.004  0.003  0.007
   26  0.008  0.001  0.010  0.019
   27  0.011  0.001  0.010  0.023
   28  0.000  0.000  0.001  0.001
   29  0.000  0.000  0.002  0.002
   30  0.004  0.001  0.004  0.009
   31  0.000  0.000  0.002  0.002
   32  0.005  0.001  0.004  0.010
   33  0.004  0.001  0.004  0.009
   34  0.005  0.001  0.004  0.010
   35  0.000  0.000  0.004  0.004
   36  0.000  0.003  0.013  0.015
   37  0.000  0.001  0.000  0.001
   38  0.000  0.000  0.000  0.000
tot    0.305  0.044  0.347  0.695
 
band     8 # energy   -5.75402962 # occ.  2.00000000
 
ion      s      p      d    tot
    1  0.000  0.000  0.008  0.009
    2  0.003  0.001  0.002  0.006
    3  0.001  0.000  0.003  0.004
    4  0.003  0.001  0.002  0.006
    5  0.000  0.001  0.006  0.007
    6  0.006  0.001  0.003  0.010
    7  0.000  0.000  0.003  0.004
    8  0.006  0.001  0.003  0.010
    9  0.000  0.000  0.001  0.001
   10  0.037  0.002  0.006  0.045
   11  0.012  0.003  0.021  0.036
   12  0.009  0.001  0.027  0.036
   13  0.012  0.003  0.021  0.036
   14  0.048  0.001  0.011  0.060
   15  0.000  0.002  0.007  0.009
   16  0.009  0.001  0.026  0.036
   17  0.000  0.002  0.006  0.009
   18  0.001  0.000  0.011  0.012
   19  0.003  0.003  0.006  0.011
   20  0.067  0.001  0.013  0.081
   21  0.016  0.002  0.030  0.048
   22  0.004  0.001  0.020  0.025
   23  0.017  0.002  0.029  0.048
   24  0.015  0.002  0.005  0.021
   25  0.010  0.000  0.013  0.023
   26  0.003  0.003  0.005  0.011
   27  0.004  0.001  0.020  0.025
   28  0.000  0.000  0.001  0.001
   29  0.006  0.001  0.005  0.012
   30  0.002  0.001  0.003  0.005
   31  0.006  0.001  0.005  0.012
   32  0.001  0.000  0.003  0.005
   33  0.002  0.001  0.003  0.005
   34  0.001  0.000  0.003  0.005
   35  0.000  0.000  0.004  0.004
   36  0.000  0.003  0.013  0.015
   37  0.000  0.001  0.000  0.001
   38  0.000  0.000  0.000  0.000
tot    0.305  0.044  0.347  0.695
 
band     9 # energy   -5.71613540 # occ.  2.00000000
 
ion      s      p      d    tot
    1  0.015  0.000  0.004  0.019
    2  0.005  0.000  0.008  0.012
    3  0.005  0.000  0.008  0.012
    4  0.005  0.000  0.008  0.012
    5  0.002  0.000  0.008  0.011
    6  0.005  0.000  0.008  0.012
    7  0.005  0.000  0.008  0.012
    8  0.005  0.000  0.008  0.012
    9  0.001  0.000  0.007  0.008
   10  0.000  0.000  0.025  0.025
   11  0.006  0.000  0.018  0.024
   12  0.000  0.000  0.025  0.025
   13  0.006  0.000  0.018  0.024
   14  0.006  0.000  0.018  0.024
   15  0.013  0.001  0.014  0.027
   16  0.000  0.000  0.025  0.025
   17  0.013  0.001  0.014  0.027
   18  0.013  0.001  0.014  0.027
   19  0.011  0.001  0.016  0.028
   20  0.010  0.000  0.032  0.042
   21  0.010  0.000  0.032  0.042
   22  0.000  0.000  0.021  0.022
   23  0.010  0.000  0.032  0.042
   24  0.000  0.000  0.021  0.022
   25  0.011  0.001  0.016  0.028
   26  0.011  0.001  0.016  0.028
   27  0.000  0.000  0.021  0.022
   28  0.002  0.000  0.006  0.008
   29  0.007  0.000  0.008  0.015
   30  0.007  0.000  0.008  0.015
   31  0.007  0.000  0.008  0.015
   32  0.007  0.000  0.008  0.015
   33  0.007  0.000  0.008  0.015
   34  0.007  0.000  0.008  0.015
   35  0.014  0.000  0.004  0.018
   36  0.003  0.002  0.010  0.016
   37  0.000  0.001  0.000  0.001
   38  0.000  0.000  0.000  0.000
tot    0.230  0.011  0.511  0.752
 
band    10 # energy   -5.67310029 # occ.  2.00000000
 
ion      s      p      d    tot
    1  0.007  0.001  0.002  0.010
    2  0.000  0.001  0.006  0.007
    3  0.000  0.001  0.006  0.007
    4  0.000  0.001  0.006  0.007
    5  0.019  0.002  0.000  0.021
    6  0.000  0.001  0.006  0.007
    7  0.000  0.001  0.006  0.007
    8  0.000  0.001  0.006  0.007
    9  0.000  0.000  0.003  0.003
   10  0.025  0.003  0.001  0.029
   11  0.018  0.001  0.024  0.043
   12  0.025  0.003  0.001  0.029
   13  0.018  0.001  0.024  0.043
   14  0.018  0.001  0.024  0.044
   15  0.001  0.001  0.024  0.025
   16  0.025  0.003  0.001  0.029
   17  0.001  0.001  0.024  0.025
   18  0.001  0.001  0.024  0.025
   19  0.017  0.002  0.009  0.027
   20  0.008  0.003  0.016  0.026
   21  0.008  0.003  0.016  0.026
   22  0.010  0.000  0.025  0.035
   23  0.008  0.003  0.016  0.026
   24  0.010  0.000  0.025  0.035
   25  0.017  0.002  0.009  0.027
   26  0.017  0.002  0.009  0.027
   27  0.010  0.000  0.025  0.035
   28  0.017  0.001  0.000  0.018
   29  0.001  0.000  0.004  0.006
   30  0.001  0.000  0.004  0.006
   31  0.001  0.000  0.004  0.006
   32  0.001  0.000  0.004  0.006
   33  0.001  0.000  0.004  0.006
   34  0.001  0.000  0.004  0.006
   35  0.001  0.001  0.006  0.007
   36  0.000  0.000  0.000  0.001
   37  0.000  0.000  0.000  0.000
   38  0.000  0.000  0.000  0.000
tot    0.291  0.037  0.371  0.699
 
band    11 # energy   -5.66644884 # occ.  2.00000000
 
ion      s      p      d    tot
    1  0.000  0.001  0.003  0.004
    2  0.004  0.001  0.004  0.009
    3  0.008  0.001  0.004  0.014
    4  0.004  0.001  0.004  0.010
    5  0.000  0.000  0.005  0.005
    6  0.001  0.000  0.003  0.004
    7  0.008  0.001  0.004  0.014
    8  0.001  0.000  0.003  0.004
    9  0.000  0.001  0.011  0.013
   10  0.024  0.000  0.017  0.041
   11  0.003  0.001  0.022  0.026
   12  0.006  0.004  0.006  0.016
   13  0.002  0.001  0.022  0.026
   14  0.010  0.001  0.007  0.018
   15  0.017  0.001  0.033  0.051
   16  0.006  0.004  0.006  0.016
   17  0.016  0.001  0.034  0.051
   18  0.064  0.002  0.006  0.072
   19  0.010  0.001  0.026  0.036
   20  0.000  0.001  0.014  0.015
   21  0.000  0.002  0.011  0.013
   22  0.009  0.003  0.016  0.027
   23  0.000  0.002  0.011  0.013
   24  0.036  0.001  0.011  0.048
   25  0.037  0.002  0.003  0.043
   26  0.009  0.001  0.026  0.036
   27  0.009  0.003  0.016  0.028
   28  0.000  0.000  0.006  0.006
   29  0.000  0.000  0.002  0.002
   30  0.002  0.000  0.002  0.004
   31  0.000  0.000  0.002  0.002
   32  0.004  0.001  0.003  0.007
   33  0.002  0.000  0.002  0.004
   34  0.004  0.001  0.003  0.007
   35  0.000  0.001  0.004  0.004
   36  0.000  0.000  0.001  0.001
   37  0.000  0.001  0.000  0.001
   38  0.000  0.000  0.000  0.000
tot    0.297  0.042  0.354  0.693
 
band    12 # energy   -5.66641973 # occ.  2.00000000
 
ion      s      p      d    tot
    1  0.000  0.001  0.003  0.004
    2  0.005  0.001  0.003  0.009
    3  0.001  0.000  0.004  0.005
    4  0.005  0.001  0.003  0.009
    5  0.000  0.000  0.005  0.005
    6  0.008  0.001  0.004  0.014
    7  0.000  0.000  0.004  0.005
    8  0.008  0.001  0.004  0.014
    9  0.000  0.001  0.011  0.013
   10  0.000  0.005  0.003  0.008
   11  0.007  0.001  0.012  0.021
   12  0.018  0.001  0.013  0.033
   13  0.007  0.001  0.012  0.021
   14  0.000  0.001  0.027  0.028
   15  0.048  0.001  0.016  0.065
   16  0.018  0.001  0.013  0.032
   17  0.049  0.001  0.015  0.065
   18  0.000  0.001  0.043  0.044
   19  0.028  0.002  0.011  0.040
   20  0.000  0.002  0.010  0.013
   21  0.000  0.001  0.013  0.014
   22  0.027  0.001  0.013  0.041
   23  0.000  0.001  0.013  0.014
   24  0.000  0.004  0.017  0.021
   25  0.000  0.000  0.034  0.034
   26  0.028  0.002  0.011  0.041
   27  0.026  0.001  0.013  0.041
   28  0.000  0.000  0.006  0.006
   29  0.004  0.001  0.002  0.007
   30  0.002  0.000  0.002  0.005
   31  0.004  0.001  0.002  0.007
   32  0.000  0.000  0.001  0.002
   33  0.002  0.000  0.002  0.005
   34  0.000  0.000  0.001  0.002
   35  0.000  0.001  0.004  0.004
   36  0.000  0.000  0.001  0.001
   37  0.000  0.001  0.000  0.001
   38  0.000  0.000  0.000  0.000
tot    0.297  0.042  0.354  0.693
 
band    13 # energy   -5.26197245 # occ.  2.00000000
 
ion      s      p      d    tot
    1  0.000  0.001  0.004  0.005
    2  0.001  0.001  0.005  0.007
    3  0.010  0.001  0.004  0.016
    4  0.001  0.001  0.005  0.007
    5  0.000  0.001  0.010  0.012
    6  0.005  0.001  0.004  0.009
    7  0.010  0.001  0.005  0.016
    8  0.004  0.001  0.004  0.009
    9  0.000  0.000  0.009  0.009
   10  0.000  0.001  0.049  0.049
   11  0.017  0.001  0.020  0.038
   12  0.007  0.002  0.019  0.027
   13  0.018  0.001  0.020  0.038
   14  0.000  0.000  0.050  0.050
   15  0.002  0.000  0.020  0.022
   16  0.007  0.001  0.019  0.027
   17  0.002  0.000  0.020  0.022
   18  0.000  0.001  0.013  0.014
   19  0.003  0.000  0.017  0.020
   20  0.000  0.000  0.080  0.080
   21  0.016  0.001  0.024  0.041
   22  0.004  0.001  0.018  0.023
   23  0.015  0.001  0.025  0.041
   24  0.000  0.001  0.034  0.035
   25  0.000  0.001  0.009  0.009
   26  0.003  0.000  0.017  0.020
   27  0.004  0.001  0.018  0.024
   28  0.000  0.000  0.006  0.007
   29  0.003  0.001  0.005  0.009
   30  0.008  0.001  0.005  0.015
   31  0.004  0.001  0.005  0.009
   32  0.001  0.000  0.004  0.005
   33  0.008  0.001  0.005  0.015
   34  0.001  0.000  0.004  0.005
   35  0.000  0.000  0.002  0.003
   36  0.000  0.003  0.012  0.015
   37  0.000  0.001  0.000  0.001
   38  0.000  0.000  0.000  0.000
tot    0.152  0.031  0.568  0.751
 
band    14 # energy   -5.26196941 # occ.  2.00000000
 
ion      s      p      d    tot
    1  0.000  0.001  0.004  0.005
    2  0.009  0.001  0.004  0.014
    3  0.000  0.000  0.004  0.005
    4  0.009  0.001  0.004  0.014
    5  0.000  0.001  0.010  0.012
    6  0.005  0.001  0.005  0.012
    7  0.000  0.000  0.004  0.005
    8  0.006  0.001  0.005  0.012
    9  0.000  0.000  0.009  0.009
   10  0.009  0.002  0.009  0.020
   11  0.006  0.000  0.040  0.046
   12  0.002  0.001  0.039  0.042
   13  0.006  0.000  0.041  0.047
   14  0.023  0.001  0.010  0.034
   15  0.001  0.001  0.015  0.016
   16  0.002  0.001  0.038  0.042
   17  0.001  0.001  0.015  0.016
   18  0.002  0.000  0.022  0.025
   19  0.001  0.001  0.011  0.013
   20  0.021  0.001  0.006  0.028
   21  0.005  0.000  0.062  0.068
   22  0.001  0.001  0.029  0.031
   23  0.005  0.000  0.061  0.067
   24  0.005  0.001  0.013  0.019
   25  0.004  0.000  0.019  0.024
   26  0.001  0.001  0.011  0.013
   27  0.001  0.001  0.029  0.031
   28  0.000  0.000  0.006  0.007
   29  0.005  0.001  0.004  0.010
   30  0.000  0.000  0.004  0.004
   31  0.005  0.001  0.004  0.010
   32  0.007  0.001  0.005  0.014
   33  0.000  0.000  0.004  0.004
   34  0.007  0.001  0.005  0.014
   35  0.000  0.000  0.002  0.003
   36  0.000  0.003  0.012  0.015
   37  0.000  0.001  0.000  0.001
   38  0.000  0.000  0.000  0.000
tot    0.152  0.031  0.568  0.751
 
band    15 # energy   -5.25863961 # occ.  2.00000000
 
ion      s      p      d    tot
    1  0.016  0.002  0.001  0.019
    2  0.000  0.001  0.006  0.007
    3  0.000  0.001  0.006  0.007
    4  0.000  0.001  0.006  0.007
    5  0.003  0.001  0.002  0.006
    6  0.000  0.001  0.006  0.007
    7  0.000  0.001  0.006  0.007
    8  0.000  0.001  0.006  0.007
    9  0.005  0.000  0.000  0.005
   10  0.006  0.001  0.011  0.018
   11  0.008  0.001  0.025  0.033
   12  0.005  0.001  0.011  0.018
   13  0.007  0.001  0.025  0.033
   14  0.008  0.001  0.025  0.033
   15  0.000  0.000  0.035  0.035
   16  0.005  0.001  0.011  0.018
   17  0.000  0.000  0.035  0.035
   18  0.000  0.000  0.034  0.035
   19  0.010  0.002  0.004  0.016
   20  0.000  0.000  0.045  0.046
   21  0.000  0.000  0.045  0.046
   22  0.009  0.001  0.036  0.046
   23  0.000  0.000  0.045  0.046
   24  0.009  0.001  0.037  0.047
   25  0.010  0.002  0.004  0.015
   26  0.010  0.002  0.004  0.016
   27  0.009  0.001  0.036  0.046
   28  0.020  0.002  0.000  0.022
   29  0.000  0.001  0.010  0.011
   30  0.000  0.001  0.010  0.010
   31  0.000  0.001  0.010  0.011
   32  0.000  0.001  0.010  0.011
   33  0.000  0.001  0.010  0.010
   34  0.000  0.001  0.010  0.011
   35  0.000  0.000  0.004  0.005
   36  0.007  0.001  0.002  0.010
   37  0.000  0.000  0.000  0.001
   38  0.000  0.000  0.000  0.000
tot    0.150  0.030  0.573  0.753
 
band    16 # energy   -5.21769564 # occ.  2.00000000
 
ion      s      p      d    tot
    1  0.000  0.000  0.002  0.002
    2  0.000  0.001  0.009  0.010
    3  0.000  0.001  0.009  0.010
    4  0.000  0.001  0.009  0.010
    5  0.016  0.001  0.000  0.017
    6  0.000  0.001  0.009  0.010
    7  0.000  0.001  0.009  0.010
    8  0.000  0.001  0.009  0.010
    9  0.016  0.002  0.002  0.020
   10  0.004  0.000  0.041  0.046
   11  0.002  0.001  0.027  0.031
   12  0.004  0.000  0.041  0.046
   13  0.002  0.001  0.027  0.031
   14  0.002  0.001  0.027  0.030
   15  0.013  0.002  0.009  0.024
   16  0.004  0.000  0.041  0.046
   17  0.013  0.002  0.009  0.024
   18  0.013  0.002  0.009  0.024
   19  0.003  0.000  0.034  0.037
   20  0.010  0.002  0.021  0.033
   21  0.010  0.002  0.021  0.033
   22  0.004  0.001  0.018  0.022
   23  0.010  0.002  0.021  0.033
   24  0.004  0.001  0.018  0.022
   25  0.003  0.000  0.034  0.037
   26  0.003  0.000  0.034  0.037
   27  0.004  0.001  0.018  0.022
   28  0.000  0.000  0.001  0.001
   29  0.000  0.001  0.006  0.007
   30  0.000  0.001  0.006  0.007
   31  0.000  0.001  0.006  0.007
   32  0.000  0.001  0.006  0.007
   33  0.000  0.001  0.006  0.007
   34  0.000  0.001  0.006  0.007
   35  0.011  0.001  0.000  0.013
   36  0.010  0.007  0.000  0.017
   37  0.001  0.004  0.000  0.004
   38  0.001  0.000  0.000  0.001
tot    0.163  0.042  0.548  0.752
 
band    17 # energy   -5.18363821 # occ.  2.00000000
 
ion      s      p      d    tot
    1  0.000  0.001  0.015  0.015
    2  0.000  0.001  0.005  0.006
    3  0.009  0.001  0.005  0.015
    4  0.000  0.001  0.005  0.006
    5  0.000  0.000  0.006  0.006
    6  0.005  0.001  0.005  0.011
    7  0.009  0.001  0.005  0.015
    8  0.005  0.001  0.005  0.011
    9  0.000  0.001  0.006  0.007
   10  0.011  0.000  0.017  0.029
   11  0.000  0.001  0.017  0.018
   12  0.003  0.000  0.030  0.034
   13  0.000  0.001  0.017  0.018
   14  0.000  0.001  0.022  0.023
   15  0.003  0.001  0.047  0.051
   16  0.003  0.000  0.031  0.034
   17  0.003  0.001  0.047  0.051
   18  0.012  0.002  0.006  0.021
   19  0.005  0.001  0.051  0.057
   20  0.000  0.000  0.024  0.025
   21  0.000  0.001  0.023  0.024
   22  0.006  0.001  0.025  0.032
   23  0.000  0.001  0.023  0.024
   24  0.022  0.001  0.018  0.041
   25  0.021  0.001  0.004  0.025
   26  0.005  0.001  0.050  0.056
   27  0.005  0.001  0.025  0.032
   28  0.000  0.001  0.005  0.006
   29  0.002  0.000  0.004  0.006
   30  0.007  0.001  0.003  0.010
   31  0.002  0.000  0.004  0.006
   32  0.002  0.001  0.005  0.007
   33  0.007  0.001  0.003  0.010
   34  0.002  0.001  0.005  0.007
   35  0.000  0.001  0.008  0.009
   36  0.000  0.000  0.003  0.003
   37  0.000  0.000  0.000  0.000
   38  0.000  0.000  0.000  0.000
tot    0.149  0.028  0.573  0.750
 
band    18 # energy   -5.18363606 # occ.  2.00000000
 
ion      s      p      d    tot
    1  0.000  0.001  0.015  0.015
    2  0.009  0.001  0.004  0.015
    3  0.001  0.000  0.005  0.006
    4  0.009  0.001  0.004  0.015
    5  0.000  0.000  0.006  0.006
    6  0.004  0.001  0.005  0.010
    7  0.001  0.000  0.005  0.006
    8  0.004  0.001  0.005  0.010
    9  0.000  0.001  0.006  0.007
   10  0.000  0.000  0.035  0.035
   11  0.000  0.001  0.020  0.021
   12  0.008  0.000  0.022  0.030
   13  0.000  0.001  0.020  0.021
   14  0.000  0.001  0.015  0.016
   15  0.009  0.002  0.020  0.031
   16  0.008  0.000  0.022  0.030
   17  0.009  0.002  0.020  0.031
   18  0.000  0.000  0.060  0.061
   19  0.016  0.001  0.019  0.035
   20  0.000  0.002  0.022  0.024
   21  0.000  0.001  0.024  0.024
   22  0.017  0.001  0.021  0.038
   23  0.000  0.001  0.024  0.024
   24  0.000  0.001  0.028  0.028
   25  0.000  0.000  0.067  0.067
   26  0.015  0.001  0.020  0.036
   27  0.017  0.001  0.020  0.038
   28  0.000  0.001  0.005  0.006
   29  0.005  0.001  0.004  0.010
   30  0.000  0.000  0.005  0.006
   31  0.005  0.001  0.004  0.010
   32  0.005  0.001  0.003  0.009
   33  0.000  0.000  0.005  0.006
   34  0.005  0.001  0.003  0.009
   35  0.000  0.001  0.008  0.009
   36  0.000  0.000  0.003  0.003
   37  0.000  0.000  0.000  0.000
   38  0.000  0.000  0.000  0.000
tot    0.149  0.028  0.573  0.750
 
band    19 # energy   -4.89738944 # occ.  2.00000000
 
ion      s      p      d    tot
    1  0.011  0.000  0.008  0.020
    2  0.000  0.001  0.019  0.020
    3  0.000  0.001  0.019  0.020
    4  0.000  0.001  0.019  0.020
    5  0.002  0.000  0.001  0.004
    6  0.000  0.001  0.019  0.020
    7  0.000  0.001  0.019  0.020
    8  0.000  0.001  0.019  0.020
    9  0.025  0.001  0.003  0.029
   10  0.001  0.000  0.021  0.022
   11  0.000  0.000  0.019  0.019
   12  0.001  0.000  0.021  0.022
   13  0.000  0.000  0.019  0.019
   14  0.000  0.000  0.019  0.019
   15  0.000  0.000  0.031  0.032
   16  0.001  0.000  0.021  0.022
   17  0.000  0.000  0.031  0.032
   18  0.000  0.000  0.031  0.032
   19  0.000  0.000  0.025  0.025
   20  0.000  0.000  0.033  0.033
   21  0.000  0.000  0.033  0.033
   22  0.000  0.000  0.025  0.025
   23  0.000  0.000  0.033  0.033
   24  0.000  0.000  0.025  0.025
   25  0.000  0.000  0.025  0.025
   26  0.000  0.000  0.025  0.025
   27  0.000  0.000  0.025  0.025
   28  0.002  0.000  0.010  0.012
   29  0.000  0.001  0.020  0.021
   30  0.000  0.001  0.020  0.021
   31  0.000  0.001  0.020  0.021
   32  0.000  0.001  0.020  0.021
   33  0.000  0.001  0.020  0.021
   34  0.000  0.001  0.020  0.021
   35  0.014  0.001  0.000  0.015
   36  0.014  0.000  0.009  0.023
   37  0.000  0.000  0.000  0.000
   38  0.000  0.000  0.000  0.000
tot    0.073  0.017  0.731  0.821
 
band    20 # energy   -4.88486370 # occ.  2.00000000
 
ion      s      p      d    tot
    1  0.000  0.000  0.023  0.023
    2  0.007  0.000  0.011  0.019
    3  0.008  0.001  0.007  0.016
    4  0.007  0.000  0.011  0.019
    5  0.000  0.001  0.018  0.019
    6  0.000  0.000  0.011  0.011
    7  0.008  0.001  0.007  0.016
    8  0.000  0.000  0.011  0.011
    9  0.000  0.001  0.004  0.005
   10  0.000  0.000  0.009  0.009
   11  0.001  0.000  0.049  0.050
   12  0.000  0.000  0.021  0.021
   13  0.001  0.000  0.049  0.050
   14  0.000  0.000  0.054  0.055
   15  0.000  0.000  0.020  0.021
   16  0.000  0.000  0.021  0.021
   17  0.000  0.000  0.020  0.020
   18  0.000  0.000  0.012  0.012
   19  0.000  0.000  0.012  0.012
   20  0.000  0.000  0.039  0.039
   21  0.001  0.000  0.076  0.078
   22  0.001  0.000  0.020  0.021
   23  0.001  0.000  0.077  0.078
   24  0.000  0.000  0.028  0.028
   25  0.000  0.000  0.005  0.005
   26  0.000  0.000  0.011  0.012
   27  0.001  0.000  0.020  0.021
   28  0.000  0.001  0.003  0.004
   29  0.000  0.000  0.006  0.006
   30  0.007  0.001  0.012  0.020
   31  0.000  0.000  0.006  0.006
   32  0.006  0.001  0.016  0.022
   33  0.007  0.001  0.012  0.020
   34  0.006  0.001  0.016  0.023
   35  0.000  0.000  0.017  0.017
   36  0.000  0.003  0.014  0.017
   37  0.000  0.000  0.000  0.000
   38  0.000  0.000  0.000  0.000
tot    0.063  0.017  0.749  0.829
 
band    21 # energy   -4.88486035 # occ.  2.00000000
 
ion      s      p      d    tot
    1  0.000  0.000  0.023  0.023
    2  0.003  0.001  0.008  0.012
    3  0.002  0.000  0.012  0.015
    4  0.003  0.001  0.008  0.012
    5  0.000  0.001  0.018  0.019
    6  0.010  0.001  0.009  0.020
    7  0.002  0.000  0.012  0.015
    8  0.010  0.001  0.009  0.020
    9  0.000  0.001  0.004  0.005
   10  0.000  0.001  0.024  0.025
   11  0.000  0.000  0.053  0.053
   12  0.000  0.000  0.013  0.013
   13  0.000  0.000  0.053  0.053
   14  0.001  0.001  0.047  0.049
   15  0.000  0.000  0.015  0.015
   16  0.000  0.000  0.013  0.013