 vasp.6.2.0 18Jan21 (build Jun 12 2021 23:27:24) complex                        
  
 executed on             LinuxIFC date 2022.05.30  17:31:03
 running on   28 total cores
 distrk:  each k-point on   28 cores,    1 groups
 distr:  one band on NCORE=   1 cores,   28 groups


--------------------------------------------------------------------------------------------------------


 INCAR:
   ISMEAR = -5
   SIGMA = 0.1
   ISPIN = 1
   EDIFF = 1.d-5
   EDIFFG = -0.01
   NSW = 0
   NELM = 150
   ENCUT = 500
   ISIF = 2
   IBRION = 2
   LREAL = Auto
   ALGO = Fast
   ICHARG = 11
   LORBIT = 10
   LCHARG = .F.
   LWAVE = .F.

 POTCAR:    PAW_PBE Ag 02Apr2005                  
 POTCAR:    PAW_PBE Hf 20Jan2003                  
 POTCAR:    PAW_PBE O 08Apr2002                   
 -----------------------------------------------------------------------------
|                                                                             |
|           W    W    AA    RRRRR   N    N  II  N    N   GGGG   !!!           |
|           W    W   A  A   R    R  NN   N  II  NN   N  G    G  !!!           |
|           W    W  A    A  R    R  N N  N  II  N N  N  G       !!!           |
|           W WW W  AAAAAA  RRRRR   N  N N  II  N  N N  G  GGG   !            |
|           WW  WW  A    A  R   R   N   NN  II  N   NN  G    G                |
|           W    W  A    A  R    R  N    N  II  N    N   GGGG   !!!           |
|                                                                             |
|     For optimal performance we recommend to set                             |
|       NCORE = 2 up to number-of-cores-per-socket                            |
|     NCORE specifies how many cores store one orbital (NPAR=cpu/NCORE).      |
|     This setting can greatly improve the performance of VASP for DFT.       |
|     The default, NCORE=1 might be grossly inefficient on modern             |
|     multi-core architectures or massively parallel machines. Do your        |
|     own testing! More info at https://www.vasp.at/wiki/index.php/NCORE      |
|     Unfortunately you need to use the default for GW and RPA                |
|     calculations (for HF NCORE is supported but not extensively tested      |
|     yet).                                                                   |
|                                                                             |
 -----------------------------------------------------------------------------

 POTCAR:    PAW_PBE Ag 02Apr2005                  
   VRHFIN =Ag : s1 d10                                                                              
   LEXCH  = PE                                                                                      
   EATOM  =  1037.2675 eV,   76.2370 Ry                                                             
                                                                                                    
   TITEL  = PAW_PBE Ag 02Apr2005                                                                    
   LULTRA =        F    use ultrasoft PP ?                                                          
   IUNSCR =        1    unscreen: 0-lin 1-nonlin 2-no                                               
   RPACOR =    2.000    partial core radius                                                         
   POMASS =  107.868; ZVAL   =   11.000    mass and valenz                                          
   RCORE  =    2.500    outmost cutoff radius                                                       
   RWIGS  =    2.840; RWIGS  =    1.503    wigner-seitz radius (au A)                               
   ENMAX  =  249.844; ENMIN  =  187.383 eV                                                          
   ICORE  =        3    local potential                                                             
   LCOR   =        T    correct aug charges                                                         
   LPAW   =        T    paw PP                                                                      
   EAUG   =  412.496                                                                                
   DEXC   =    0.000                                                                                
   RMAX   =    2.560    core radius for proj-oper                                                   
   RAUG   =    1.300    factor for augmentation sphere                                              
   RDEP   =    2.576    radius for radial grids                                                     
   RDEPT  =    2.072    core radius for aug-charge                                                  
                                                                                                    
   Atomic configuration                                                                             
   12 entries                                                                                       
     n  l   j            E        occ.                                                              
     1  0  0.50    -25324.9161   2.0000                                                             
     2  0  0.50     -3728.5341   2.0000                                                             
     2  1  1.50     -3344.0404   6.0000                                                             
     3  0  0.50      -683.5581   2.0000                                                             
     3  1  1.50      -557.3225   6.0000                                                             
     3  2  2.50      -358.3853  10.0000                                                             
     4  0  0.50       -95.0341   2.0000                                                             
     4  1  1.50       -58.5511   6.0000                                                             
     4  2  2.50        -7.4440  10.0000                                                             
     5  0  0.50        -4.4045   1.0000                                                             
     5  1  0.50        -1.3606   0.0000                                                             
     4  3  2.50        -1.3606   0.0000                                                             
   Description                                                                                      
     l       E           TYP  RCUT    TYP  RCUT                                                     
     2     -7.4439781     23  2.400                                                                 
     2     -8.8045607     23  2.400                                                                 
     0     -4.4044681     23  2.400                                                                 
     0      1.9520038     23  2.400                                                                 
     1     -1.3605826     23  2.500                                                                 
     1     27.2116520     23  2.500                                                                 
     3     -4.0817478     23  2.400                                                                 
  local pseudopotential read in
  partial core-charges read in
  partial kinetic energy density read in
  atomic valenz-charges read in
  non local Contribution for L=           2  read in
    real space projection operators read in
  non local Contribution for L=           2  read in
    real space projection operators read in
  non local Contribution for L=           0  read in
    real space projection operators read in
  non local Contribution for L=           0  read in
    real space projection operators read in
  non local Contribution for L=           1  read in
    real space projection operators read in
  non local Contribution for L=           1  read in
    real space projection operators read in
    PAW grid and wavefunctions read in
 
   number of l-projection  operators is LMAX  =           6
   number of lm-projection operators is LMMAX =          18
 
 POTCAR:    PAW_PBE Hf 20Jan2003                  
   VRHFIN =Hf: 6s5d                                                                                 
   LEXCH  = PE                                                                                      
   EATOM  =    75.9011 eV,    5.5786 Ry                                                             
                                                                                                    
   TITEL  = PAW_PBE Hf 20Jan2003                                                                    
   LULTRA =        F    use ultrasoft PP ?                                                          
   IUNSCR =        1    unscreen: 0-lin 1-nonlin 2-no                                               
   RPACOR =    2.500    partial core radius                                                         
   POMASS =  178.490; ZVAL   =    4.000    mass and valenz                                          
   RCORE  =    3.000    outmost cutoff radius                                                       
   RWIGS  =    3.050; RWIGS  =    1.614    wigner-seitz radius (au A)                               
   ENMAX  =  220.334; ENMIN  =  165.250 eV                                                          
   RCLOC  =    2.212    cutoff for local pot                                                        
   LCOR   =        T    correct aug charges                                                         
   LPAW   =        T    paw PP                                                                      
   EAUG   =  335.116                                                                                
   DEXC   =    0.000                                                                                
   RMAX   =    3.077    core radius for proj-oper                                                   
   RAUG   =    1.300    factor for augmentation sphere                                              
   RDEP   =    3.047    radius for radial grids                                                     
   RDEPT  =    2.344    core radius for aug-charge                                                  
                                                                                                    
   Atomic configuration                                                                             
   16 entries                                                                                       
     n  l   j            E        occ.                                                              
     1  0  0.50    -65259.4397   2.0000                                                             
     2  0  0.50    -11157.9882   2.0000                                                             
     2  1  1.50     -9795.2113   6.0000                                                             
     3  0  0.50     -2541.4058   2.0000                                                             
     3  1  1.50     -2134.4770   6.0000                                                             
     3  2  2.50     -1653.5418  10.0000                                                             
     4  0  0.50      -510.9575   2.0000                                                             
     4  1  1.50      -377.5023   6.0000                                                             
     4  2  2.50      -205.2085  10.0000                                                             
     4  3  3.50       -15.4905  14.0000                                                             
     5  0  0.50       -65.6020   2.0000                                                             
     5  1  1.50       -34.2798   6.0000                                                             
     5  2  2.50        -1.9877   3.0000                                                             
     6  0  0.50        -4.7357   1.0000                                                             
     6  1  1.50        -1.3606   0.0000                                                             
     5  3  2.50        -1.3606   0.0000                                                             
   Description                                                                                      
     l       E           TYP  RCUT    TYP  RCUT                                                     
     2     -1.9876627     23  2.500                                                                 
     2      0.0744703     23  2.500                                                                 
     0     -4.7356889     23  2.600                                                                 
     0      3.2364747     23  2.600                                                                 
     1     -1.3605826     23  3.000                                                                 
     1     27.2116520     23  3.000                                                                 
  local pseudopotential read in
  partial core-charges read in
  partial kinetic energy density read in
  atomic valenz-charges read in
  non local Contribution for L=           2  read in
    real space projection operators read in
  non local Contribution for L=           2  read in
    real space projection operators read in
  non local Contribution for L=           0  read in
    real space projection operators read in
  non local Contribution for L=           0  read in
    real space projection operators read in
  non local Contribution for L=           1  read in
    real space projection operators read in
  non local Contribution for L=           1  read in
    real space projection operators read in
    PAW grid and wavefunctions read in
 
   number of l-projection  operators is LMAX  =           6
   number of lm-projection operators is LMMAX =          18
 
 POTCAR:    PAW_PBE O 08Apr2002                   
   VRHFIN =O: s2p4                                                                                  
   LEXCH  = PE                                                                                      
   EATOM  =   432.3788 eV,   31.7789 Ry                                                             
                                                                                                    
   TITEL  = PAW_PBE O 08Apr2002                                                                     
   LULTRA =        F    use ultrasoft PP ?                                                          
   IUNSCR =        1    unscreen: 0-lin 1-nonlin 2-no                                               
   RPACOR =    1.200    partial core radius                                                         
   POMASS =   16.000; ZVAL   =    6.000    mass and valenz                                          
   RCORE  =    1.520    outmost cutoff radius                                                       
   RWIGS  =    1.550; RWIGS  =    0.820    wigner-seitz radius (au A)                               
   ENMAX  =  400.000; ENMIN  =  300.000 eV                                                          
   ICORE  =        2    local potential                                                             
   LCOR   =        T    correct aug charges                                                         
   LPAW   =        T    paw PP                                                                      
   EAUG   =  605.392                                                                                
   DEXC   =    0.000                                                                                
   RMAX   =    1.553    core radius for proj-oper                                                   
   RAUG   =    1.300    factor for augmentation sphere                                              
   RDEP   =    1.550    radius for radial grids                                                     
   RDEPT  =    1.329    core radius for aug-charge                                                  
                                                                                                    
   Atomic configuration                                                                             
    4 entries                                                                                       
     n  l   j            E        occ.                                                              
     1  0  0.50      -514.6923   2.0000                                                             
     2  0  0.50       -23.9615   2.0000                                                             
     2  1  0.50        -9.0305   4.0000                                                             
     3  2  1.50        -9.5241   0.0000                                                             
   Description                                                                                      
     l       E           TYP  RCUT    TYP  RCUT                                                     
     0    -23.9615318     23  1.200                                                                 
     0     -9.5240782     23  1.200                                                                 
     1     -9.0304911     23  1.520                                                                 
     1      8.1634956     23  1.520                                                                 
     2     -9.5240782      7  1.500                                                                 
  local pseudopotential read in
  partial core-charges read in
  partial kinetic energy density read in
  kinetic energy density of atom read in
  atomic valenz-charges read in
  non local Contribution for L=           0  read in
    real space projection operators read in
  non local Contribution for L=           0  read in
    real space projection operators read in
  non local Contribution for L=           1  read in
    real space projection operators read in
  non local Contribution for L=           1  read in
    real space projection operators read in
    PAW grid and wavefunctions read in
 
   number of l-projection  operators is LMAX  =           4
   number of lm-projection operators is LMMAX =           8
 
 Optimization of the real space projectors (new method)

 maximal supplied QI-value         = 15.12
 optimisation between [QCUT,QGAM] = [ 11.34, 22.83] = [ 36.00,145.93] Ry 
 Optimized for a Real-space Cutoff    1.43 Angstroem

   l    n(q)    QCUT    max X(q) W(low)/X(q) W(high)/X(q)  e(spline) 
   2      9    11.338    53.897    0.16E-03    0.20E-03    0.28E-06
   2      9    11.338    52.416    0.16E-03    0.20E-03    0.29E-06
   0     10    11.338   122.045    0.31E-04    0.76E-04    0.15E-06
   0     10    11.338    73.629    0.30E-04    0.72E-04    0.15E-06
   1      9    11.338    15.255    0.20E-03    0.19E-04    0.17E-06
   1      9    11.338     9.562    0.16E-03    0.15E-04    0.14E-06
 Optimization of the real space projectors (new method)

 maximal supplied QI-value         = 12.47
 optimisation between [QCUT,QGAM] = [ 11.35, 22.82] = [ 36.07,145.88] Ry 
 Optimized for a Real-space Cutoff    1.66 Angstroem

   l    n(q)    QCUT    max X(q) W(low)/X(q) W(high)/X(q)  e(spline) 
   2     10    11.350    48.111    0.20E-03    0.11E-03    0.41E-06
   2     10    11.350    40.545    0.19E-03    0.10E-03    0.39E-06
   0     11    11.350   121.658    0.22E-04    0.19E-04    0.24E-06
   0     11    11.350    71.177    0.17E-04    0.17E-04    0.23E-06
   1     11    11.350    14.183    0.25E-03    0.43E-03    0.12E-05
   1     11    11.350     8.257    0.17E-03    0.29E-03    0.81E-06
 Optimization of the real space projectors (new method)

 maximal supplied QI-value         = 24.76
 optimisation between [QCUT,QGAM] = [ 11.39, 22.77] = [ 36.31,145.25] Ry 
 Optimized for a Real-space Cutoff    1.00 Angstroem

   l    n(q)    QCUT    max X(q) W(low)/X(q) W(high)/X(q)  e(spline) 
   0      7    11.387    20.381    0.39E-03    0.13E-02    0.15E-06
   0      7    11.387    15.268    0.42E-03    0.14E-02    0.17E-06
   1      6    11.387     5.964    0.41E-03    0.11E-02    0.17E-06
   1      6    11.387     5.382    0.39E-03    0.87E-03    0.15E-06
  PAW_PBE Ag 02Apr2005                  :
 energy of atom  1       EATOM=-1037.2675
 kinetic energy error for atom=    0.0052 (will be added to EATOM!!)
  PAW_PBE Hf 20Jan2003                  :
 energy of atom  2       EATOM=  -75.9011
 kinetic energy error for atom=    0.0007 (will be added to EATOM!!)
  PAW_PBE O 08Apr2002                   :
 energy of atom  3       EATOM= -432.3788
 kinetic energy error for atom=    0.0224 (will be added to EATOM!!)
 
 
 POSCAR: Ag-Hf-O2
  positions in direct lattice
  velocities in cartesian coordinates
 exchange correlation table for  LEXCH =        8
   RHO(1)=    0.500       N(1)  =     2000
   RHO(2)=  100.500       N(2)  =     4000

 VTST: version 3.2, (02/03/18)

 CHAIN: initializing optimizer
 
 OPT: Using VASP Conjugate-Gradient optimizer
 CHAIN: Read ICHAIN            0
 
 POSCAR: Ag-Hf-O2
  positions in direct lattice
  velocities in cartesian coordinates
 


--------------------------------------------------------------------------------------------------------


 ion  position               nearest neighbor table
   1  0.000  0.000  0.217-   2 2.93   8 2.93   7 2.93   6 2.93   4 2.93  12 2.93  16 2.93  10 2.93
                             3 2.93
   2  0.333  0.000  0.217-   1 2.93   8 2.93   9 2.93   3 2.93   4 2.93   5 2.93  10 2.93  17 2.93
                            11 2.93
   3  0.667  0.000  0.217-   9 2.93   2 2.93   5 2.93  11 2.93   7 2.93  18 2.93   1 2.93   6 2.93
                            12 2.93
   4  0.000  0.333  0.217-   5 2.93   6 2.93   2 2.93   1 2.93   7 2.93  13 2.93  15 2.93   9 2.93
                            10 2.93
   5  0.333  0.333  0.217-   4 2.93   3 2.93   7 2.93   2 2.93   8 2.93  14 2.93  13 2.93  11 2.93
                             6 2.93
   6  0.667  0.333  0.217-   4 2.93   9 2.93   1 2.93  15 2.93   8 2.93  12 2.93   3 2.93   5 2.93
                            14 2.93
   7  0.000  0.667  0.217-   8 2.93   1 2.93   5 2.93   3 2.93   4 2.93  16 2.93  18 2.93  13 2.93
                             9 2.93
   8  0.333  0.667  0.217-   7 2.93   1 2.93   2 2.93   9 2.93   5 2.93  16 2.93   6 2.93  17 2.93
                            14 2.93
   9  0.667  0.667  0.217-   3 2.93   2 2.93   8 2.93   6 2.93  17 2.93   4 2.93  15 2.93   7 2.93
                            18 2.93
  10  0.111  0.111  0.315-  20 2.90  19 2.92  26 2.92  12 2.93  16 2.93  15 2.93  17 2.93  13 2.93
                            11 2.93   2 2.93   1 2.93   4 2.93
  11  0.444  0.111  0.315-  21 2.90  20 2.90  14 2.93  17 2.93  18 2.93   3 2.93  12 2.93  13 2.93
                            10 2.93   5 2.93   2 2.93  27 2.93
  12  0.778  0.111  0.315-  21 2.90  25 2.92  19 2.92  10 2.93  16 2.93  18 2.93  15 2.93  11 2.93
                             1 2.93  14 2.93   6 2.93   3 2.93
  13  0.111  0.444  0.315-  20 2.90  23 2.90  15 2.93  14 2.93  18 2.93  10 2.93  11 2.93  16 2.93
                             4 2.93   5 2.93   7 2.93  22 2.93
  14  0.444  0.444  0.315-  23 2.90  21 2.90  13 2.93  11 2.93  16 2.93   5 2.93  12 2.93  17 2.93
                             8 2.93  15 2.93   6 2.93  24 2.93
  15  0.778  0.444  0.315-  19 2.92  24 2.93  22 2.93  13 2.93  10 2.93  12 2.93  17 2.93  18 2.93
                             4 2.93   6 2.93   9 2.93  14 2.93
  16  0.111  0.778  0.315-  23 2.90  26 2.92  25 2.92  18 2.93  12 2.93  10 2.93  14 2.93  17 2.93
                            13 2.93   7 2.93   8 2.93   1 2.93
  17  0.444  0.778  0.315-  26 2.92  27 2.93  24 2.93  11 2.93  10 2.93   9 2.93  18 2.93  15 2.93
                            16 2.93   2 2.93  14 2.93   8 2.93
  18  0.778  0.778  0.315-  25 2.92  22 2.93  27 2.93  16 2.93  12 2.93  13 2.93  11 2.93  17 2.93
                            15 2.93   7 2.93   3 2.93   9 2.93
  19  0.889  0.222  0.413-  10 2.92  12 2.92  15 2.92  20 2.93  21 2.93  26 2.93  25 2.93  24 2.93
                            22 2.93  28 2.94  32 2.98  31 2.98
  20  0.222  0.222  0.412-  36 2.86  10 2.90  13 2.90  11 2.90  19 2.93  26 2.93  27 2.93  22 2.93
                            21 2.94  23 2.94  31 2.97  29 2.97
  21  0.556  0.222  0.412-  36 2.86  12 2.90  11 2.90  14 2.90  25 2.93  19 2.93  27 2.93  24 2.93
                            20 2.94  23 2.94  30 2.97  32 2.97
  22  0.889  0.556  0.413-  24 2.93  27 2.93  18 2.93  15 2.93  25 2.93  19 2.93  13 2.93  23 2.93
                            20 2.93  35 2.94  33 2.96  31 2.96
  23  0.222  0.556  0.412-  36 2.86  16 2.90  14 2.90  13 2.90  26 2.93  25 2.93  22 2.93  24 2.93
                            21 2.94  20 2.94  34 2.97  33 2.97
  24  0.556  0.556  0.413-  27 2.93  22 2.93  15 2.93  17 2.93  19 2.93  26 2.93  14 2.93  23 2.93
                            21 2.93  35 2.94  32 2.96  34 2.96
  25  0.889  0.889  0.413-  16 2.92  12 2.92  18 2.92  23 2.93  21 2.93  26 2.93  19 2.93  22 2.93
                            27 2.93  28 2.94  33 2.98  30 2.98
  26  0.222  0.889  0.413-  16 2.92  10 2.92  17 2.92  23 2.93  20 2.93  25 2.93  19 2.93  27 2.93
                            24 2.93  28 2.94  34 2.98  29 2.98
  27  0.556  0.889  0.413-  24 2.93  22 2.93  17 2.93  18 2.93  26 2.93  25 2.93  11 2.93  20 2.93
                            21 2.93  35 2.94  29 2.96  30 2.96
  28  0.000  0.000  0.511-  26 2.94  25 2.94  19 2.94  29 2.94  34 2.94  33 2.94  32 2.94  31 2.94
                            30 2.94
  29  0.333  0.003  0.513-  30 2.90  31 2.91  36 2.91  35 2.94  28 2.94  27 2.96  20 2.97  26 2.98
                            34 2.98
  30  0.664  0.003  0.513-  29 2.90  32 2.91  36 2.91  35 2.94  28 2.94  27 2.96  21 2.97  25 2.98
                            33 2.98
  31  0.003  0.333  0.513-  37 2.73  33 2.90  29 2.91  36 2.91  35 2.94  28 2.94  22 2.96  20 2.97
                            19 2.98  32 2.98
  32  0.664  0.333  0.513-  38 2.73  34 2.90  30 2.91  36 2.91  35 2.94  28 2.94  24 2.96  21 2.97
                            19 2.98  31 2.98
  33  0.003  0.664  0.513-  31 2.90  34 2.91  36 2.91  35 2.94  28 2.94  22 2.96  23 2.97  25 2.98
                            30 2.98
  34  0.333  0.664  0.513-  32 2.90  33 2.91  36 2.91  35 2.94  28 2.94  24 2.96  23 2.97  26 2.98
                            29 2.98
  35  0.667  0.667  0.512-  30 2.94  29 2.94  32 2.94  34 2.94  31 2.94  33 2.94  24 2.94  27 2.94
                            22 2.94
  36  0.333  0.333  0.506-  37 1.99  38 1.99  21 2.86  20 2.86  23 2.86  31 2.91  33 2.91  30 2.91
                            29 2.91  34 2.91  32 2.91
  37  0.243  0.341  0.582-  38 1.51  36 1.99  31 2.73
  38  0.415  0.341  0.582-  37 1.51  36 1.99  32 2.73
 
  LATTYP: Found a hexagonal cell.
 ALAT       =     8.7913665772
 C/A-ratio  =     2.7711238095
  
  Lattice vectors:
  
 A1 = (  -4.3956832886,  -7.6135467898,   0.0000000000)
 A2 = (   8.7913665771,   0.0000000000,   0.0000000000)
 A3 = (   0.0000000000,   0.0000000000,  24.3619652401)


Analysis of symmetry for initial positions (statically):
=====================================================================
 Subroutine PRICEL returns:
 Original cell was already a primitive cell.
 

 Routine SETGRP: Setting up the symmetry group for a 
 hexagonal supercell.


 Subroutine GETGRP returns: Found  2 space group operations
 (whereof  2 operations were pure point group operations)
 out of a pool of 24 trial point group operations.


The static configuration has the point symmetry C_1h.


Analysis of symmetry for dynamics (positions and initial velocities):
=====================================================================
 Subroutine PRICEL returns:
 Original cell was already a primitive cell.
 

 Routine SETGRP: Setting up the symmetry group for a 
 hexagonal supercell.


 Subroutine GETGRP returns: Found  2 space group operations
 (whereof  2 operations were pure point group operations)
 out of a pool of 24 trial point group operations.


The dynamic configuration has the point symmetry C_1h.


Analysis of constrained symmetry for selective dynamics:
=====================================================================
 Subroutine PRICEL returns:
 Original cell was already a primitive cell.
 

 Routine SETGRP: Setting up the symmetry group for a 
 hexagonal supercell.


 Subroutine GETGRP returns: Found  2 space group operations
 (whereof  2 operations were pure point group operations)
 out of a pool of 24 trial point group operations.


The constrained configuration has the point symmetry C_1h.


 Subroutine INISYM returns: Found  2 space group operations
 (whereof  2 operations are pure point group operations),
 and found     1 'primitive' translations


----------------------------------------------------------------------------------------

                                     Primitive cell                                     

  volume of cell :    1630.6311

  direct lattice vectors                    reciprocal lattice vectors
     8.791366577  0.000000000  0.000000000     0.113747958 -0.065672414  0.000000000
     4.395683289  7.613546790  0.000000000     0.000000000  0.131344829  0.000000000
     0.000000000  0.000000000 24.361965240     0.000000000  0.000000000  0.041047592

  length of vectors
     8.791366577  8.791366577 24.361965240     0.131344829  0.131344829  0.041047592

  position of ions in fractional coordinates (direct lattice)
     0.000000000  0.000000000  0.216821102
     0.333333313  0.000000000  0.216821102
     0.666666627  0.000000000  0.216821102
     1.000000000  0.333333343  0.216821102
     0.333333313  0.333333343  0.216821102
     0.666666687  0.333333343  0.216821102
     1.000000000  0.666666687  0.216821102
     0.333333313  0.666666687  0.216821102
     0.666666627  0.666666687  0.216821102
     0.111111104  0.111111112  0.315035970
     0.444444448  0.111111112  0.315035970
     0.777777791  0.111111112  0.315035970
     0.111111097  0.444444448  0.315035970
     0.444444418  0.444444448  0.315035970
     0.777777791  0.444444448  0.315035970
     0.111111104  0.777777791  0.315035970
     0.444444448  0.777777791  0.315035970
     0.777777791  0.777777791  0.315035970
     0.888897030  0.222205956  0.412867796
     0.221894504  0.221894519  0.411832791
     0.556210932  0.221894519  0.411832791
     0.888580280  0.555709890  0.413257119
     0.221894519  0.556210992  0.411832791
     0.555709890  0.555709890  0.413257119
     0.888897030  0.888897030  0.412867796
     0.222205926  0.888897030  0.412867796
     0.555709830  0.888580280  0.413257119
     0.000000000  0.000000000  0.511336472
     0.333428019  0.002724273  0.512902106
     0.663847648  0.002724273  0.512902106
     0.002724273  0.333428049  0.512902106
     0.663847708  0.333428049  0.512902106
     0.002724273  0.663847708  0.512902106
     0.333428019  0.663847708  0.512902106
     0.666666627  0.666666687  0.512210679
     0.333333313  0.333333343  0.506282270
     0.243263762  0.341240659  0.581818878
     0.415495548  0.341240659  0.581818878

  ion indices of the primitive-cell ions
   primitive index   ion index
                 1           1
                 2           2
                 3           3
                 4           4
                 5           5
                 6           6
                 7           7
                 8           8
                 9           9
                10          10
                11          11
                12          12
                13          13
                14          14
                15          15
                16          16
                17          17
                18          18
                19          19
                20          20
                21          21
                22          22
                23          23
                24          24
                25          25
                26          26
                27          27
                28          28
                29          29
                30          30
                31          31
                32          32
                33          33
                34          34
                35          35
                36          36
                37          37
                38          38

----------------------------------------------------------------------------------------

 
 
 KPOINTS: Automatic mesh                          

Automatic generation of k-mesh.
 Grid dimensions read from file:
 generate k-points for:    8    8    1

 Generating k-lattice:

  Cartesian coordinates                     Fractional coordinates (reciprocal lattice)
     0.014218495 -0.008209052  0.000000000     0.125000000 -0.000000000  0.000000000
     0.000000000  0.016418104  0.000000000     0.000000000  0.125000000  0.000000000
     0.000000000  0.000000000  0.041047592     0.000000000  0.000000000  1.000000000

  Length of vectors
     0.016418104  0.016418104  0.041047592

  Shift w.r.t. Gamma in fractional coordinates (k-lattice)
     0.000000000  0.000000000  0.000000000

 TETIRR: Found    100 inequivalent tetrahedra from      384
 
 Subroutine IBZKPT returns following result:
 ===========================================
 
 Found     21 irreducible k-points:
 
 Following reciprocal coordinates:
            Coordinates               Weight
  0.000000  0.000000  0.000000      1.000000
  0.125000  0.000000  0.000000      4.000000
  0.000000  0.125000  0.000000      2.000000
  0.250000  0.000000  0.000000      4.000000
  0.000000  0.250000  0.000000      2.000000
  0.375000 -0.000000  0.000000      4.000000
  0.000000  0.375000  0.000000      2.000000
  0.500000  0.000000  0.000000      2.000000
  0.000000  0.500000  0.000000      1.000000
  0.250000  0.125000  0.000000      2.000000
  0.125000  0.250000  0.000000      4.000000
  0.375000  0.125000  0.000000      4.000000
  0.250000  0.375000  0.000000      4.000000
 -0.125000  0.250000  0.000000      4.000000
  0.500000  0.125000  0.000000      4.000000
  0.375000  0.500000  0.000000      4.000000
 -0.125000  0.375000  0.000000      4.000000
  0.500000  0.250000  0.000000      2.000000
  0.250000  0.500000  0.000000      4.000000
 -0.375000  0.250000  0.000000      4.000000
 -0.250000  0.375000  0.000000      2.000000
 
 Following cartesian coordinates:
            Coordinates               Weight
  0.000000  0.000000  0.000000      1.000000
  0.014218 -0.008209  0.000000      4.000000
  0.000000  0.016418  0.000000      2.000000
  0.028437 -0.016418  0.000000      4.000000
  0.000000  0.032836  0.000000      2.000000
  0.042655 -0.024627  0.000000      4.000000
  0.000000  0.049254  0.000000      2.000000
  0.056874 -0.032836  0.000000      2.000000
  0.000000  0.065672  0.000000      1.000000
  0.028437 -0.000000  0.000000      2.000000
  0.014218  0.024627  0.000000      4.000000
  0.042655 -0.008209  0.000000      4.000000
  0.028437  0.032836  0.000000      4.000000
 -0.014218  0.041045  0.000000      4.000000
  0.056874 -0.016418  0.000000      4.000000
  0.042655  0.041045  0.000000      4.000000
 -0.014218  0.057463  0.000000      4.000000
  0.056874 -0.000000  0.000000      2.000000
  0.028437  0.049254  0.000000      4.000000
 -0.042655  0.057463  0.000000      4.000000
 -0.028437  0.065672  0.000000      2.000000
 


--------------------------------------------------------------------------------------------------------




 Dimension of arrays:
   k-points           NKPTS =     21   k-points in BZ     NKDIM =     21   number of bands    NBANDS=    252
   number of dos      NEDOS =    301   number of ions     NIONS =     38
   non local maximal  LDIM  =      6   non local SUM 2l+1 LMDIM =     18
   total plane-waves  NPLWV = 322560
   max r-space proj   IRMAX =   3836   max aug-charges    IRDMAX=  13480
   dimension x,y,z NGX =    48 NGY =   48 NGZ =  140
   dimension x,y,z NGXF=    96 NGYF=   96 NGZF=  280
   support grid    NGXF=    96 NGYF=   96 NGZF=  280
   ions per type =              35   1   2
   NGX,Y,Z   is equivalent  to a cutoff of   9.08,  9.08,  9.55 a.u.
   NGXF,Y,Z  is equivalent  to a cutoff of  18.15, 18.15, 19.11 a.u.

 SYSTEM =  unknown system                          
 POSCAR =  Ag-Hf-O2                                

 Startparameter for this run:
   NWRITE =      2    write-flag & timer
   PREC   = normal    normal or accurate (medium, high low for compatibility)
   ISTART =      0    job   : 0-new  1-cont  2-samecut
   ICHARG =     11    charge: 1-file 2-atom 10-const
   ISPIN  =      1    spin polarized calculation?
   LNONCOLLINEAR =      F non collinear calculations
   LSORBIT =      F    spin-orbit coupling
   INIWAV =      1    electr: 0-lowe 1-rand  2-diag
   LASPH  =      F    aspherical Exc in radial PAW
   METAGGA=      F    non-selfconsistent MetaGGA calc.

 Electronic Relaxation 1
   ENCUT  =  500.0 eV  36.75 Ry    6.06 a.u.  16.03 16.03 44.42*2*pi/ulx,y,z
   ENINI  =  500.0     initial cutoff
   ENAUG  =  605.4 eV  augmentation charge cutoff
   NELM   =    150;   NELMIN=  2; NELMDL= -5     # of ELM steps 
   EDIFF  = 0.1E-04   stopping-criterion for ELM
   LREAL  =      T    real-space projection
   NLSPLINE    = F    spline interpolate recip. space projectors
   LCOMPAT=      F    compatible to vasp.4.4
   GGA_COMPAT  = T    GGA compatible to vasp.4.4-vasp.4.6
   LMAXPAW     = -100 max onsite density
   LMAXMIX     =    2 max onsite mixed and CHGCAR
   VOSKOWN=      0    Vosko Wilk Nusair interpolation
   ROPT   =   -0.00050  -0.00050  -0.00050
 Ionic relaxation
   EDIFFG = -.1E-01   stopping-criterion for IOM
   NSW    =      0    number of steps for IOM
   NBLOCK =      1;   KBLOCK =      1    inner block; outer block 
   IBRION =     -1    ionic relax: 0-MD 1-quasi-New 2-CG
   NFREE  =      1    steps in history (QN), initial steepest desc. (CG)
   ISIF   =      2    stress and relaxation
   IWAVPR =     10    prediction:  0-non 1-charg 2-wave 3-comb
   ISYM   =      2    0-nonsym 1-usesym 2-fastsym
   LCORR  =      T    Harris-Foulkes like correction to forces

   POTIM  = 0.5000    time-step for ionic-motion
   TEIN   =    0.0    initial temperature
   TEBEG  =    0.0;   TEEND  =   0.0 temperature during run
   SMASS  =  -3.00    Nose mass-parameter (am)
   estimated Nose-frequenzy (Omega)   =  0.10E-29 period in steps = 0.13E+47 mass=  -0.177E-26a.u.
   SCALEE = 1.0000    scale energy and forces
   NPACO  =    256;   APACO  = 16.0  distance and # of slots for P.C.
   PSTRESS=    0.0 pullay stress

  Mass of Ions in am
   POMASS = 107.87178.49 16.00
  Ionic Valenz
   ZVAL   =  11.00  4.00  6.00
  Atomic Wigner-Seitz radii
   RWIGS  =  -1.00 -1.00 -1.00
  virtual crystal weights 
   VCA    =   1.00  1.00  1.00
   NELECT =     401.0000    total number of electrons
   NUPDOWN=      -1.0000    fix difference up-down

 DOS related values:
   EMIN   =  10.00;   EMAX   =-10.00  energy-range for DOS
   EFERMI =   0.00
   ISMEAR =    -5;   SIGMA  =   0.10  broadening in eV -4-tet -1-fermi 0-gaus

 Electronic relaxation 2 (details)
   IALGO  =     68    algorithm
   LDIAG  =      T    sub-space diagonalisation (order eigenvalues)
   LSUBROT=      F    optimize rotation matrix (better conditioning)
   TURBO    =      0    0=normal 1=particle mesh
   IRESTART =      0    0=no restart 2=restart with 2 vectors
   NREBOOT  =      0    no. of reboots
   NMIN     =      0    reboot dimension
   EREF     =   0.00    reference energy to select bands
   IMIX   =      4    mixing-type and parameters
     AMIX     =   0.40;   BMIX     =  1.00
     AMIX_MAG =   1.60;   BMIX_MAG =  1.00
     AMIN     =   0.10
     WC   =   100.;   INIMIX=   1;  MIXPRE=   1;  MAXMIX= -45

 Intra band minimization:
   WEIMIN = 0.0000     energy-eigenvalue tresh-hold
   EBREAK =  0.99E-08  absolut break condition
   DEPER  =   0.30     relativ break condition  

   TIME   =   0.40     timestep for ELM

  volume/ion in A,a.u.               =      42.91       289.58
  Fermi-wavevector in a.u.,A,eV,Ry     =   1.025662  1.938221 14.313099  1.051983
  Thomas-Fermi vector in A             =   2.159514
 
 Write flags
   LWAVE        =      F    write WAVECAR
   LDOWNSAMPLE  =      F    k-point downsampling of WAVECAR
   LCHARG       =      F    write CHGCAR
   LVTOT        =      F    write LOCPOT, total local potential
   LVHAR        =      F    write LOCPOT, Hartree potential only
   LELF         =      F    write electronic localiz. function (ELF)
   LORBIT       =     10    0 simple, 1 ext, 2 COOP (PROOUT), +10 PAW based schemes


 Dipole corrections
   LMONO  =      F    monopole corrections only (constant potential shift)
   LDIPOL =      F    correct potential (dipole corrections)
   IDIPOL =      0    1-x, 2-y, 3-z, 4-all directions 
   EPSILON=  1.0000000 bulk dielectric constant

 Exchange correlation treatment:
   GGA     =    --    GGA type
   LEXCH   =     8    internal setting for exchange type
   VOSKOWN=      0    Vosko Wilk Nusair interpolation
   LHFCALC =     F    Hartree Fock is set to
   LHFONE  =     F    Hartree Fock one center treatment
   AEXX    =    0.0000 exact exchange contribution

 Linear response parameters
   LEPSILON=     F    determine dielectric tensor
   LRPA    =     F    only Hartree local field effects (RPA)
   LNABLA  =     F    use nabla operator in PAW spheres
   LVEL    =     F    velocity operator in full k-point grid
   LINTERFAST=   F  fast interpolation
   KINTER  =     0    interpolate to denser k-point grid
   CSHIFT  =0.1000    complex shift for real part using Kramers Kronig
   OMEGAMAX=  -1.0    maximum frequency
   DEG_THRESHOLD= 0.2000000E-02 threshold for treating states as degnerate
   RTIME   =   -0.100 relaxation time in fs
  (WPLASMAI=    0.000 imaginary part of plasma frequency in eV, 0.658/RTIME)
   DFIELD  = 0.0000000 0.0000000 0.0000000 field for delta impulse in time
 
 Orbital magnetization related:
   ORBITALMAG=     F  switch on orbital magnetization
   LCHIMAG   =     F  perturbation theory with respect to B field
   DQ        =  0.001000  dq finite difference perturbation B field
   LLRAUG    =     F  two centre corrections for induced B field



--------------------------------------------------------------------------------------------------------


 Static calculation
 charge density and potential remain constant during run
 non-spin polarized calculation
 RMM-DIIS sequential band-by-band and
  variant of blocked Davidson during initial phase
 perform sub-space diagonalisation
    before iterative eigenvector-optimisation
 no mixing
 using additional bands           51
 real space projection scheme for non local part
 use partial core corrections
 calculate Harris-corrections to forces 
   (improved forces if not selfconsistent)
 use gradient corrections 
 WARNING: stress and forces are not correct
  (second derivative of E(xc) not defined)
 use of overlap-Matrix (Vanderbilt PP)
 Fermi weights with tetrahedron method with Bloechl corrections


--------------------------------------------------------------------------------------------------------


  energy-cutoff  :      500.00
  volume of cell :     1630.63
      direct lattice vectors                 reciprocal lattice vectors
     8.791366577  0.000000000  0.000000000     0.113747958 -0.065672414  0.000000000
     4.395683289  7.613546790  0.000000000     0.000000000  0.131344829  0.000000000
     0.000000000  0.000000000 24.361965240     0.000000000  0.000000000  0.041047592

  length of vectors
     8.791366577  8.791366577 24.361965240     0.131344829  0.131344829  0.041047592


 
 k-points in units of 2pi/SCALE and weight: Automatic mesh                          
   0.00000000  0.00000000  0.00000000       0.016
   0.01421849 -0.00820905  0.00000000       0.062
   0.00000000  0.01641810  0.00000000       0.031
   0.02843699 -0.01641810  0.00000000       0.062
   0.00000000  0.03283621  0.00000000       0.031
   0.04265548 -0.02462716  0.00000000       0.062
   0.00000000  0.04925431  0.00000000       0.031
   0.05687398 -0.03283621  0.00000000       0.031
   0.00000000  0.06567241  0.00000000       0.016
   0.02843699 -0.00000000  0.00000000       0.031
   0.01421849  0.02462716  0.00000000       0.062
   0.04265548 -0.00820905  0.00000000       0.062
   0.02843699  0.03283621  0.00000000       0.062
  -0.01421849  0.04104526  0.00000000       0.062
   0.05687398 -0.01641810  0.00000000       0.062
   0.04265548  0.04104526  0.00000000       0.062
  -0.01421849  0.05746336  0.00000000       0.062
   0.05687398 -0.00000000  0.00000000       0.031
   0.02843699  0.04925431  0.00000000       0.062
  -0.04265548  0.05746336  0.00000000       0.062
  -0.02843699  0.06567241  0.00000000       0.031
 
 k-points in reciprocal lattice and weights: Automatic mesh                          
   0.00000000  0.00000000  0.00000000       0.016
   0.12500000  0.00000000  0.00000000       0.062
   0.00000000  0.12500000  0.00000000       0.031
   0.25000000  0.00000000  0.00000000       0.062
   0.00000000  0.25000000  0.00000000       0.031
   0.37500000 -0.00000000  0.00000000       0.062
   0.00000000  0.37500000  0.00000000       0.031
   0.50000000  0.00000000  0.00000000       0.031
   0.00000000  0.50000000  0.00000000       0.016
   0.25000000  0.12500000  0.00000000       0.031
   0.12500000  0.25000000  0.00000000       0.062
   0.37500000  0.12500000  0.00000000       0.062
   0.25000000  0.37500000  0.00000000       0.062
  -0.12500000  0.25000000  0.00000000       0.062
   0.50000000  0.12500000  0.00000000       0.062
   0.37500000  0.50000000  0.00000000       0.062
  -0.12500000  0.37500000  0.00000000       0.062
   0.50000000  0.25000000  0.00000000       0.031
   0.25000000  0.50000000  0.00000000       0.062
  -0.37500000  0.25000000  0.00000000       0.062
  -0.25000000  0.37500000  0.00000000       0.031
 
 position of ions in fractional coordinates (direct lattice) 
   0.00000000  0.00000000  0.21682110
   0.33333331  0.00000000  0.21682110
   0.66666663  0.00000000  0.21682110
   0.00000000  0.33333334  0.21682110
   0.33333331  0.33333334  0.21682110
   0.66666669  0.33333334  0.21682110
   0.00000000  0.66666669  0.21682110
   0.33333331  0.66666669  0.21682110
   0.66666663  0.66666669  0.21682110
   0.11111110  0.11111111  0.31503597
   0.44444445  0.11111111  0.31503597
   0.77777779  0.11111111  0.31503597
   0.11111110  0.44444445  0.31503597
   0.44444442  0.44444445  0.31503597
   0.77777779  0.44444445  0.31503597
   0.11111110  0.77777779  0.31503597
   0.44444445  0.77777779  0.31503597
   0.77777779  0.77777779  0.31503597
   0.88889703  0.22220596  0.41286780
   0.22189450  0.22189452  0.41183279
   0.55621093  0.22189452  0.41183279
   0.88858028  0.55570989  0.41325712
   0.22189452  0.55621099  0.41183279
   0.55570989  0.55570989  0.41325712
   0.88889703  0.88889703  0.41286780
   0.22220593  0.88889703  0.41286780
   0.55570983  0.88858028  0.41325712
   0.00000000  0.00000000  0.51133647
   0.33342802  0.00272427  0.51290211
   0.66384765  0.00272427  0.51290211
   0.00272427  0.33342805  0.51290211
   0.66384771  0.33342805  0.51290211
   0.00272427  0.66384771  0.51290211
   0.33342802  0.66384771  0.51290211
   0.66666663  0.66666669  0.51221068
   0.33333331  0.33333334  0.50628227
   0.24326376  0.34124066  0.58181888
   0.41549555  0.34124066  0.58181888
 
 position of ions in cartesian coordinates  (Angst):
   0.00000000  0.00000000  5.28218814
   2.93045535  0.00000000  5.28218814
   5.86091070  0.00000000  5.28218814
   1.46522781  2.53784900  5.28218814
   4.39568315  2.53784900  5.28218814
   7.32613904  2.53784900  5.28218814
   2.93045562  5.07569801  5.28218814
   5.86091096  5.07569801  5.28218814
   8.79136632  5.07569801  5.28218814
   1.46522770  0.84594965  7.67489535
   4.39568332  0.84594965  7.67489535
   7.32613893  0.84594965  7.67489535
   2.93045542  3.38379860  7.67489535
   5.86091083  3.38379860  7.67489535
   8.79136671  3.38379860  7.67489535
   4.39568328  5.92164760  7.67489535
   7.32613890  5.92164760  7.67489535
  10.25659451  5.92164760  7.67489535
   8.79136665  1.69177544 10.05827089
   2.92613395  1.68940430 10.03305614
   5.86523223  1.68940430 10.03305614
  10.25455965  4.23092325 10.06775557
   4.39568342  4.23473842 10.03305614
   7.32817403  4.23092325 10.06775557
  11.72192946  6.76765913 10.05827089
   5.86080357  6.76765913 10.05827089
   8.79136631  6.76524754 10.06775557
   0.00000000  0.00000000 12.45716136
   2.94326298  0.02074138 12.49530329
   5.84810307  0.02074138 12.49530329
   1.48959418  2.53857005 12.49530329
   7.30177266  2.53857005 12.49530329
   2.94201436  5.05423559 12.49530329
   5.84935222  5.05423559 12.49530329
   8.79136632  5.07569801 12.47845876
   4.39568315  2.53784900 12.33403106
   3.63860677  2.59805172 14.17425129
   5.15275954  2.59805172 14.17425129
 


--------------------------------------------------------------------------------------------------------


 k-point   1 :   0.0000 0.0000 0.0000  plane waves:   41267
 k-point   2 :   0.1250 0.0000 0.0000  plane waves:   41346
 k-point   3 :   0.0000 0.1250 0.0000  plane waves:   41346
 k-point   4 :   0.2500 0.0000 0.0000  plane waves:   41360
 k-point   5 :   0.0000 0.2500 0.0000  plane waves:   41360
 k-point   6 :   0.3750-0.0000 0.0000  plane waves:   41412
 k-point   7 :   0.0000 0.3750 0.0000  plane waves:   41412
 k-point   8 :   0.5000 0.0000 0.0000  plane waves:   41412
 k-point   9 :   0.0000 0.5000 0.0000  plane waves:   41412
 k-point  10 :   0.2500 0.1250 0.0000  plane waves:   41336
 k-point  11 :   0.1250 0.2500 0.0000  plane waves:   41336
 k-point  12 :   0.3750 0.1250 0.0000  plane waves:   41420
 k-point  13 :   0.2500 0.3750 0.0000  plane waves:   41420
 k-point  14 :  -0.1250 0.2500 0.0000  plane waves:   41420
 k-point  15 :   0.5000 0.1250 0.0000  plane waves:   41406
 k-point  16 :   0.3750 0.5000 0.0000  plane waves:   41406
 k-point  17 :  -0.1250 0.3750 0.0000  plane waves:   41406
 k-point  18 :   0.5000 0.2500 0.0000  plane waves:   41444
 k-point  19 :   0.2500 0.5000 0.0000  plane waves:   41444
 k-point  20 :  -0.3750 0.2500 0.0000  plane waves:   41438
 k-point  21 :  -0.2500 0.3750 0.0000  plane waves:   41438

 maximum and minimum number of plane-waves per node :     41444    41267

 maximum number of plane-waves:     41444
 maximum index in each direction: 
   IXMAX=   16   IYMAX=   16   IZMAX=   44
   IXMIN=  -16   IYMIN=  -16   IZMIN=  -44


 serial   3D FFT for wavefunctions
 parallel 3D FFT for charge:
    minimum data exchange during FFTs selected (reduces bandwidth)


 total amount of memory used by VASP MPI-rank0   198936. kBytes
=======================================================================

   base      :      30000. kBytes
   nonlr-proj:      16250. kBytes
   fftplans  :       4808. kBytes
   grid      :      19857. kBytes
   one-center:        590. kBytes
   wavefun   :     127431. kBytes
 
     INWAV:  cpu time    0.0000: real time    0.0001
 initial charge density was supplied:
 number of electron     401.0000134 magnetization 
 keeping initial charge density in first step


--------------------------------------------------------------------------------------------------------


 Maximum index for non-local projection operator         3673
 Maximum index for augmentation-charges          719 (set IRDMAX)


--------------------------------------------------------------------------------------------------------


 First call to EWALD:  gamma=   0.151
 Maximum number of real-space cells 4x 4x 2
 Maximum number of reciprocal cells 2x 2x 5

    FEWALD:  cpu time    0.0013: real time    0.0014


--------------------------------------- Iteration      1(   1)  ---------------------------------------


    POTLOK:  cpu time    0.0486: real time    0.0491
    SETDIJ:  cpu time    0.0048: real time    0.0050
     EDDAV:  cpu time   16.3810: real time   16.3822
 BZINTS: Fermi energy:    9.127396;  401.000000 electrons
         Band energy: 0.961808E+03;  BLOECHL correction:   -0.014998
       DOS:  cpu time    0.0279: real time    0.0279
    --------------------------------------------
      LOOP:  cpu time   16.4623: real time   16.4642

 eigenvalue-minimisations  : 10584
 total energy-change (2. order) : 0.2461257E+04  (-0.1831273E+05)
 number of electron     401.0000134 magnetization 
 augmentation part      401.0000134 magnetization 

 Free energy of the ion-electron system (eV)
  ---------------------------------------------------
  alpha Z        PSCENC =       697.23346006
  Ewald energy   TEWEN  =    127816.05575568
  -Hartree energ DENC   =   -165462.29515139
  -exchange      EXHF   =         0.00000000
  -V(xc)+E(xc)   XCENC  =      -385.45832282
  PAW double counting   =     39753.30975887   -38164.18981098
  entropy T*S    EENTRO =         0.00000000
  eigenvalues    EBANDS =       961.80758868
  atomic energy  EATOM  =     37244.79404885
  Solvation  Ediel_sol  =         0.00000000
  ---------------------------------------------------
  free energy    TOTEN  =      2461.25732694 eV

  energy without entropy =     2461.25732694  energy(sigma->0) =     2461.25732694


--------------------------------------------------------------------------------------------------------




--------------------------------------- Iteration      1(   2)  ---------------------------------------


     EDDAV:  cpu time   17.0737: real time   17.0738
 BZINTS: Fermi energy:    0.980836;  401.000000 electrons
         Band energy:-0.150507E+04;  BLOECHL correction:   -0.035885
       DOS:  cpu time    0.0290: real time    0.0290
    --------------------------------------------
      LOOP:  cpu time   17.1026: real time   17.1027

 eigenvalue-minimisations  : 11172
 total energy-change (2. order) :-0.2466880E+04  (-0.2357265E+04)
 number of electron     401.0000134 magnetization 
 augmentation part      401.0000134 magnetization 

 Free energy of the ion-electron system (eV)
  ---------------------------------------------------
  alpha Z        PSCENC =       697.23346006
  Ewald energy   TEWEN  =    127816.05575568
  -Hartree energ DENC   =   -165462.29515139
  -exchange      EXHF   =         0.00000000
  -V(xc)+E(xc)   XCENC  =      -385.45832282
  PAW double counting   =     39753.30975887   -38164.18981098
  entropy T*S    EENTRO =         0.00000000
  eigenvalues    EBANDS =     -1505.07221313
  atomic energy  EATOM  =     37244.79404885
  Solvation  Ediel_sol  =         0.00000000
  ---------------------------------------------------
  free energy    TOTEN  =        -5.62247486 eV

  energy without entropy =       -5.62247486  energy(sigma->0) =       -5.62247486


--------------------------------------------------------------------------------------------------------




--------------------------------------- Iteration      1(   3)  ---------------------------------------


     EDDAV:  cpu time   18.7929: real time   18.7929
 BZINTS: Fermi energy:    0.327876;  401.000000 electrons
         Band energy:-0.160832E+04;  BLOECHL correction:   -0.068561
       DOS:  cpu time    0.0292: real time    0.0292
    --------------------------------------------
      LOOP:  cpu time   18.8222: real time   18.8221

 eigenvalue-minimisations  : 12544
 total energy-change (2. order) :-0.1032457E+03  (-0.1008334E+03)
 number of electron     401.0000134 magnetization 
 augmentation part      401.0000134 magnetization 

 Free energy of the ion-electron system (eV)
  ---------------------------------------------------
  alpha Z        PSCENC =       697.23346006
  Ewald energy   TEWEN  =    127816.05575568
  -Hartree energ DENC   =   -165462.29515139
  -exchange      EXHF   =         0.00000000
  -V(xc)+E(xc)   XCENC  =      -385.45832282
  PAW double counting   =     39753.30975887   -38164.18981098
  entropy T*S    EENTRO =         0.00000000
  eigenvalues    EBANDS =     -1608.31793649
  atomic energy  EATOM  =     37244.79404885
  Solvation  Ediel_sol  =         0.00000000
  ---------------------------------------------------
  free energy    TOTEN  =      -108.86819822 eV

  energy without entropy =     -108.86819822  energy(sigma->0) =     -108.86819822


--------------------------------------------------------------------------------------------------------




--------------------------------------- Iteration      1(   4)  ---------------------------------------


     EDDAV:  cpu time   18.9481: real time   18.9480
 BZINTS: Fermi energy:    0.305570;  401.000000 electrons
         Band energy:-0.161063E+04;  BLOECHL correction:   -0.066197
       DOS:  cpu time    0.0300: real time    0.0300
    --------------------------------------------
      LOOP:  cpu time   18.9781: real time   18.9780

 eigenvalue-minimisations  : 12656
 total energy-change (2. order) :-0.2313387E+01  (-0.2285676E+01)
 number of electron     401.0000134 magnetization 
 augmentation part      401.0000134 magnetization 

 Free energy of the ion-electron system (eV)
  ---------------------------------------------------
  alpha Z        PSCENC =       697.23346006
  Ewald energy   TEWEN  =    127816.05575568
  -Hartree energ DENC   =   -165462.29515139
  -exchange      EXHF   =         0.00000000
  -V(xc)+E(xc)   XCENC  =      -385.45832282
  PAW double counting   =     39753.30975887   -38164.18981098
  entropy T*S    EENTRO =         0.00000000
  eigenvalues    EBANDS =     -1610.63132345
  atomic energy  EATOM  =     37244.79404885
  Solvation  Ediel_sol  =         0.00000000
  ---------------------------------------------------
  free energy    TOTEN  =      -111.18158518 eV

  energy without entropy =     -111.18158518  energy(sigma->0) =     -111.18158518


--------------------------------------------------------------------------------------------------------




--------------------------------------- Iteration      1(   5)  ---------------------------------------


     EDDAV:  cpu time   18.0764: real time   18.0766
 BZINTS: Fermi energy:    0.305360;  401.000000 electrons
         Band energy:-0.161068E+04;  BLOECHL correction:   -0.066170
       DOS:  cpu time    0.0281: real time    0.0281
    --------------------------------------------
      LOOP:  cpu time   18.1046: real time   18.1047

 eigenvalue-minimisations  : 11984
 total energy-change (2. order) :-0.4803197E-01  (-0.4803860E-01)
 number of electron     401.0000134 magnetization 
 augmentation part      401.0000134 magnetization 

 Free energy of the ion-electron system (eV)
  ---------------------------------------------------
  alpha Z        PSCENC =       697.23346006
  Ewald energy   TEWEN  =    127816.05575568
  -Hartree energ DENC   =   -165462.29515139
  -exchange      EXHF   =         0.00000000
  -V(xc)+E(xc)   XCENC  =      -385.45832282
  PAW double counting   =     39753.30975887   -38164.18981098
  entropy T*S    EENTRO =         0.00000000
  eigenvalues    EBANDS =     -1610.67935542
  atomic energy  EATOM  =     37244.79404885
  Solvation  Ediel_sol  =         0.00000000
  ---------------------------------------------------
  free energy    TOTEN  =      -111.22961715 eV

  energy without entropy =     -111.22961715  energy(sigma->0) =     -111.22961715


--------------------------------------------------------------------------------------------------------




--------------------------------------- Iteration      1(   6)  ---------------------------------------


    EDDIAG:  cpu time    3.2316: real time    3.2320
  RMM-DIIS:  cpu time    9.8739: real time    9.8738
    ORTHCH:  cpu time    0.5923: real time    0.5923
 BZINTS: Fermi energy:    0.305358;  401.000000 electrons
         Band energy:-0.161068E+04;  BLOECHL correction:   -0.066169
       DOS:  cpu time    0.0294: real time    0.0294
    --------------------------------------------
      LOOP:  cpu time   13.7272: real time   13.7276

 eigenvalue-minimisations  : 11018
 total energy-change (2. order) :-0.1218958E-02  (-0.1219154E-02)
 number of electron     401.0000134 magnetization 
 augmentation part      401.0000134 magnetization 

 Free energy of the ion-electron system (eV)
  ---------------------------------------------------
  alpha Z        PSCENC =       697.23346006
  Ewald energy   TEWEN  =    127816.05575568
  -Hartree energ DENC   =   -165462.29515139
  -exchange      EXHF   =         0.00000000
  -V(xc)+E(xc)   XCENC  =      -385.45832282
  PAW double counting   =     39753.30975887   -38164.18981098
  entropy T*S    EENTRO =         0.00000000
  eigenvalues    EBANDS =     -1610.68057437
  atomic energy  EATOM  =     37244.79404885
  Solvation  Ediel_sol  =         0.00000000
  ---------------------------------------------------
  free energy    TOTEN  =      -111.23083611 eV

  energy without entropy =     -111.23083611  energy(sigma->0) =     -111.23083611


--------------------------------------------------------------------------------------------------------




--------------------------------------- Iteration      1(   7)  ---------------------------------------


    EDDIAG:  cpu time    3.2303: real time    3.2305
  RMM-DIIS:  cpu time   13.6801: real time   13.6800
    ORTHCH:  cpu time    0.5913: real time    0.5913
 BZINTS: Fermi energy:    0.305357;  401.000000 electrons
         Band energy:-0.161068E+04;  BLOECHL correction:   -0.066169
       DOS:  cpu time    0.0301: real time    0.0301
    --------------------------------------------
      LOOP:  cpu time   17.5318: real time   17.5319

 eigenvalue-minimisations  : 15886
 total energy-change (2. order) :-0.4425296E-03  (-0.4421964E-03)
 number of electron     401.0000134 magnetization 
 augmentation part      401.0000134 magnetization 

 Free energy of the ion-electron system (eV)
  ---------------------------------------------------
  alpha Z        PSCENC =       697.23346006
  Ewald energy   TEWEN  =    127816.05575568
  -Hartree energ DENC   =   -165462.29515139
  -exchange      EXHF   =         0.00000000
  -V(xc)+E(xc)   XCENC  =      -385.45832282
  PAW double counting   =     39753.30975887   -38164.18981098
  entropy T*S    EENTRO =         0.00000000
  eigenvalues    EBANDS =     -1610.68101690
  atomic energy  EATOM  =     37244.79404885
  Solvation  Ediel_sol  =         0.00000000
  ---------------------------------------------------
  free energy    TOTEN  =      -111.23127864 eV

  energy without entropy =     -111.23127864  energy(sigma->0) =     -111.23127864


--------------------------------------------------------------------------------------------------------




--------------------------------------- Iteration      1(   8)  ---------------------------------------


    EDDIAG:  cpu time    3.2331: real time    3.2332
  RMM-DIIS:  cpu time   10.1420: real time   10.1419
    ORTHCH:  cpu time    0.5922: real time    0.5922
 BZINTS: Fermi energy:    0.305357;  401.000000 electrons
         Band energy:-0.161068E+04;  BLOECHL correction:   -0.066169
       DOS:  cpu time    0.0294: real time    0.0294
    --------------------------------------------
      LOOP:  cpu time   13.9967: real time   13.9968

 eigenvalue-minimisations  : 11364
 total energy-change (2. order) :-0.1494365E-04  (-0.1523458E-04)
 number of electron     401.0000134 magnetization 
 augmentation part      401.0000134 magnetization 

 Free energy of the ion-electron system (eV)
  ---------------------------------------------------
  alpha Z        PSCENC =       697.23346006
  Ewald energy   TEWEN  =    127816.05575568
  -Hartree energ DENC   =   -165462.29515139
  -exchange      EXHF   =         0.00000000
  -V(xc)+E(xc)   XCENC  =      -385.45832282
  PAW double counting   =     39753.30975887   -38164.18981098
  entropy T*S    EENTRO =         0.00000000
  eigenvalues    EBANDS =     -1610.68103185
  atomic energy  EATOM  =     37244.79404885
  Solvation  Ediel_sol  =         0.00000000
  ---------------------------------------------------
  free energy    TOTEN  =      -111.23129358 eV

  energy without entropy =     -111.23129358  energy(sigma->0) =     -111.23129358


--------------------------------------------------------------------------------------------------------




--------------------------------------- Iteration      1(   9)  ---------------------------------------


    EDDIAG:  cpu time    3.2352: real time    3.2352
  RMM-DIIS:  cpu time    8.2589: real time    8.2589
    ORTHCH:  cpu time    0.5923: real time    0.5923
 BZINTS: Fermi energy:    0.305357;  401.000000 electrons
         Band energy:-0.161068E+04;  BLOECHL correction:   -0.066169
       DOS:  cpu time    0.0281: real time    0.0281
    --------------------------------------------
      LOOP:  cpu time   12.1145: real time   12.1144

 eigenvalue-minimisations  :  8293
 total energy-change (2. order) :-0.3390829E-05  (-0.3437415E-05)
 number of electron     401.0000134 magnetization 
 augmentation part      401.0000134 magnetization 

 Free energy of the ion-electron system (eV)
  ---------------------------------------------------
  alpha Z        PSCENC =       697.23346006
  Ewald energy   TEWEN  =    127816.05575568
  -Hartree energ DENC   =   -165462.29515139
  -exchange      EXHF   =         0.00000000
  -V(xc)+E(xc)   XCENC  =      -385.45832282
  PAW double counting   =     39753.30975887   -38164.18981098
  entropy T*S    EENTRO =         0.00000000
  eigenvalues    EBANDS =     -1610.68103524
  atomic energy  EATOM  =     37244.79404885
  Solvation  Ediel_sol  =         0.00000000
  ---------------------------------------------------
  free energy    TOTEN  =      -111.23129697 eV

  energy without entropy =     -111.23129697  energy(sigma->0) =     -111.23129697


--------------------------------------------------------------------------------------------------------




 average (electrostatic) potential at core
  the test charge radii are     1.1249  1.2481  0.7215
  (the norm of the test charge is              1.0000)
       1 -78.5878       2 -78.5860       3 -78.5859       4 -78.5915       5 -78.6056
       6 -78.5913       7 -78.5911       8 -78.5909       9 -78.5944      10 -78.8389
      11 -78.8429      12 -78.8387      13 -78.8456      14 -78.8455      15 -78.8267
      16 -78.8461      17 -78.8183      18 -78.8183      19 -78.8396      20 -79.1714
      21 -79.1714      22 -78.8241      23 -79.1693      24 -78.8242      25 -78.8216
      26 -78.8216      27 -78.8068      28 -78.6260      29 -78.8104      30 -78.8105
      31 -78.8199      32 -78.8199      33 -78.8134      34 -78.8133      35 -78.6036
      36 -41.6427      37 -76.5135      38 -76.5138
 
 
 
 E-fermi :   0.3054     XC(G=0):  -5.4814     alpha+bet : -5.1869

 Fermi energy:         0.3053570110

 k-point     1 :       0.0000    0.0000    0.0000
  band No.  band energies     occupation 
      1     -21.5663      2.00000
      2     -15.6741      2.00000
      3      -6.9934      2.00000
      4      -6.6526      2.00000
      5      -6.0538      2.00000
      6      -5.8529      2.00000
      7      -5.6997      2.00000
      8      -5.6607      2.00000
      9      -5.6399      2.00000
     10      -5.6198      2.00000
     11      -5.6001      2.00000
     12      -5.5975      2.00000
     13      -5.5780      2.00000
     14      -5.5563      2.00000
     15      -5.5525      2.00000
     16      -5.5520      2.00000
     17      -5.5362      2.00000
     18      -5.5336      2.00000
     19      -5.5276      2.00000
     20      -5.4828      2.00000
     21      -5.4381      2.00000
     22      -5.4356      2.00000
     23      -5.3826      2.00000
     24      -5.3702      2.00000
     25      -5.3629      2.00000
     26      -5.3199      2.00000
     27      -5.2808      2.00000
     28      -5.2453      2.00000
     29      -5.2150      2.00000
     30      -5.2072      2.00000
     31      -5.2063      2.00000
     32      -5.1815      2.00000
     33      -5.1697      2.00000
     34      -5.1525      2.00000
     35      -5.1430      2.00000
     36      -5.1344      2.00000
     37      -5.1234      2.00000
     38      -5.1199      2.00000
     39      -5.1135      2.00000
     40      -5.0524      2.00000
     41      -5.0514      2.00000
     42      -5.0398      2.00000
     43      -5.0372      2.00000
     44      -5.0261      2.00000
     45      -4.8815      2.00000
     46      -4.8374      2.00000
     47      -4.8280      2.00000
     48      -4.8009      2.00000
     49      -4.7891      2.00000
     50      -4.7870      2.00000
     51      -4.7846      2.00000
     52      -4.7767      2.00000
     53      -4.7668      2.00000
     54      -4.7485      2.00000
     55      -4.7156      2.00000
     56      -4.6472      2.00000
     57      -4.6180      2.00000
     58      -4.6017      2.00000
     59      -4.5806      2.00000
     60      -4.4813      2.00000
     61      -4.4790      2.00000
     62      -4.4689      2.00000
     63      -4.4333      2.00000
     64      -4.4325      2.00000
     65      -4.4186      2.00000
     66      -4.4086      2.00000
     67      -4.4082      2.00000
     68      -4.3958      2.00000
     69      -4.3484      2.00000
     70      -4.3466      2.00000
     71      -4.2820      2.00000
     72      -4.2722      2.00000
     73      -4.2678      2.00000
     74      -4.2651      2.00000
     75      -4.2566      2.00000
     76      -4.2540      2.00000
     77      -4.2530      2.00000
     78      -4.2472      2.00000
     79      -4.2308      2.00000
     80      -4.2271      2.00000
     81      -4.2223      2.00000
     82      -4.2113      2.00000
     83      -4.2073      2.00000
     84      -4.1844      2.00000
     85      -4.1823      2.00000
     86      -4.1772      2.00000
     87      -4.1307      2.00000
     88      -4.1306      2.00000
     89      -4.1125      2.00000
     90      -4.0862      2.00000
     91      -4.0525      2.00000
     92      -4.0501      2.00000
     93      -4.0454      2.00000
     94      -4.0426      2.00000
     95      -4.0255      2.00000
     96      -4.0239      2.00000
     97      -3.9951      2.00000
     98      -3.9264      2.00000
     99      -3.8948      2.00000
    100      -3.8947      2.00000
    101      -3.8845      2.00000
    102      -3.8794      2.00000
    103      -3.8645      2.00000
    104      -3.7975      2.00000
    105      -3.7500      2.00000
    106      -3.7322      2.00000
    107      -3.7261      2.00000
    108      -3.7097      2.00000
    109      -3.6884      2.00000
    110      -3.6842      2.00000
    111      -3.6780      2.00000
    112      -3.6457      2.00000
    113      -3.6454      2.00000
    114      -3.6301      2.00000
    115      -3.6038      2.00000
    116      -3.5873      2.00000
    117      -3.5677      2.00000
    118      -3.5561      2.00000
    119      -3.4982      2.00000
    120      -3.4944      2.00000
    121      -3.4661      2.00000
    122      -3.4518      2.00000
    123      -3.4434      2.00000
    124      -3.3920      2.00000
    125      -3.3795      2.00000
    126      -3.3782      2.00000
    127      -3.3642      2.00000
    128      -3.3514      2.00000
    129      -3.3341      2.00000
    130      -3.3335      2.00000
    131      -3.3258      2.00000
    132      -3.3250      2.00000
    133      -3.3091      2.00000
    134      -3.3084      2.00000
    135      -3.3071      2.00000
    136      -3.3044      2.00000
    137      -3.2763      2.00000
    138      -3.2359      2.00000
    139      -3.2153      2.00000
    140      -3.2104      2.00000
    141      -3.1876      2.00000
    142      -3.1837      2.00000
    143      -3.1561      2.00000
    144      -3.1354      2.00000
    145      -3.1310      2.00000
    146      -3.1238      2.00000
    147      -3.1224      2.00000
    148      -3.0973      2.00000
    149      -3.0950      2.00000
    150      -3.0667      2.00000
    151      -3.0631      2.00000
    152      -3.0626      2.00000
    153      -3.0598      2.00000
    154      -3.0537      2.00000
    155      -3.0279      2.00000
    156      -3.0238      2.00000
    157      -3.0201      2.00000
    158      -2.9994      2.00000
    159      -2.9993      2.00000
    160      -2.9782      2.00000
    161      -2.9763      2.00000
    162      -2.9711      2.00000
    163      -2.9344      2.00000
    164      -2.9072      2.00000
    165      -2.9000      2.00000
    166      -2.8860      2.00000
    167      -2.8809      2.00000
    168      -2.8772      2.00000
    169      -2.8768      2.00000
    170      -2.8699      2.00000
    171      -2.8682      2.00000
    172      -2.8680      2.00000
    173      -2.8655      2.00000
    174      -2.8204      2.00000
    175      -2.8198      2.00000
    176      -2.7968      2.00000
    177      -2.7951      2.00000
    178      -2.7353      2.00000
    179      -2.7320      2.00000
    180      -2.7295      2.00000
    181      -2.7057      2.00000
    182      -2.7053      2.00000
    183      -2.7021      2.00000
    184      -2.6491      2.00000
    185      -2.6178      2.00000
    186      -2.6143      2.00000
    187      -2.6125      2.00000
    188      -2.5959      2.00000
    189      -2.5564      2.00000
    190      -2.3261      2.00000
    191      -1.9164      2.00000
    192      -1.8655      2.00000
    193      -1.8454      2.00000
    194      -1.8260      2.00000
    195      -1.8033      2.00000
    196      -1.6677      2.00000
    197      -1.2826      2.00000
    198      -0.5135      2.00000
    199      -0.2673      2.00000
    200      -0.1263      2.00000
    201      -0.1110      2.00000
    202      -0.0851      2.00000
    203      -0.0595      2.00000
    204      -0.0230      1.98145
    205       0.7676      0.00000
    206       1.4432      0.00000
    207       1.6748      0.00000
    208       1.6791      0.00000
    209       1.7801      0.00000
    210       1.8718      0.00000
    211       2.1280      0.00000
    212       2.1443      0.00000
    213       2.1887      0.00000
    214       2.9235      0.00000
    215       3.1445      0.00000
    216       3.4140      0.00000
    217       3.5144      0.00000
    218       3.5744      0.00000
    219       3.7835      0.00000
    220       3.7982      0.00000
    221       3.9388      0.00000
    222       4.1385      0.00000
    223       4.1959      0.00000
    224       4.5304      0.00000
    225       4.5327      0.00000
    226       4.5817      0.00000
    227       4.6022      0.00000
    228       4.6367      0.00000
    229       4.6866      0.00000
    230       4.8126      0.00000
    231       4.8370      0.00000
    232       4.9586      0.00000
    233       5.0364      0.00000
    234       5.0808      0.00000
    235       5.0977      0.00000
    236       5.7446      0.00000
    237       5.7766      0.00000
    238       5.9283      0.00000
    239       6.0283      0.00000
    240       6.1666      0.00000
    241       6.1756      0.00000
    242       6.2649      0.00000
    243       6.3460      0.00000
    244       6.3815      0.00000
    245       6.5585      0.00000
    246       6.5742      0.00000
    247       6.6398      0.00000
    248       6.6494      0.00000
    249       6.6756      0.00000
    250       6.7918      0.00000
    251       6.8183      0.00000
    252       6.8752      0.00000

 k-point     2 :       0.1250    0.0000    0.0000
  band No.  band energies     occupation 
      1     -21.5663      2.00000
      2     -15.6741      2.00000
      3      -6.9554      2.00000
      4      -6.6332      2.00000
      5      -6.0269      2.00000
      6      -5.8393      2.00000
      7      -5.6973      2.00000
      8      -5.6657      2.00000
      9      -5.6450      2.00000
     10      -5.6249      2.00000
     11      -5.6097      2.00000
     12      -5.5843      2.00000
     13      -5.5785      2.00000
     14      -5.5541      2.00000
     15      -5.5403      2.00000
     16      -5.5278      2.00000
     17      -5.5108      2.00000
     18      -5.4974      2.00000
     19      -5.4832      2.00000
     20      -5.4792      2.00000
     21      -5.4704      2.00000
     22      -5.4447      2.00000
     23      -5.3737      2.00000
     24      -5.3551      2.00000
     25      -5.3196      2.00000
     26      -5.2992      2.00000
     27      -5.2712      2.00000
     28      -5.2613      2.00000
     29      -5.2482      2.00000
     30      -5.2397      2.00000
     31      -5.2177      2.00000
     32      -5.1955      2.00000
     33      -5.1638      2.00000
     34      -5.1479      2.00000
     35      -5.1300      2.00000
     36      -5.1266      2.00000
     37      -5.1123      2.00000
     38      -5.0920      2.00000
     39      -5.0623      2.00000
     40      -5.0492      2.00000
     41      -5.0460      2.00000
     42      -5.0142      2.00000
     43      -4.9653      2.00000
     44      -4.9556      2.00000
     45      -4.8967      2.00000
     46      -4.8867      2.00000
     47      -4.8740      2.00000
     48      -4.8419      2.00000
     49      -4.8271      2.00000
     50      -4.8126      2.00000
     51      -4.8048      2.00000
     52      -4.7761      2.00000
     53      -4.7425      2.00000
     54      -4.7303      2.00000
     55      -4.6992      2.00000
     56      -4.6278      2.00000
     57      -4.6124      2.00000
     58      -4.6100      2.00000
     59      -4.5866      2.00000
     60      -4.4959      2.00000
     61      -4.4905      2.00000
     62      -4.4750      2.00000
     63      -4.4619      2.00000
     64      -4.4342      2.00000
     65      -4.4293      2.00000
     66      -4.4101      2.00000
     67      -4.4025      2.00000
     68      -4.3943      2.00000
     69      -4.3780      2.00000
     70      -4.3428      2.00000
     71      -4.3192      2.00000
     72      -4.3132      2.00000
     73      -4.2952      2.00000
     74      -4.2868      2.00000
     75      -4.2763      2.00000
     76      -4.2549      2.00000
     77      -4.2507      2.00000
[...]
  0.000   0.000   0.000   0.000   0.000   0.000   0.000   0.000   0.000   0.000   0.000   0.000   0.000   0.000   0.000   0.000
  0.000   0.000   0.000   0.000   0.000   0.000   0.000   0.000   0.000   0.000   0.000   0.000   0.000   0.000   0.000   0.000
  0.000   0.000   0.000   0.000   0.000   0.000   0.000   0.000   0.000   0.000   1.000   0.000   0.000   0.000   0.000   0.000
  0.000   0.000   0.000   0.000   0.000   0.000   0.000   0.000   0.000   0.000   0.000   0.000   0.000   0.000   0.000   0.000
  0.000   0.000   0.000   0.000   0.000   0.000   0.000   0.000   0.000   0.000   0.000   0.000   0.000   0.000   0.000   0.000
  0.000   0.000   0.000   0.000   0.000   0.000   0.000   0.000   0.000   0.000   0.000   0.000   0.000   0.000   0.000   0.000
  0.000   0.000   0.000   0.000   0.000   0.000   0.000   0.000   0.000   0.000   0.000   0.000   0.000   0.000   0.000   0.000
  0.000   0.000   0.000   0.000   0.000   0.000   0.000   0.000   0.000   0.000   0.000   0.000   0.000   0.000   0.000   0.000
  0.000   0.000   0.000   0.000   0.000   0.000   0.000   0.000   0.000   0.000   0.000   0.000   0.000   0.000   0.000   0.000
  0.000   0.000   0.000   0.000   0.000   0.000   0.000   0.000   0.000   0.000   0.000   0.000   0.000   0.000   0.000   0.000


------------------------ aborting loop because EDIFF is reached ----------------------------------------





 total charge

# of ion       s       p       d       tot
------------------------------------------
    1        0.419   0.202   9.175   9.797
    2        0.414   0.204   9.176   9.794
    3        0.414   0.204   9.176   9.794
    4        0.414   0.204   9.177   9.795
    5        0.416   0.202   9.177   9.795
    6        0.414   0.204   9.177   9.795
    7        0.414   0.204   9.177   9.794
    8        0.414   0.204   9.177   9.794
    9        0.414   0.203   9.177   9.795
   10        0.408   0.269   9.164   9.841
   11        0.403   0.271   9.166   9.840
   12        0.408   0.269   9.164   9.841
   13        0.404   0.270   9.166   9.840
   14        0.404   0.270   9.166   9.840
   15        0.402   0.269   9.164   9.835
   16        0.408   0.270   9.162   9.840
   17        0.402   0.270   9.163   9.835
   18        0.402   0.270   9.163   9.835
   19        0.400   0.266   9.167   9.832
   20        0.436   0.302   9.137   9.875
   21        0.436   0.302   9.137   9.875
   22        0.396   0.272   9.163   9.831
   23        0.437   0.300   9.138   9.875
   24        0.396   0.272   9.163   9.831
   25        0.405   0.265   9.166   9.835
   26        0.405   0.265   9.166   9.835
   27        0.397   0.271   9.164   9.832
   28        0.415   0.203   9.173   9.791
   29        0.437   0.217   9.161   9.815
   30        0.437   0.217   9.161   9.815
   31        0.438   0.205   9.171   9.815
   32        0.438   0.205   9.171   9.815
   33        0.433   0.216   9.164   9.813
   34        0.433   0.216   9.164   9.813
   35        0.416   0.202   9.172   9.791
   36        0.587   0.644   2.183   3.414
   37        1.611   3.250   0.000   4.860
   38        1.611   3.250   0.000   4.860
--------------------------------------------------
tot         18.339  15.599 322.987 356.925
 
    CHARGE:  cpu time    0.7886: real time    0.7887
    FORLOC:  cpu time    0.0113: real time    0.0113
    FORNL :  cpu time    3.3963: real time    3.3964
    STRESS:  cpu time   10.1923: real time   10.1925
    FORCOR:  cpu time    0.0488: real time    0.0488
    FORHAR:  cpu time    0.0186: real time    0.0186
    OFIELD:  cpu time    0.0003: real time    0.0003

  FORCE on cell =-STRESS in cart. coord.  units (eV):
  Direction    XX          YY          ZZ          XY          YZ          ZX
  --------------------------------------------------------------------------------------
  Alpha Z   697.23346   697.23346   697.23346
  Ewald  150603.54467150269.12662************     0.00003    -7.66983     0.00007
  Hartree160494.60653160330.70719************     0.00001    -9.77784     0.00002
  E(xc)   -2104.28866 -2104.43273 -2112.16076    -0.00003    -0.07524     0.00000
  Local  ************************321854.57039     0.00106    17.70249    -0.00018
  n-local  -349.33472  -355.33131  -356.72294     2.21297     0.08785     0.07276
  augment  3228.27427  3232.94210  3246.24969    -0.00017     0.03137     0.00004
  Kinetic  5033.06560  5077.19280  5096.81618     0.77283    -0.31149    -0.02798
  Fock        0.00000     0.00000     0.00000     0.00000     0.00000     0.00000
  -------------------------------------------------------------------------------------
  Total      -4.39025    -4.62414    -0.51343    -0.00000    -0.01270    -0.00000
  in kB      -4.31364    -4.54345    -0.50447    -0.00000    -0.01247    -0.00000
  external pressure =       -3.12 kB  Pullay stress =        0.00 kB


 VOLUME and BASIS-vectors are now :
 -----------------------------------------------------------------------------
  energy-cutoff  :      500.00
  volume of cell :     1630.63
      direct lattice vectors                 reciprocal lattice vectors
     8.791366577  0.000000000  0.000000000     0.113747958 -0.065672414  0.000000000
     4.395683289  7.613546790  0.000000000     0.000000000  0.131344829  0.000000000
     0.000000000  0.000000000 24.361965240     0.000000000  0.000000000  0.041047592

  length of vectors
     8.791366577  8.791366577 24.361965240     0.131344829  0.131344829  0.041047592


 FORCES acting on ions
    electron-ion (+dipol)            ewald-force                    non-local-force                 convergence-correction
 -----------------------------------------------------------------------------------------------
   0.460E-04 0.179E-01 0.268E+04   -.953E-04 -.203E-01 -.267E+04   0.364E-13 0.555E-02 -.168E+01   -.825E-04 -.616E-02 0.191E+00
   -.332E+00 -.895E-01 0.268E+04   0.248E+00 -.521E-01 -.267E+04   0.239E-01 0.988E-01 -.159E+01   0.514E-01 0.376E-01 0.123E+00
   0.332E+00 -.895E-01 0.268E+04   -.248E+00 -.520E-01 -.267E+04   -.239E-01 0.988E-01 -.159E+01   -.520E-01 0.395E-01 0.124E+00
   -.291E+00 -.196E+00 0.268E+04   0.957E-01 0.214E+00 -.267E+04   0.114E+00 -.274E-01 -.159E+01   0.707E-01 0.339E-03 0.112E+00
   -.791E-05 0.218E-01 0.268E+04   0.980E-04 -.167E-01 -.267E+04   0.117E-13 0.178E-02 -.165E+01   0.618E-02 -.106E-01 0.109E+00
   0.291E+00 -.196E+00 0.268E+04   -.959E-01 0.214E+00 -.267E+04   -.114E+00 -.274E-01 -.159E+01   -.720E-01 0.125E-02 0.113E+00
   0.113E+00 0.287E+00 0.268E+04   -.151E+00 -.161E+00 -.267E+04   0.310E-01 -.727E-01 -.164E+01   0.840E-02 -.359E-01 0.136E+00
   -.113E+00 0.287E+00 0.268E+04   0.151E+00 -.162E+00 -.267E+04   -.310E-01 -.727E-01 -.164E+01   -.680E-02 -.368E-01 0.136E+00
   0.364E-04 -.812E-01 0.268E+04   0.792E-04 0.367E-01 -.267E+04   0.707E-13 0.108E-01 -.171E+01   -.663E-02 0.365E-01 0.110E+00
   -.148E+00 0.170E+00 0.916E+03   0.397E+00 -.209E-01 -.915E+03   -.262E+00 -.124E+00 -.522E+00   -.183E-01 -.421E-01 -.150E+00
   -.262E-04 0.563E-01 0.911E+03   0.401E-04 -.214E+00 -.910E+03   0.897E-12 0.137E+00 -.336E+00   0.617E-02 -.310E-01 -.201E+00
   0.148E+00 0.170E+00 0.916E+03   -.397E+00 -.208E-01 -.915E+03   0.262E+00 -.124E+00 -.522E+00   0.170E-01 -.414E-01 -.150E+00
   -.286E+00 -.388E-01 0.911E+03   0.429E-01 0.454E-01 -.911E+03   0.194E+00 -.597E-01 -.378E+00   0.489E-02 0.771E-01 -.173E+00
   0.286E+00 -.388E-01 0.911E+03   -.427E-01 0.454E-01 -.911E+03   -.194E+00 -.597E-01 -.378E+00   0.540E-02 0.762E-01 -.175E+00
   0.154E-04 -.135E+01 0.913E+03   -.108E-03 0.136E+01 -.913E+03   -.605E-13 -.921E-02 -.588E+00   -.125E-02 0.296E-02 -.128E+00
   -.819E-05 0.620E-01 0.916E+03   0.206E-04 -.278E+00 -.915E+03   0.172E-11 0.262E+00 -.593E+00   -.985E-04 -.126E-02 -.147E+00
   -.107E+01 0.465E+00 0.913E+03   0.113E+01 -.458E+00 -.912E+03   0.170E-02 -.538E-02 -.484E+00   -.524E-01 -.454E-02 -.136E+00
   0.107E+01 0.464E+00 0.913E+03   -.113E+01 -.458E+00 -.912E+03   -.170E-02 -.538E-02 -.484E+00   0.525E-01 -.300E-02 -.135E+00
   0.387E-04 -.452E+01 -.856E+03   -.126E-03 0.425E+01 0.856E+03   0.140E-11 0.213E+00 0.110E+01   0.117E-02 0.244E-01 -.277E+00
   -.306E+02 -.155E+02 -.875E+03   0.313E+02 0.159E+02 0.875E+03   -.756E+00 -.390E+00 -.455E-01   -.157E+00 -.697E-01 -.355E+00
   0.306E+02 -.155E+02 -.875E+03   -.313E+02 0.159E+02 0.875E+03   0.756E+00 -.390E+00 -.455E-01   0.146E+00 -.703E-01 -.356E+00
   -.107E+02 0.489E+01 -.861E+03   0.107E+02 -.479E+01 0.860E+03   0.153E+00 -.156E+00 0.566E+00   -.103E+00 0.423E-01 -.280E+00
   -.463E-04 0.332E+02 -.875E+03   0.365E-04 -.341E+02 0.876E+03   0.654E-11 0.995E+00 -.104E+00   -.562E-02 0.153E+00 -.389E+00
   0.107E+02 0.489E+01 -.861E+03   -.107E+02 -.479E+01 0.860E+03   -.153E+00 -.156E+00 0.566E+00   0.105E+00 0.430E-01 -.281E+00
   0.498E+01 0.291E+01 -.858E+03   -.493E+01 -.277E+01 0.858E+03   -.624E-01 -.119E+00 0.849E+00   0.160E-01 -.148E-01 -.352E+00
   -.498E+01 0.292E+01 -.858E+03   0.493E+01 -.277E+01 0.858E+03   0.624E-01 -.119E+00 0.849E+00   -.158E-01 -.137E-01 -.352E+00
   0.188E-04 -.132E+02 -.864E+03   0.110E-03 0.131E+02 0.863E+03   0.157E-11 0.239E+00 0.767E+00   -.325E-03 -.130E+00 -.309E+00
   0.546E-04 0.437E+01 -.258E+04   -.116E-03 -.453E+01 0.257E+04   0.514E-12 0.783E-01 0.142E+01   0.411E-03 0.621E-01 -.117E+00
   -.305E+01 0.688E+01 -.255E+04   0.367E+01 -.671E+01 0.255E+04   -.766E+00 -.522E+00 0.188E+01   -.678E-02 0.514E-01 -.809E-01
   0.305E+01 0.688E+01 -.255E+04   -.367E+01 -.671E+01 0.255E+04   0.766E+00 -.522E+00 0.188E+01   0.580E-02 0.518E-01 -.810E-01
   0.205E+02 0.523E+01 -.253E+04   -.206E+02 -.526E+01 0.253E+04   -.468E+00 -.181E-01 0.244E+01   0.246E-01 0.220E-01 -.905E-01
   -.205E+02 0.523E+01 -.253E+04   0.206E+02 -.526E+01 0.253E+04   0.468E+00 -.181E-01 0.244E+01   -.235E-01 0.229E-01 -.904E-01
   -.228E+01 -.157E+02 -.255E+04   0.273E+01 0.156E+02 0.255E+04   -.566E+00 0.456E+00 0.210E+01   -.467E-01 -.709E-01 -.107E+00
   0.228E+01 -.157E+02 -.255E+04   -.273E+01 0.156E+02 0.255E+04   0.566E+00 0.456E+00 0.210E+01   0.478E-01 -.703E-01 -.106E+00
   0.227E-04 -.716E+01 -.259E+04   0.105E-03 0.737E+01 0.258E+04   -.471E-12 -.717E-01 0.156E+01   -.617E-02 -.106E+00 -.161E+00
   -.131E-04 0.509E+01 -.771E+03   0.378E-04 -.497E+01 0.775E+03   -.122E-11 -.185E+00 -.273E+01   -.143E-03 0.143E-02 0.218E-01
   0.158E+03 0.296E+01 -.164E+04   -.186E+03 -.257E+01 0.166E+04   0.280E+02 -.385E+00 -.186E+02   0.158E-01 -.713E-02 0.630E-03
   -.158E+03 0.296E+01 -.164E+04   0.186E+03 -.257E+01 0.166E+04   -.280E+02 -.385E+00 -.186E+02   -.205E-01 -.707E-02 0.493E-03
 -----------------------------------------------------------------------------------------------
   0.596E-03 0.948E+00 0.426E+02   0.284E-13 -.866E-13 -.455E-12   -.638E-11 -.972E+00 -.386E+02   -.101E-01 -.261E-01 -.400E+01
 
 
 POSITION                                       TOTAL-FORCE (eV/Angst)
 -----------------------------------------------------------------------------------
      0.00000      0.00000      5.28219        -0.000000     -0.001713     -0.037324
      2.93046      0.00000      5.28219        -0.008728     -0.002859      0.022545
      5.86091      0.00000      5.28219         0.008728     -0.002859      0.022545
      1.46523      2.53785      5.28219        -0.009831     -0.007252      0.014864
      4.39568      2.53785      5.28219        -0.000000     -0.002369      0.003696
      7.32614      2.53785      5.28219         0.009831     -0.007252      0.014864
      2.93046      5.07570      5.28219         0.000491      0.017417      0.019517
      5.86091      5.07570      5.28219        -0.000491      0.017417      0.019517
      8.79137      5.07570      5.28219         0.000000      0.004016      0.002899
      1.46523      0.84595      7.67490        -0.030614     -0.014667     -0.059576
      4.39568      0.84595      7.67490        -0.000000     -0.050719     -0.059267
      7.32614      0.84595      7.67490         0.030614     -0.014667     -0.059576
      2.93046      3.38380      7.67490        -0.049370      0.024906     -0.066835
      5.86091      3.38380      7.67490         0.049370      0.024906     -0.066835
      8.79137      3.38380      7.67490         0.000000      0.003965      0.031648
      4.39568      5.92165      7.67490         0.000000      0.045803     -0.058174
      7.32614      5.92165      7.67490         0.003966     -0.001728      0.038068
     10.25659      5.92165      7.67490        -0.003966     -0.001728      0.038068
      8.79137      1.69178     10.05827        -0.000000     -0.029689      0.058385
      2.92613      1.68940     10.03306        -0.192201     -0.084173     -0.174249
      5.86523      1.68940     10.03306         0.192201     -0.084173     -0.174249
     10.25456      4.23092     10.06776         0.045521     -0.012718      0.065528
      4.39568      4.23474     10.03306         0.000000      0.195362     -0.145423
      7.32817      4.23092     10.06776        -0.045521     -0.012718      0.065528
     11.72193      6.76766     10.05827        -0.004020      0.014009      0.052771
      5.86080      6.76766     10.05827         0.004020      0.014009      0.052771
      8.79137      6.76525     10.06776         0.000000      0.037314      0.069960
      0.00000      0.00000     12.45716        -0.000000     -0.019590     -0.029934
      2.94326      0.02074     12.49530        -0.157776     -0.297818     -0.193045
      5.84810      0.02074     12.49530         0.157776     -0.297818     -0.193045
      1.48959      2.53857     12.49530        -0.559121     -0.028781     -0.281738
      7.30177      2.53857     12.49530         0.559121     -0.028781     -0.281738
      2.94201      5.05424     12.49530        -0.158169      0.323670     -0.198377
      5.84935      5.05424     12.49530         0.158169      0.323670     -0.198377
      8.79137      5.07570     12.47846         0.000000      0.035961     -0.033506
      4.39568      2.53785     12.33403        -0.000000     -0.069477      1.715445
      3.63861      2.59805     14.17425         0.018868     -0.004439      0.001325
      5.15276      2.59805     14.17425        -0.018868     -0.004439      0.001325
 -----------------------------------------------------------------------------------
    total drift:                               -0.009510     -0.050604      0.006201


--------------------------------------------------------------------------------------------------------



  FREE ENERGIE OF THE ION-ELECTRON SYSTEM (eV)
  ---------------------------------------------------
  free  energy   TOTEN  =      -111.23129697 eV

  energy  without entropy=     -111.23129697  energy(sigma->0) =     -111.23129697
 


--------------------------------------------------------------------------------------------------------


    POTLOK:  cpu time    0.0468: real time    0.0468


--------------------------------------------------------------------------------------------------------


 stress matrix after NEB project (eV)
     -4.39025     -0.00000     -0.00000
     -0.00000     -4.62414     -0.01270
     -0.00000     -0.01270     -0.51343
  FORCES: max atom, RMS     0.019428    0.004457
  FORCE total and by dimension    0.027476    0.018868
  Stress total and by dimension    6.396947    4.624143
     LOOP+:  cpu time  161.4276: real time  161.4377
 -----------------------------------------------------------------------------
|                                                                             |
|           W    W    AA    RRRRR   N    N  II  N    N   GGGG   !!!           |
|           W    W   A  A   R    R  NN   N  II  NN   N  G    G  !!!           |
|           W    W  A    A  R    R  N N  N  II  N N  N  G       !!!           |
|           W WW W  AAAAAA  RRRRR   N  N N  II  N  N N  G  GGG   !            |
|           WW  WW  A    A  R   R   N   NN  II  N   NN  G    G                |
|           W    W  A    A  R    R  N    N  II  N    N   GGGG   !!!           |
|                                                                             |
|     Tetrahedron method does not include variations of the Fermi             |
|     occupations, so forces and stress will be inaccurate. We suggest        |
|     using a different smearing scheme ISMEAR = 1 or 2 for metals in         |
|     relaxations.                                                            |
|                                                                             |
 -----------------------------------------------------------------------------

    4ORBIT:  cpu time    0.0000: real time    0.0000



 total charge

# of ion       s       p       d       tot
------------------------------------------
    1        0.419   0.202   9.175   9.797
    2        0.414   0.204   9.176   9.794
    3        0.414   0.204   9.176   9.794
    4        0.414   0.204   9.177   9.795
    5        0.416   0.202   9.177   9.795
    6        0.414   0.204   9.177   9.795
    7        0.414   0.204   9.177   9.794
    8        0.414   0.204   9.177   9.794
    9        0.414   0.203   9.177   9.795
   10        0.408   0.269   9.164   9.841
   11        0.403   0.271   9.166   9.840
   12        0.408   0.269   9.164   9.841
   13        0.404   0.270   9.166   9.840
   14        0.404   0.270   9.166   9.840
   15        0.402   0.269   9.164   9.835
   16        0.408   0.270   9.162   9.840
   17        0.402   0.270   9.163   9.835
   18        0.402   0.270   9.163   9.835
   19        0.400   0.266   9.167   9.832
   20        0.436   0.302   9.137   9.875
   21        0.436   0.302   9.137   9.875
   22        0.396   0.272   9.163   9.831
   23        0.437   0.300   9.138   9.875
   24        0.396   0.272   9.163   9.831
   25        0.405   0.265   9.166   9.835
   26        0.405   0.265   9.166   9.835
   27        0.397   0.271   9.164   9.832
   28        0.415   0.203   9.173   9.791
   29        0.437   0.217   9.161   9.815
   30        0.437   0.217   9.161   9.815
   31        0.438   0.205   9.171   9.815
   32        0.438   0.205   9.171   9.815
   33        0.433   0.216   9.164   9.813
   34        0.433   0.216   9.164   9.813
   35        0.416   0.202   9.172   9.791
   36        0.587   0.644   2.183   3.414
   37        1.611   3.250   0.000   4.860
   38        1.611   3.250   0.000   4.860
--------------------------------------------------
tot         18.339  15.599 322.987 356.925
 
 BZINTS: Fermi energy:    0.305357;  401.000000 electrons
         Band energy:-0.161068E+04;  BLOECHL correction:   -0.066169

 total amount of memory used by VASP MPI-rank0   198936. kBytes
=======================================================================

   base      :      30000. kBytes
   nonlr-proj:      16250. kBytes
   fftplans  :       4808. kBytes
   grid      :      19857. kBytes
   one-center:        590. kBytes
   wavefun   :     127431. kBytes
 
  
  
 General timing and accounting informations for this job:
 ========================================================
  
                  Total CPU time used (sec):      176.230
                            User time (sec):      169.885
                          System time (sec):        6.344
                         Elapsed time (sec):      176.656
  
                   Maximum memory used (kb):      485096.
                   Average memory used (kb):          N/A
  
                          Minor page faults:        99656
                          Major page faults:            0
                 Voluntary context switches:         5883
