 vasp.6.2.0 18Jan21 (build Jun 12 2021 23:27:24) complex                        
  
 executed on             LinuxIFC date 2022.05.30  16:36:58
 running on   28 total cores
 distrk:  each k-point on   28 cores,    1 groups
 distr:  one band on NCORE=   1 cores,   28 groups


--------------------------------------------------------------------------------------------------------


 INCAR:
   ISMEAR = -5
   SIGMA = 0.1
   ISPIN = 1
   EDIFF = 1.d-5
   EDIFFG = -0.01
   NSW = 0
   NELM = 150
   ENCUT = 500
   ISIF = 2
   IBRION = 2
   LREAL = Auto
   ALGO = Fast
   ICHARG = 11
   LORBIT = 10
   LCHARG = .F.
   LWAVE = .F.

 POTCAR:    PAW_PBE Au 04Oct2007                  
 POTCAR:    PAW_PBE Os 17Jan2003                  
 POTCAR:    PAW_PBE C 08Apr2002                   
 POTCAR:    PAW_PBE O 08Apr2002                   
 POTCAR:    PAW_PBE H 15Jun2001                   
 -----------------------------------------------------------------------------
|                                                                             |
|           W    W    AA    RRRRR   N    N  II  N    N   GGGG   !!!           |
|           W    W   A  A   R    R  NN   N  II  NN   N  G    G  !!!           |
|           W    W  A    A  R    R  N N  N  II  N N  N  G       !!!           |
|           W WW W  AAAAAA  RRRRR   N  N N  II  N  N N  G  GGG   !            |
|           WW  WW  A    A  R   R   N   NN  II  N   NN  G    G                |
|           W    W  A    A  R    R  N    N  II  N    N   GGGG   !!!           |
|                                                                             |
|     For optimal performance we recommend to set                             |
|       NCORE = 2 up to number-of-cores-per-socket                            |
|     NCORE specifies how many cores store one orbital (NPAR=cpu/NCORE).      |
|     This setting can greatly improve the performance of VASP for DFT.       |
|     The default, NCORE=1 might be grossly inefficient on modern             |
|     multi-core architectures or massively parallel machines. Do your        |
|     own testing! More info at https://www.vasp.at/wiki/index.php/NCORE      |
|     Unfortunately you need to use the default for GW and RPA                |
|     calculations (for HF NCORE is supported but not extensively tested      |
|     yet).                                                                   |
|                                                                             |
 -----------------------------------------------------------------------------

 POTCAR:    PAW_PBE Au 04Oct2007                  
   VRHFIN =Au: s1d10                                                                                
   LEXCH  = PE                                                                                      
   EATOM  =   926.0867 eV,   68.0654 Ry                                                             
                                                                                                    
   TITEL  = PAW_PBE Au 04Oct2007                                                                    
   LULTRA =        F    use ultrasoft PP ?                                                          
   IUNSCR =        1    unscreen: 0-lin 1-nonlin 2-no                                               
   RPACOR =    2.330    partial core radius                                                         
   POMASS =  196.966; ZVAL   =   11.000    mass and valenz                                          
   RCORE  =    2.500    outmost cutoff radius                                                       
   RWIGS  =    2.840; RWIGS  =    1.503    wigner-seitz radius (au A)                               
   ENMAX  =  229.943; ENMIN  =  172.457 eV                                                          
   ICORE  =        3    local potential                                                             
   LCOR   =        T    correct aug charges                                                         
   LPAW   =        T    paw PP                                                                      
   EAUG   =  356.670                                                                                
   DEXC   =    0.000                                                                                
   RMAX   =    2.562    core radius for proj-oper                                                   
   RAUG   =    1.300    factor for augmentation sphere                                              
   RDEP   =    2.598    radius for radial grids                                                     
   RDEPT  =    2.193    core radius for aug-charge                                                  
                                                                                                    
   Atomic configuration                                                                             
   16 entries                                                                                       
     n  l   j            E        occ.                                                              
     1  0  0.50    -80748.5001   2.0000                                                             
     2  0  0.50    -14244.7466   2.0000                                                             
     2  1  1.50    -12310.9591   6.0000                                                             
     3  0  0.50     -3362.1768   2.0000                                                             
     3  1  1.50     -2801.5463   6.0000                                                             
     3  2  2.50     -2203.8206  10.0000                                                             
     4  0  0.50      -729.8168   2.0000                                                             
     4  1  1.50      -546.0527   6.0000                                                             
     4  2  2.50      -325.7302  10.0000                                                             
     4  3  3.50       -81.1472  14.0000                                                             
     5  0  0.50      -108.3201   2.0000                                                             
     5  1  1.50       -59.7479   6.0000                                                             
     5  2  2.50        -6.8783  10.0000                                                             
     6  0  0.50        -5.7602   1.0000                                                             
     6  1  1.50        -6.8029   0.0000                                                             
     5  3  2.50        -1.3606   0.0000                                                             
   Description                                                                                      
     l       E           TYP  RCUT    TYP  RCUT                                                     
     2     -6.8782861     23  2.500                                                                 
     2     -8.2388687     23  2.500                                                                 
     0     -5.7601759     23  2.500                                                                 
     0     -0.8493231     23  2.500                                                                 
     1     -2.7211652     23  2.500                                                                 
     1     27.2116520     23  2.500                                                                 
     3     -1.3605826     23  2.500                                                                 
  local pseudopotential read in
  partial core-charges read in
  partial kinetic energy density read in
  atomic valenz-charges read in
  non local Contribution for L=           2  read in
    real space projection operators read in
  non local Contribution for L=           2  read in
    real space projection operators read in
  non local Contribution for L=           0  read in
    real space projection operators read in
  non local Contribution for L=           0  read in
    real space projection operators read in
  non local Contribution for L=           1  read in
    real space projection operators read in
  non local Contribution for L=           1  read in
    real space projection operators read in
    PAW grid and wavefunctions read in
 
   number of l-projection  operators is LMAX  =           6
   number of lm-projection operators is LMMAX =          18
 
 POTCAR:    PAW_PBE Os 17Jan2003                  
   VRHFIN =Os: 6s5d                                                                                 
   LEXCH  = PE                                                                                      
   EATOM  =   417.5999 eV,   30.6927 Ry                                                             
                                                                                                    
   TITEL  = PAW_PBE Os 17Jan2003                                                                    
   LULTRA =        F    use ultrasoft PP ?                                                          
   IUNSCR =        1    unscreen: 0-lin 1-nonlin 2-no                                               
   RPACOR =    2.250    partial core radius                                                         
   POMASS =  190.200; ZVAL   =    8.000    mass and valenz                                          
   RCORE  =    2.700    outmost cutoff radius                                                       
   RWIGS  =    2.670; RWIGS  =    1.413    wigner-seitz radius (au A)                               
   ENMAX  =  228.022; ENMIN  =  171.017 eV                                                          
   RCLOC  =    2.004    cutoff for local pot                                                        
   LCOR   =        T    correct aug charges                                                         
   LPAW   =        T    paw PP                                                                      
   EAUG   =  365.080                                                                                
   DEXC   =    0.000                                                                                
   RMAX   =    2.766    core radius for proj-oper                                                   
   RAUG   =    1.300    factor for augmentation sphere                                              
   RDEP   =    2.738    radius for radial grids                                                     
   RDEPT  =    2.220    core radius for aug-charge                                                  
                                                                                                    
   Atomic configuration                                                                             
   16 entries                                                                                       
     n  l   j            E        occ.                                                              
     1  0  0.50    -73844.2437   2.0000                                                             
     2  0  0.50    -12856.6893   2.0000                                                             
     2  1  1.50    -11191.7995   6.0000                                                             
     3  0  0.50     -2990.1422   2.0000                                                             
     3  1  1.50     -2501.5221   6.0000                                                             
     3  2  2.50     -1956.5818  10.0000                                                             
     4  0  0.50      -629.1606   2.0000                                                             
     4  1  1.50      -468.9548   6.0000                                                             
     4  2  2.50      -270.2868  10.0000                                                             
     4  3  3.50       -49.5699  14.0000                                                             
     5  0  0.50       -89.1521   2.0000                                                             
     5  1  1.50       -48.6063   6.0000                                                             
     5  2  2.50        -4.7055   7.0000                                                             
     6  0  0.50        -5.4288   1.0000                                                             
     6  1  1.50        -2.7212   0.0000                                                             
     5  3  2.50        -6.8029   0.0000                                                             
   Description                                                                                      
     l       E           TYP  RCUT    TYP  RCUT                                                     
     2     -4.7055230     23  2.500                                                                 
     2     -6.0661056     23  2.500                                                                 
     0     -5.4288441     23  2.500                                                                 
     0      3.7338294     23  2.500                                                                 
     1     -2.7211652     23  2.700                                                                 
     1     27.2116520     23  2.700                                                                 
  local pseudopotential read in
  partial core-charges read in
  partial kinetic energy density read in
  atomic valenz-charges read in
  non local Contribution for L=           2  read in
    real space projection operators read in
  non local Contribution for L=           2  read in
    real space projection operators read in
  non local Contribution for L=           0  read in
    real space projection operators read in
  non local Contribution for L=           0  read in
    real space projection operators read in
  non local Contribution for L=           1  read in
    real space projection operators read in
  non local Contribution for L=           1  read in
    real space projection operators read in
    PAW grid and wavefunctions read in
 
   number of l-projection  operators is LMAX  =           6
   number of lm-projection operators is LMMAX =          18
 
 POTCAR:    PAW_PBE C 08Apr2002                   
   VRHFIN =C: s2p2                                                                                  
   LEXCH  = PE                                                                                      
   EATOM  =   147.1560 eV,   10.8157 Ry                                                             
                                                                                                    
   TITEL  = PAW_PBE C 08Apr2002                                                                     
   LULTRA =        F    use ultrasoft PP ?                                                          
   IUNSCR =        1    unscreen: 0-lin 1-nonlin 2-no                                               
   RPACOR =    1.200    partial core radius                                                         
   POMASS =   12.011; ZVAL   =    4.000    mass and valenz                                          
   RCORE  =    1.500    outmost cutoff radius                                                       
   RWIGS  =    1.630; RWIGS  =    0.863    wigner-seitz radius (au A)                               
   ENMAX  =  400.000; ENMIN  =  300.000 eV                                                          
   ICORE  =        2    local potential                                                             
   LCOR   =        T    correct aug charges                                                         
   LPAW   =        T    paw PP                                                                      
   EAUG   =  644.873                                                                                
   DEXC   =    0.000                                                                                
   RMAX   =    1.529    core radius for proj-oper                                                   
   RAUG   =    1.300    factor for augmentation sphere                                              
   RDEP   =    1.501    radius for radial grids                                                     
   RDEPT  =    1.300    core radius for aug-charge                                                  
                                                                                                    
   Atomic configuration                                                                             
    4 entries                                                                                       
     n  l   j            E        occ.                                                              
     1  0  0.50      -273.3789   2.0000                                                             
     2  0  0.50       -13.7508   2.0000                                                             
     2  1  0.50        -5.2854   2.0000                                                             
     3  2  1.50        -5.4423   0.0000                                                             
   Description                                                                                      
     l       E           TYP  RCUT    TYP  RCUT                                                     
     0    -13.7508458     23  1.200                                                                 
     0     -8.2022199     23  1.200                                                                 
     1     -5.2854383     23  1.500                                                                 
     1     34.0145650     23  1.500                                                                 
     2     -5.4423304      7  1.500                                                                 
  local pseudopotential read in
  partial core-charges read in
  partial kinetic energy density read in
  atomic valenz-charges read in
  non local Contribution for L=           0  read in
    real space projection operators read in
  non local Contribution for L=           0  read in
    real space projection operators read in
  non local Contribution for L=           1  read in
    real space projection operators read in
  non local Contribution for L=           1  read in
    real space projection operators read in
    PAW grid and wavefunctions read in
 
   number of l-projection  operators is LMAX  =           4
   number of lm-projection operators is LMMAX =           8
 
 POTCAR:    PAW_PBE O 08Apr2002                   
   VRHFIN =O: s2p4                                                                                  
   LEXCH  = PE                                                                                      
   EATOM  =   432.3788 eV,   31.7789 Ry                                                             
                                                                                                    
   TITEL  = PAW_PBE O 08Apr2002                                                                     
   LULTRA =        F    use ultrasoft PP ?                                                          
   IUNSCR =        1    unscreen: 0-lin 1-nonlin 2-no                                               
   RPACOR =    1.200    partial core radius                                                         
   POMASS =   16.000; ZVAL   =    6.000    mass and valenz                                          
   RCORE  =    1.520    outmost cutoff radius                                                       
   RWIGS  =    1.550; RWIGS  =    0.820    wigner-seitz radius (au A)                               
   ENMAX  =  400.000; ENMIN  =  300.000 eV                                                          
   ICORE  =        2    local potential                                                             
   LCOR   =        T    correct aug charges                                                         
   LPAW   =        T    paw PP                                                                      
   EAUG   =  605.392                                                                                
   DEXC   =    0.000                                                                                
   RMAX   =    1.553    core radius for proj-oper                                                   
   RAUG   =    1.300    factor for augmentation sphere                                              
   RDEP   =    1.550    radius for radial grids                                                     
   RDEPT  =    1.329    core radius for aug-charge                                                  
                                                                                                    
   Atomic configuration                                                                             
    4 entries                                                                                       
     n  l   j            E        occ.                                                              
     1  0  0.50      -514.6923   2.0000                                                             
     2  0  0.50       -23.9615   2.0000                                                             
     2  1  0.50        -9.0305   4.0000                                                             
     3  2  1.50        -9.5241   0.0000                                                             
   Description                                                                                      
     l       E           TYP  RCUT    TYP  RCUT                                                     
     0    -23.9615318     23  1.200                                                                 
     0     -9.5240782     23  1.200                                                                 
     1     -9.0304911     23  1.520                                                                 
     1      8.1634956     23  1.520                                                                 
     2     -9.5240782      7  1.500                                                                 
  local pseudopotential read in
  partial core-charges read in
  partial kinetic energy density read in
  kinetic energy density of atom read in
  atomic valenz-charges read in
  non local Contribution for L=           0  read in
    real space projection operators read in
  non local Contribution for L=           0  read in
    real space projection operators read in
  non local Contribution for L=           1  read in
    real space projection operators read in
  non local Contribution for L=           1  read in
    real space projection operators read in
    PAW grid and wavefunctions read in
 
   number of l-projection  operators is LMAX  =           4
   number of lm-projection operators is LMMAX =           8
 
 POTCAR:    PAW_PBE H 15Jun2001                   
   VRHFIN =H: ultrasoft test                                                                        
   LEXCH  = PE                                                                                      
   EATOM  =    12.4884 eV,    0.9179 Ry                                                             
                                                                                                    
   TITEL  = PAW_PBE H 15Jun2001                                                                     
   LULTRA =        F    use ultrasoft PP ?                                                          
   IUNSCR =        0    unscreen: 0-lin 1-nonlin 2-no                                               
   RPACOR =    0.000    partial core radius                                                         
   POMASS =    1.000; ZVAL   =    1.000    mass and valenz                                          
   RCORE  =    1.100    outmost cutoff radius                                                       
   RWIGS  =    0.700; RWIGS  =    0.370    wigner-seitz radius (au A)                               
   ENMAX  =  250.000; ENMIN  =  200.000 eV                                                          
   RCLOC  =    0.701    cutoff for local pot                                                        
   LCOR   =        T    correct aug charges                                                         
   LPAW   =        T    paw PP                                                                      
   EAUG   =  400.000                                                                                
   RMAX   =    1.123    core radius for proj-oper                                                   
   RAUG   =    1.200    factor for augmentation sphere                                              
   RDEP   =    1.112    radius for radial grids                                                     
   RDEPT  =    0.926    core radius for aug-charge                                                  
                                                                                                    
   Atomic configuration                                                                             
    2 entries                                                                                       
     n  l   j            E        occ.                                                              
     1  0  0.50        -6.4927   1.0000                                                             
     2  1  0.50        -3.4015   0.0000                                                             
   Description                                                                                      
     l       E           TYP  RCUT    TYP  RCUT                                                     
     0     -6.4927494     23  1.100                                                                 
     0      6.8029130     23  1.100                                                                 
     1     -4.0817478     23  1.100                                                                 
  local pseudopotential read in
  atomic valenz-charges read in
  non local Contribution for L=           0  read in
    real space projection operators read in
  non local Contribution for L=           0  read in
    real space projection operators read in
  non local Contribution for L=           1  read in
    real space projection operators read in
    PAW grid and wavefunctions read in
 
   number of l-projection  operators is LMAX  =           3
   number of lm-projection operators is LMMAX =           5
 
 Optimization of the real space projectors (new method)

 maximal supplied QI-value         = 15.12
 optimisation between [QCUT,QGAM] = [ 11.34, 22.83] = [ 36.00,145.93] Ry 
 Optimized for a Real-space Cutoff    1.39 Angstroem

   l    n(q)    QCUT    max X(q) W(low)/X(q) W(high)/X(q)  e(spline) 
   2      9    11.338    60.898    0.39E-03    0.42E-03    0.21E-06
   2      9    11.338    58.894    0.40E-03    0.42E-03    0.22E-06
   0      9    11.338   109.617    0.13E-03    0.20E-04    0.13E-06
   0      9    11.338    75.026    0.13E-03    0.20E-04    0.13E-06
   1      9    11.338    16.344    0.33E-04    0.24E-03    0.18E-06
   1      9    11.338    10.160    0.26E-04    0.19E-03    0.15E-06
 Optimization of the real space projectors (new method)

 maximal supplied QI-value         = 13.98
 optimisation between [QCUT,QGAM] = [ 11.33, 22.79] = [ 35.93,145.49] Ry 
 Optimized for a Real-space Cutoff    1.56 Angstroem

   l    n(q)    QCUT    max X(q) W(low)/X(q) W(high)/X(q)  e(spline) 
   2     10    11.327   152.873    0.32E-03    0.72E-03    0.11E-05
   2     10    11.327   151.010    0.32E-03    0.72E-03    0.11E-05
   0     11    11.327    72.114    0.43E-04    0.61E-04    0.13E-06
   0     11    11.327    44.596    0.40E-04    0.57E-04    0.12E-06
   1     10    11.327    13.742    0.16E-03    0.10E-03    0.19E-06
   1     10    11.327     8.461    0.12E-03    0.78E-04    0.15E-06
 Optimization of the real space projectors (new method)

 maximal supplied QI-value         = 25.13
 optimisation between [QCUT,QGAM] = [ 11.31, 22.87] = [ 35.82,146.48] Ry 
 Optimized for a Real-space Cutoff    1.00 Angstroem

   l    n(q)    QCUT    max X(q) W(low)/X(q) W(high)/X(q)  e(spline) 
   0      7    11.310   115.676    0.43E-03    0.13E-02    0.19E-06
   0      7    11.310    87.132    0.43E-03    0.13E-02    0.18E-06
   1      6    11.310     4.429    0.42E-03    0.74E-03    0.11E-06
   1      6    11.310     2.733    0.34E-03    0.55E-03    0.92E-07
 Optimization of the real space projectors (new method)

 maximal supplied QI-value         = 24.76
 optimisation between [QCUT,QGAM] = [ 11.39, 22.77] = [ 36.31,145.25] Ry 
 Optimized for a Real-space Cutoff    1.00 Angstroem

   l    n(q)    QCUT    max X(q) W(low)/X(q) W(high)/X(q)  e(spline) 
   0      7    11.387    20.381    0.39E-03    0.13E-02    0.15E-06
   0      7    11.387    15.268    0.42E-03    0.14E-02    0.17E-06
   1      6    11.387     5.964    0.41E-03    0.11E-02    0.17E-06
   1      6    11.387     5.382    0.39E-03    0.87E-03    0.15E-06
 Optimization of the real space projectors (new method)

 maximal supplied QI-value         = 34.20
 optimisation between [QCUT,QGAM] = [ 11.29, 22.57] = [ 35.68,142.71] Ry 
 Optimized for a Real-space Cutoff    1.16 Angstroem

   l    n(q)    QCUT    max X(q) W(low)/X(q) W(high)/X(q)  e(spline) 
   0      8    11.287    19.460    0.40E-03    0.73E-03    0.16E-06
   0      8    11.287    12.209    0.38E-03    0.70E-03    0.15E-06
   1      7    11.287     4.655    0.22E-03    0.25E-04    0.22E-06
  PAW_PBE Au 04Oct2007                  :
 energy of atom  1       EATOM= -926.0867
 kinetic energy error for atom=    0.0042 (will be added to EATOM!!)
  PAW_PBE Os 17Jan2003                  :
 energy of atom  2       EATOM= -417.5999
 kinetic energy error for atom=    0.0029 (will be added to EATOM!!)
  PAW_PBE C 08Apr2002                   :
 energy of atom  3       EATOM= -147.1560
 kinetic energy error for atom=    0.0076 (will be added to EATOM!!)
  PAW_PBE O 08Apr2002                   :
 energy of atom  4       EATOM= -432.3788
 kinetic energy error for atom=    0.0224 (will be added to EATOM!!)
  PAW_PBE H 15Jun2001                   :
 energy of atom  5       EATOM=  -12.4884
 kinetic energy error for atom=    0.0020 (will be added to EATOM!!)
 
 
 POSCAR: Au-Os-COH
  positions in direct lattice
  velocities in cartesian coordinates
 exchange correlation table for  LEXCH =        8
   RHO(1)=    0.500       N(1)  =     2000
   RHO(2)=  100.500       N(2)  =     4000

 VTST: version 3.2, (02/03/18)

 CHAIN: initializing optimizer
 
 OPT: Using VASP Conjugate-Gradient optimizer
 CHAIN: Read ICHAIN            0
 
 POSCAR: Au-Os-COH
  positions in direct lattice
  velocities in cartesian coordinates
 


--------------------------------------------------------------------------------------------------------


 ion  position               nearest neighbor table
   1  0.000  0.000  0.197-  16 2.94  12 2.94   6 2.94   8 2.94   7 2.94   3 2.94  10 2.94   4 2.94
                             2 2.94
   2  0.333  0.000  0.197-   9 2.94  11 2.94  17 2.94  10 2.94   8 2.94   4 2.94   5 2.94   1 2.94
                             3 2.94
   3  0.667  0.000  0.197-   7 2.94  18 2.94  12 2.94   1 2.94  11 2.94   5 2.94   6 2.94   9 2.94
                             2 2.94
   4  0.000  0.333  0.197-  10 2.94   6 2.94   5 2.94  13 2.94   2 2.94  15 2.94   9 2.94   1 2.94
                             7 2.94
   5  0.333  0.333  0.197-  13 2.94   7 2.94  11 2.94   4 2.94   2 2.94  14 2.94   3 2.94   8 2.94
                             6 2.94
   6  0.667  0.333  0.197-  15 2.94  14 2.94   1 2.94  12 2.94   4 2.94   9 2.94   8 2.94   3 2.94
                             5 2.94
   7  0.000  0.667  0.197-  18 2.94   3 2.94  16 2.94   5 2.94   1 2.94  13 2.94   8 2.94   4 2.94
                             9 2.94
   8  0.333  0.667  0.197-   9 2.94  17 2.94   1 2.94   2 2.94  14 2.94  16 2.94   6 2.94   7 2.94
                             5 2.94
   9  0.667  0.667  0.197-   2 2.94   8 2.94  17 2.94   6 2.94  15 2.94   4 2.94   3 2.94  18 2.94
                             7 2.94
  10  0.111  0.111  0.287-  20 2.90  11 2.94  17 2.94   2 2.94   4 2.94   1 2.94  12 2.94  16 2.94
                            13 2.94  15 2.94  26 2.95  19 2.95
  11  0.444  0.111  0.287-  20 2.91  21 2.91  27 2.94  13 2.94   2 2.94  10 2.94  17 2.94   5 2.94
                             3 2.94  18 2.94  14 2.94  12 2.94
  12  0.778  0.111  0.287-  21 2.90  16 2.94  18 2.94   1 2.94  14 2.94  15 2.94   3 2.94   6 2.94
                            10 2.94  11 2.94  25 2.95  19 2.95
  13  0.111  0.444  0.287-  23 2.91  20 2.91  22 2.94   5 2.94  18 2.94  11 2.94   7 2.94   4 2.94
                            16 2.94  10 2.94  14 2.94  15 2.94
  14  0.444  0.444  0.287-  21 2.91  23 2.91  24 2.94  15 2.94   6 2.94  12 2.94   8 2.94  17 2.94
                             5 2.94  16 2.94  13 2.94  11 2.94
  15  0.778  0.444  0.287-  24 2.92  22 2.92  14 2.94   6 2.94  17 2.94  12 2.94   9 2.94   4 2.94
                            10 2.94  13 2.94  18 2.94  19 2.95
  16  0.111  0.778  0.287-  23 2.90  18 2.94  12 2.94   7 2.94   1 2.94   8 2.94  13 2.94  10 2.94
                            14 2.94  17 2.94  25 2.95  26 2.95
  17  0.444  0.778  0.287-  27 2.92  24 2.92   9 2.94  15 2.94   2 2.94  10 2.94  11 2.94   8 2.94
                            14 2.94  16 2.94  18 2.94  26 2.95
  18  0.778  0.778  0.287-  22 2.92  27 2.92  16 2.94   7 2.94  13 2.94  12 2.94   3 2.94  11 2.94
                             9 2.94  15 2.94  17 2.94  25 2.95
  19  0.888  0.223  0.377-  24 2.93  22 2.93  21 2.93  20 2.93  28 2.95  15 2.95  26 2.95  25 2.95
                            10 2.95  12 2.95  32 2.98  31 2.98
  20  0.222  0.222  0.375-  36 2.77  10 2.90  11 2.91  13 2.91  26 2.93  19 2.93  23 2.95  21 2.95
                            27 2.96  22 2.96  29 2.96  31 2.96
  21  0.556  0.222  0.375-  36 2.77  12 2.90  14 2.91  11 2.91  25 2.93  19 2.93  20 2.95  23 2.95
                            27 2.96  24 2.96  30 2.96  32 2.96
  22  0.886  0.557  0.376-  24 2.90  27 2.90  18 2.92  15 2.92  25 2.93  19 2.93  13 2.94  35 2.95
                            23 2.96  20 2.96  33 2.98  31 2.98
  23  0.222  0.556  0.375-  36 2.77  16 2.90  13 2.91  14 2.91  25 2.93  26 2.93  20 2.95  21 2.95
                            22 2.96  24 2.96  33 2.96  34 2.96
  24  0.557  0.557  0.376-  27 2.90  22 2.90  15 2.92  17 2.92  26 2.93  19 2.93  14 2.94  35 2.95
                            21 2.96  23 2.96  32 2.98  34 2.98
  25  0.888  0.888  0.377-  22 2.93  27 2.93  23 2.93  21 2.93  28 2.95  18 2.95  19 2.95  26 2.95
                            16 2.95  12 2.95  33 2.98  30 2.98
  26  0.223  0.888  0.377-  27 2.93  24 2.93  20 2.93  23 2.93  28 2.95  17 2.95  19 2.95  25 2.95
                            10 2.95  16 2.95  29 2.98  34 2.98
  27  0.557  0.886  0.376-  24 2.90  22 2.90  17 2.92  18 2.92  26 2.93  25 2.93  11 2.94  35 2.95
                            20 2.96  21 2.96  29 2.98  30 2.98
  28  0.000  0.000  0.467-  25 2.95  19 2.95  26 2.95  34 2.98  32 2.98  33 2.98  30 2.98  31 2.98
                            29 2.98
  29  0.333  0.009  0.467-  31 2.86  30 2.86  36 2.88  20 2.96  28 2.98  35 2.98  27 2.98  26 2.98
                            34 3.09
  30  0.658  0.009  0.467-  32 2.86  29 2.86  36 2.88  21 2.96  28 2.98  35 2.98  27 2.98  25 2.98
                            33 3.09
  31  0.009  0.333  0.467-  29 2.86  33 2.86  36 2.88  20 2.96  28 2.98  35 2.98  22 2.98  19 2.98
                            32 3.09
  32  0.658  0.333  0.467-  30 2.86  34 2.86  36 2.88  21 2.96  28 2.98  35 2.98  24 2.98  19 2.98
                            31 3.09
  33  0.009  0.658  0.467-  34 2.86  31 2.86  36 2.88  23 2.96  28 2.98  35 2.98  22 2.98  25 2.98
                            30 3.09
  34  0.333  0.658  0.467-  33 2.86  32 2.86  36 2.88  23 2.96  28 2.98  35 2.98  24 2.98  26 2.98
                            29 3.09
  35  0.667  0.667  0.467-  24 2.95  27 2.95  22 2.95  29 2.98  34 2.98  32 2.98  31 2.98  30 2.98
                            33 2.98
  36  0.333  0.333  0.457-  37 1.77  20 2.77  23 2.77  21 2.77  33 2.88  31 2.88  29 2.88  30 2.88
                            34 2.88  32 2.88
  37  0.333  0.333  0.523-  38 1.25  36 1.77
  38  0.333  0.333  0.569-  39 0.96  37 1.25
  39  0.333  0.333  0.605-  38 0.96
 
  LATTYP: Found a hexagonal cell.
 ALAT       =     8.8135128021
 C/A-ratio  =     3.0356784858
  
  Lattice vectors:
  
 A1 = (  -4.4067569092,  -7.6327256898,   0.0000000000)
 A2 = (   8.8135128021,   0.0000000000,   0.0000000000)
 A3 = (   0.0000000000,   0.0000000000,  26.7549911976)


Analysis of symmetry for initial positions (statically):
=====================================================================
 Subroutine PRICEL returns:
 Original cell was already a primitive cell.
 

 Routine SETGRP: Setting up the symmetry group for a 
 hexagonal supercell.


 Subroutine GETGRP returns: Found  6 space group operations
 (whereof  6 operations were pure point group operations)
 out of a pool of 24 trial point group operations.


The static configuration has the point symmetry C_3v.


Analysis of symmetry for dynamics (positions and initial velocities):
=====================================================================
 Subroutine PRICEL returns:
 Original cell was already a primitive cell.
 

 Routine SETGRP: Setting up the symmetry group for a 
 hexagonal supercell.


 Subroutine GETGRP returns: Found  6 space group operations
 (whereof  6 operations were pure point group operations)
 out of a pool of 24 trial point group operations.


The dynamic configuration has the point symmetry C_3v.


Analysis of constrained symmetry for selective dynamics:
=====================================================================
 Subroutine PRICEL returns:
 Original cell was already a primitive cell.
 

 Routine SETGRP: Setting up the symmetry group for a 
 hexagonal supercell.


 Subroutine GETGRP returns: Found  6 space group operations
 (whereof  6 operations were pure point group operations)
 out of a pool of 24 trial point group operations.


The constrained configuration has the point symmetry C_3v.


 Subroutine INISYM returns: Found  6 space group operations
 (whereof  6 operations are pure point group operations),
 and found     1 'primitive' translations


----------------------------------------------------------------------------------------

                                     Primitive cell                                     

  volume of cell :    1799.8384

  direct lattice vectors                    reciprocal lattice vectors
     8.813512802  0.000000000  0.000000000     0.113462137 -0.065507406  0.000000000
     4.406756909  7.632725690  0.000000000     0.000000000  0.131014796  0.000000000
     0.000000000  0.000000000 26.754991198     0.000000000  0.000000000  0.037376204

  length of vectors
     8.813512802  8.813512802 26.754991198     0.131014796  0.131014796  0.037376204

  position of ions in fractional coordinates (direct lattice)
     0.000000000  0.000000000  0.197360556
     0.333333343  0.000000000  0.197360556
     0.666666687  0.000000000  0.197360556
     0.000000000  0.333333343  0.197360556
     0.333333313  0.333333343  0.197360556
     0.666666687  0.333333343  0.197360556
     0.000000000  0.666666687  0.197360556
     0.333333343  0.666666687  0.197360556
     0.666666627  0.666666687  0.197360556
     0.111111119  0.111111112  0.287016131
     0.444444418  0.111111112  0.287016131
     0.777777791  0.111111112  0.287016131
     0.111111127  0.444444448  0.287016131
     0.444444478  0.444444448  0.287016131
     0.777777731  0.444444448  0.287016131
     0.111111090  0.777777791  0.287016131
     0.444444448  0.777777791  0.287016131
     0.777777851  0.777777791  0.287016131
     0.888433906  0.223132205  0.377310878
     0.221845884  0.221845869  0.375096382
     0.556308293  0.221845869  0.375096382
     0.886246892  0.556876584  0.376111619
     0.221845839  0.556308293  0.375096382
     0.556876584  0.556876584  0.376111619
     0.888433906  0.888433906  0.377310878
     0.223132235  0.888433906  0.377310878
     0.556876524  0.886246892  0.376111619
     0.000000000  0.000000000  0.467164185
     0.333311485  0.008509540  0.467304236
     0.658179005  0.008509540  0.467304236
     0.008509540  0.333311485  0.467304236
     0.658179005  0.333311485  0.467304236
     0.008509540  0.658179005  0.467304236
     0.333311485  0.658179005  0.467304236
     0.666666627  0.666666687  0.467053485
     0.333333313  0.333333343  0.456545351
     0.333333313  0.333333343  0.522691229
     0.333333313  0.333333343  0.569263958
     0.333333313  0.333333343  0.605108084

  ion indices of the primitive-cell ions
   primitive index   ion index
                 1           1
                 2           2
                 3           3
                 4           4
                 5           5
                 6           6
                 7           7
                 8           8
                 9           9
                10          10
                11          11
                12          12
                13          13
                14          14
                15          15
                16          16
                17          17
                18          18
                19          19
                20          20
                21          21
                22          22
                23          23
                24          24
                25          25
                26          26
                27          27
                28          28
                29          29
                30          30
                31          31
                32          32
                33          33
                34          34
                35          35
                36          36
                37          37
                38          38
                39          39

----------------------------------------------------------------------------------------

 
 
 KPOINTS: Automatic mesh                          

Automatic generation of k-mesh.
 Grid dimensions read from file:
 generate k-points for:    8    8    1

 Generating k-lattice:

  Cartesian coordinates                     Fractional coordinates (reciprocal lattice)
     0.014182767 -0.008188426  0.000000000     0.125000000  0.000000000  0.000000000
     0.000000000  0.016376850  0.000000000     0.000000000  0.125000000  0.000000000
     0.000000000  0.000000000  0.037376204     0.000000000  0.000000000  1.000000000

  Length of vectors
     0.016376850  0.016376850  0.037376204

  Shift w.r.t. Gamma in fractional coordinates (k-lattice)
     0.000000000  0.000000000  0.000000000

 TETIRR: Found     36 inequivalent tetrahedra from      384
 
 Subroutine IBZKPT returns following result:
 ===========================================
 
 Found     10 irreducible k-points:
 
 Following reciprocal coordinates:
            Coordinates               Weight
  0.000000  0.000000  0.000000      1.000000
  0.125000  0.000000  0.000000      6.000000
  0.250000  0.000000  0.000000      6.000000
  0.375000  0.000000  0.000000      6.000000
  0.500000  0.000000  0.000000      3.000000
  0.250000  0.125000  0.000000      6.000000
  0.375000  0.125000  0.000000     12.000000
  0.500000  0.125000  0.000000     12.000000
  0.500000  0.250000  0.000000      6.000000
 -0.375000  0.250000  0.000000      6.000000
 
 Following cartesian coordinates:
            Coordinates               Weight
  0.000000  0.000000  0.000000      1.000000
  0.014183 -0.008188  0.000000      6.000000
  0.028366 -0.016377  0.000000      6.000000
  0.042548 -0.024565  0.000000      6.000000
  0.056731 -0.032754  0.000000      3.000000
  0.028366 -0.000000  0.000000      6.000000
  0.042548 -0.008188  0.000000     12.000000
  0.056731 -0.016377  0.000000     12.000000
  0.056731 -0.000000  0.000000      6.000000
 -0.042548  0.057319  0.000000      6.000000
 


--------------------------------------------------------------------------------------------------------




 Dimension of arrays:
   k-points           NKPTS =     10   k-points in BZ     NKDIM =     10   number of bands    NBANDS=    252
   number of dos      NEDOS =    301   number of ions     NIONS =     39
   non local maximal  LDIM  =      6   non local SUM 2l+1 LMDIM =     18
   total plane-waves  NPLWV = 345600
   max r-space proj   IRMAX =   3128   max aug-charges    IRDMAX=  11941
   dimension x,y,z NGX =    48 NGY =   48 NGZ =  150
   dimension x,y,z NGXF=    96 NGYF=   96 NGZF=  300
   support grid    NGXF=    96 NGYF=   96 NGZF=  300
   ions per type =              35   1   1   1   1
   NGX,Y,Z   is equivalent  to a cutoff of   9.05,  9.05,  9.32 a.u.
   NGXF,Y,Z  is equivalent  to a cutoff of  18.11, 18.11, 18.64 a.u.

 SYSTEM =  unknown system                          
 POSCAR =  Au-Os-COH                               

 Startparameter for this run:
   NWRITE =      2    write-flag & timer
   PREC   = normal    normal or accurate (medium, high low for compatibility)
   ISTART =      0    job   : 0-new  1-cont  2-samecut
   ICHARG =     11    charge: 1-file 2-atom 10-const
   ISPIN  =      1    spin polarized calculation?
   LNONCOLLINEAR =      F non collinear calculations
   LSORBIT =      F    spin-orbit coupling
   INIWAV =      1    electr: 0-lowe 1-rand  2-diag
   LASPH  =      F    aspherical Exc in radial PAW
   METAGGA=      F    non-selfconsistent MetaGGA calc.

 Electronic Relaxation 1
   ENCUT  =  500.0 eV  36.75 Ry    6.06 a.u.  16.07 16.07 48.78*2*pi/ulx,y,z
   ENINI  =  500.0     initial cutoff
   ENAUG  =  644.9 eV  augmentation charge cutoff
   NELM   =    150;   NELMIN=  2; NELMDL= -5     # of ELM steps 
   EDIFF  = 0.1E-04   stopping-criterion for ELM
   LREAL  =      T    real-space projection
   NLSPLINE    = F    spline interpolate recip. space projectors
   LCOMPAT=      F    compatible to vasp.4.4
   GGA_COMPAT  = T    GGA compatible to vasp.4.4-vasp.4.6
   LMAXPAW     = -100 max onsite density
   LMAXMIX     =    2 max onsite mixed and CHGCAR
   VOSKOWN=      0    Vosko Wilk Nusair interpolation
   ROPT   =   -0.00050  -0.00050  -0.00050  -0.00050
   ROPT   =   -0.00050
 Ionic relaxation
   EDIFFG = -.1E-01   stopping-criterion for IOM
   NSW    =      0    number of steps for IOM
   NBLOCK =      1;   KBLOCK =      1    inner block; outer block 
   IBRION =     -1    ionic relax: 0-MD 1-quasi-New 2-CG
   NFREE  =      1    steps in history (QN), initial steepest desc. (CG)
   ISIF   =      2    stress and relaxation
   IWAVPR =     10    prediction:  0-non 1-charg 2-wave 3-comb
   ISYM   =      2    0-nonsym 1-usesym 2-fastsym
   LCORR  =      T    Harris-Foulkes like correction to forces

   POTIM  = 0.5000    time-step for ionic-motion
   TEIN   =    0.0    initial temperature
   TEBEG  =    0.0;   TEEND  =   0.0 temperature during run
   SMASS  =  -3.00    Nose mass-parameter (am)
   estimated Nose-frequenzy (Omega)   =  0.10E-29 period in steps = 0.13E+47 mass=  -0.178E-26a.u.
   SCALEE = 1.0000    scale energy and forces
   NPACO  =    256;   APACO  = 16.0  distance and # of slots for P.C.
   PSTRESS=    0.0 pullay stress

  Mass of Ions in am
   POMASS = 196.97190.20 12.01 16.00  1.00
  Ionic Valenz
   ZVAL   =  11.00  8.00  4.00  6.00  1.00
  Atomic Wigner-Seitz radii
   RWIGS  =  -1.00 -1.00 -1.00 -1.00 -1.00
  virtual crystal weights 
   VCA    =   1.00  1.00  1.00  1.00  1.00
   NELECT =     404.0000    total number of electrons
   NUPDOWN=      -1.0000    fix difference up-down

 DOS related values:
   EMIN   =  10.00;   EMAX   =-10.00  energy-range for DOS
   EFERMI =   0.00
   ISMEAR =    -5;   SIGMA  =   0.10  broadening in eV -4-tet -1-fermi 0-gaus

 Electronic relaxation 2 (details)
   IALGO  =     68    algorithm
   LDIAG  =      T    sub-space diagonalisation (order eigenvalues)
   LSUBROT=      F    optimize rotation matrix (better conditioning)
   TURBO    =      0    0=normal 1=particle mesh
   IRESTART =      0    0=no restart 2=restart with 2 vectors
   NREBOOT  =      0    no. of reboots
   NMIN     =      0    reboot dimension
   EREF     =   0.00    reference energy to select bands
   IMIX   =      4    mixing-type and parameters
     AMIX     =   0.40;   BMIX     =  1.00
     AMIX_MAG =   1.60;   BMIX_MAG =  1.00
     AMIN     =   0.10
     WC   =   100.;   INIMIX=   1;  MIXPRE=   1;  MAXMIX= -45

 Intra band minimization:
   WEIMIN = 0.0000     energy-eigenvalue tresh-hold
   EBREAK =  0.99E-08  absolut break condition
   DEPER  =   0.30     relativ break condition  

   TIME   =   0.40     timestep for ELM

  volume/ion in A,a.u.               =      46.15       311.43
  Fermi-wavevector in a.u.,A,eV,Ry     =   0.994926  1.880138 13.468105  0.989878
  Thomas-Fermi vector in A             =   2.126911
 
 Write flags
   LWAVE        =      F    write WAVECAR
   LDOWNSAMPLE  =      F    k-point downsampling of WAVECAR
   LCHARG       =      F    write CHGCAR
   LVTOT        =      F    write LOCPOT, total local potential
   LVHAR        =      F    write LOCPOT, Hartree potential only
   LELF         =      F    write electronic localiz. function (ELF)
   LORBIT       =     10    0 simple, 1 ext, 2 COOP (PROOUT), +10 PAW based schemes


 Dipole corrections
   LMONO  =      F    monopole corrections only (constant potential shift)
   LDIPOL =      F    correct potential (dipole corrections)
   IDIPOL =      0    1-x, 2-y, 3-z, 4-all directions 
   EPSILON=  1.0000000 bulk dielectric constant

 Exchange correlation treatment:
   GGA     =    --    GGA type
   LEXCH   =     8    internal setting for exchange type
   VOSKOWN=      0    Vosko Wilk Nusair interpolation
   LHFCALC =     F    Hartree Fock is set to
   LHFONE  =     F    Hartree Fock one center treatment
   AEXX    =    0.0000 exact exchange contribution

 Linear response parameters
   LEPSILON=     F    determine dielectric tensor
   LRPA    =     F    only Hartree local field effects (RPA)
   LNABLA  =     F    use nabla operator in PAW spheres
   LVEL    =     F    velocity operator in full k-point grid
   LINTERFAST=   F  fast interpolation
   KINTER  =     0    interpolate to denser k-point grid
   CSHIFT  =0.1000    complex shift for real part using Kramers Kronig
   OMEGAMAX=  -1.0    maximum frequency
   DEG_THRESHOLD= 0.2000000E-02 threshold for treating states as degnerate
   RTIME   =   -0.100 relaxation time in fs
  (WPLASMAI=    0.000 imaginary part of plasma frequency in eV, 0.658/RTIME)
   DFIELD  = 0.0000000 0.0000000 0.0000000 field for delta impulse in time
 
 Orbital magnetization related:
   ORBITALMAG=     F  switch on orbital magnetization
   LCHIMAG   =     F  perturbation theory with respect to B field
   DQ        =  0.001000  dq finite difference perturbation B field
   LLRAUG    =     F  two centre corrections for induced B field



--------------------------------------------------------------------------------------------------------


 Static calculation
 charge density and potential remain constant during run
 non-spin polarized calculation
 RMM-DIIS sequential band-by-band and
  variant of blocked Davidson during initial phase
 perform sub-space diagonalisation
    before iterative eigenvector-optimisation
 no mixing
 using additional bands           50
 real space projection scheme for non local part
 use partial core corrections
 calculate Harris-corrections to forces 
   (improved forces if not selfconsistent)
 use gradient corrections 
 WARNING: stress and forces are not correct
  (second derivative of E(xc) not defined)
 use of overlap-Matrix (Vanderbilt PP)
 Fermi weights with tetrahedron method with Bloechl corrections


--------------------------------------------------------------------------------------------------------


  energy-cutoff  :      500.00
  volume of cell :     1799.84
      direct lattice vectors                 reciprocal lattice vectors
     8.813512802  0.000000000  0.000000000     0.113462137 -0.065507406  0.000000000
     4.406756909  7.632725690  0.000000000     0.000000000  0.131014796  0.000000000
     0.000000000  0.000000000 26.754991198     0.000000000  0.000000000  0.037376204

  length of vectors
     8.813512802  8.813512802 26.754991198     0.131014796  0.131014796  0.037376204


 
 k-points in units of 2pi/SCALE and weight: Automatic mesh                          
   0.00000000  0.00000000  0.00000000       0.016
   0.01418277 -0.00818843  0.00000000       0.094
   0.02836553 -0.01637685  0.00000000       0.094
   0.04254830 -0.02456528  0.00000000       0.094
   0.05673107 -0.03275370  0.00000000       0.047
   0.02836553 -0.00000000  0.00000000       0.094
   0.04254830 -0.00818843  0.00000000       0.188
   0.05673107 -0.01637685  0.00000000       0.188
   0.05673107 -0.00000000  0.00000000       0.094
  -0.04254830  0.05731898  0.00000000       0.094
 
 k-points in reciprocal lattice and weights: Automatic mesh                          
   0.00000000  0.00000000  0.00000000       0.016
   0.12500000  0.00000000  0.00000000       0.094
   0.25000000  0.00000000  0.00000000       0.094
   0.37500000  0.00000000  0.00000000       0.094
   0.50000000  0.00000000  0.00000000       0.047
   0.25000000  0.12500000  0.00000000       0.094
   0.37500000  0.12500000  0.00000000       0.188
   0.50000000  0.12500000  0.00000000       0.188
   0.50000000  0.25000000  0.00000000       0.094
  -0.37500000  0.25000000  0.00000000       0.094
 
 position of ions in fractional coordinates (direct lattice) 
   0.00000000  0.00000000  0.19736056
   0.33333334  0.00000000  0.19736056
   0.66666669  0.00000000  0.19736056
   0.00000000  0.33333334  0.19736056
   0.33333331  0.33333334  0.19736056
   0.66666669  0.33333334  0.19736056
   0.00000000  0.66666669  0.19736056
   0.33333334  0.66666669  0.19736056
   0.66666663  0.66666669  0.19736056
   0.11111112  0.11111111  0.28701613
   0.44444442  0.11111111  0.28701613
   0.77777779  0.11111111  0.28701613
   0.11111113  0.44444445  0.28701613
   0.44444448  0.44444445  0.28701613
   0.77777773  0.44444445  0.28701613
   0.11111109  0.77777779  0.28701613
   0.44444445  0.77777779  0.28701613
   0.77777785  0.77777779  0.28701613
   0.88843391  0.22313220  0.37731088
   0.22184588  0.22184587  0.37509638
   0.55630829  0.22184587  0.37509638
   0.88624689  0.55687658  0.37611162
   0.22184584  0.55630829  0.37509638
   0.55687658  0.55687658  0.37611162
   0.88843391  0.88843391  0.37731088
   0.22313223  0.88843391  0.37731088
   0.55687652  0.88624689  0.37611162
   0.00000000  0.00000000  0.46716418
   0.33331149  0.00850954  0.46730424
   0.65817900  0.00850954  0.46730424
   0.00850954  0.33331149  0.46730424
   0.65817900  0.33331149  0.46730424
   0.00850954  0.65817900  0.46730424
   0.33331149  0.65817900  0.46730424
   0.66666663  0.66666669  0.46705348
   0.33333331  0.33333334  0.45654535
   0.33333331  0.33333334  0.52269123
   0.33333331  0.33333334  0.56926396
   0.33333331  0.33333334  0.60510808
 
 position of ions in cartesian coordinates  (Angst):
   0.00000000  0.00000000  5.28037993
   2.93783769  0.00000000  5.28037993
   5.87567538  0.00000000  5.28037993
   1.46891901  2.54424197  5.28037993
   4.40675643  2.54424197  5.28037993
   7.34459439  2.54424197  5.28037993
   2.93783803  5.08848395  5.28037993
   5.87567571  5.08848395  5.28037993
   8.81351288  5.08848395  5.28037993
   1.46891893  0.84808064  7.67911405
   4.40675623  0.84808064  7.67911405
   7.34459418  0.84808064  7.67911405
   2.93783798  3.39232256  7.67911405
   5.87567574  3.39232256  7.67911405
   8.81351263  3.39232256  7.67911405
   4.40675667  5.93656453  7.67911405
   7.34459449  5.93656453  7.67911405
  10.28243270  5.93656453  7.67911405
   8.81351299  1.70310691 10.09494923
   2.93286235  1.69328866 10.03570041
   5.88065107  1.69328866 10.03570041
  10.26496806  4.25048621 10.06286304
   4.40675655  4.24614860 10.03570041
   7.36205863  4.25048621 10.06286304
  11.74533585  6.78117230 10.09494923
   5.88169106  6.78117230 10.09494923
   8.81351299  6.76447942 10.06286304
   0.00000000  0.00000000 12.49897366
   2.97514452  0.06495099 12.50272073
   5.83836856  0.06495099 12.50272073
   1.54382163  2.54407513 12.50272073
   7.26969177  2.54407513 12.50272073
   2.97543382  5.02369980 12.50272073
   5.83807992  5.02369980 12.50272073
   8.81351288  5.08848395 12.49601187
   4.40675643  2.54424197 12.21486684
   4.40675643  2.54424197 13.98459924
   4.40675643  2.54424197 15.23065217
   4.40675643  2.54424197 16.18966147
 


--------------------------------------------------------------------------------------------------------


 k-point   1 :   0.0000 0.0000 0.0000  plane waves:   45655
 k-point   2 :   0.1250 0.0000 0.0000  plane waves:   45660
 k-point   3 :   0.2500 0.0000 0.0000  plane waves:   45682
 k-point   4 :   0.3750 0.0000 0.0000  plane waves:   45716
 k-point   5 :   0.5000 0.0000 0.0000  plane waves:   45700
 k-point   6 :   0.2500 0.1250 0.0000  plane waves:   45658
 k-point   7 :   0.3750 0.1250 0.0000  plane waves:   45702
 k-point   8 :   0.5000 0.1250 0.0000  plane waves:   45722
 k-point   9 :   0.5000 0.2500 0.0000  plane waves:   45712
 k-point  10 :  -0.3750 0.2500 0.0000  plane waves:   45690

 maximum and minimum number of plane-waves per node :     45722    45655

 maximum number of plane-waves:     45722
 maximum index in each direction: 
   IXMAX=   16   IYMAX=   16   IZMAX=   48
   IXMIN=  -16   IYMIN=  -16   IZMIN=  -48


 serial   3D FFT for wavefunctions
 parallel 3D FFT for charge:
    minimum data exchange during FFTs selected (reduces bandwidth)


 total amount of memory used by VASP MPI-rank0   139984. kBytes
=======================================================================

   base      :      30000. kBytes
   nonlr-proj:      14292. kBytes
   fftplans  :       5150. kBytes
   grid      :      23126. kBytes
   one-center:        606. kBytes
   wavefun   :      66810. kBytes
 
     INWAV:  cpu time    0.0000: real time    0.0000
 initial charge density was supplied:
 number of electron     404.0000078 magnetization 
 keeping initial charge density in first step


--------------------------------------------------------------------------------------------------------


 Maximum index for non-local projection operator         2988
 Maximum index for augmentation-charges          843 (set IRDMAX)


--------------------------------------------------------------------------------------------------------


 First call to EWALD:  gamma=   0.146
 Maximum number of real-space cells 4x 4x 2
 Maximum number of reciprocal cells 2x 2x 5

    FEWALD:  cpu time    0.0014: real time    0.0014


--------------------------------------- Iteration      1(   1)  ---------------------------------------


    POTLOK:  cpu time    0.0508: real time    0.0511
    SETDIJ:  cpu time    0.0049: real time    0.0050
     EDDAV:  cpu time    8.3127: real time    8.3144
 BZINTS: Fermi energy:   10.734942;  404.031213 electrons
         Band energy: 0.137664E+04;  BLOECHL correction:   -0.002145
 WARNING: Fermi level nearly degenerate with energies of tetrahedron. This may
     result in numerical instabilities because the density changes by tiny
     changes of the Fermi energy. If the calculation converges, the total
     energy will still be reliable. If you notice convergence issues, you can
     try to
     *) Use a Gamma centered k-point grid
     *) Use tetrahedron method without corrections ISMEAR = -4
     *) Don't use tetrahedron method
        ISMEAR = 0 for semiconductors, 1 or 2 for metals

       DOS:  cpu time    0.0085: real time    0.0086
    --------------------------------------------
      LOOP:  cpu time    8.3770: real time    8.3791

 eigenvalue-minimisations  :  5040
 total energy-change (2. order) : 0.2690794E+04  (-0.1756465E+05)
 number of electron     404.0000078 magnetization 
 augmentation part      404.0000078 magnetization 

 Free energy of the ion-electron system (eV)
  ---------------------------------------------------
  alpha Z        PSCENC =       872.62971217
  Ewald energy   TEWEN  =    164547.39830707
  -Hartree energ DENC   =   -198833.01206550
  -exchange      EXHF   =         0.00000000
  -V(xc)+E(xc)   XCENC  =       530.37245553
  PAW double counting   =     36787.15776283   -36012.52887726
  entropy T*S    EENTRO =         0.00000000
  eigenvalues    EBANDS =      1376.30227665
  atomic energy  EATOM  =     33422.47451392
  Solvation  Ediel_sol  =         0.00000000
  ---------------------------------------------------
  free energy    TOTEN  =      2690.79408541 eV

  energy without entropy =     2690.79408541  energy(sigma->0) =     2690.79408541


--------------------------------------------------------------------------------------------------------




--------------------------------------- Iteration      1(   2)  ---------------------------------------


     EDDAV:  cpu time    9.1072: real time    9.1077
 BZINTS: Fermi energy:    1.309243;  404.000000 electrons
         Band energy:-0.127592E+04;  BLOECHL correction:   -0.054254
       DOS:  cpu time    0.0098: real time    0.0098
    --------------------------------------------
      LOOP:  cpu time    9.1170: real time    9.1174

 eigenvalue-minimisations  :  5684
 total energy-change (2. order) :-0.2652222E+04  (-0.2442693E+04)
 number of electron     404.0000078 magnetization 
 augmentation part      404.0000078 magnetization 

 Free energy of the ion-electron system (eV)
  ---------------------------------------------------
  alpha Z        PSCENC =       872.62971217
  Ewald energy   TEWEN  =    164547.39830707
  -Hartree energ DENC   =   -198833.01206550
  -exchange      EXHF   =         0.00000000
  -V(xc)+E(xc)   XCENC  =       530.37245553
  PAW double counting   =     36787.15776283   -36012.52887726
  entropy T*S    EENTRO =         0.00000000
  eigenvalues    EBANDS =     -1275.91982113
  atomic energy  EATOM  =     33422.47451392
  Solvation  Ediel_sol  =         0.00000000
  ---------------------------------------------------
  free energy    TOTEN  =        38.57198763 eV

  energy without entropy =       38.57198763  energy(sigma->0) =       38.57198763


--------------------------------------------------------------------------------------------------------




--------------------------------------- Iteration      1(   3)  ---------------------------------------


     EDDAV:  cpu time    9.3923: real time    9.3929
 BZINTS: Fermi energy:    0.372309;  404.000000 electrons
         Band energy:-0.144439E+04;  BLOECHL correction:   -0.073858
       DOS:  cpu time    0.0097: real time    0.0097
    --------------------------------------------
      LOOP:  cpu time    9.4020: real time    9.4025

 eigenvalue-minimisations  :  5880
 total energy-change (2. order) :-0.1684667E+03  (-0.1632454E+03)
 number of electron     404.0000078 magnetization 
 augmentation part      404.0000078 magnetization 

 Free energy of the ion-electron system (eV)
  ---------------------------------------------------
  alpha Z        PSCENC =       872.62971217
  Ewald energy   TEWEN  =    164547.39830707
  -Hartree energ DENC   =   -198833.01206550
  -exchange      EXHF   =         0.00000000
  -V(xc)+E(xc)   XCENC  =       530.37245553
  PAW double counting   =     36787.15776283   -36012.52887726
  entropy T*S    EENTRO =         0.00000000
  eigenvalues    EBANDS =     -1444.38648690
  atomic energy  EATOM  =     33422.47451392
  Solvation  Ediel_sol  =         0.00000000
  ---------------------------------------------------
  free energy    TOTEN  =      -129.89467815 eV

  energy without entropy =     -129.89467815  energy(sigma->0) =     -129.89467815


--------------------------------------------------------------------------------------------------------




--------------------------------------- Iteration      1(   4)  ---------------------------------------


     EDDAV:  cpu time    9.3079: real time    9.3082
 BZINTS: Fermi energy:    0.343103;  404.000000 electrons
         Band energy:-0.144837E+04;  BLOECHL correction:   -0.073203
       DOS:  cpu time    0.0104: real time    0.0104
    --------------------------------------------
      LOOP:  cpu time    9.3183: real time    9.3186

 eigenvalue-minimisations  :  5824
 total energy-change (2. order) :-0.3980307E+01  (-0.3955004E+01)
 number of electron     404.0000078 magnetization 
 augmentation part      404.0000078 magnetization 

 Free energy of the ion-electron system (eV)
  ---------------------------------------------------
  alpha Z        PSCENC =       872.62971217
  Ewald energy   TEWEN  =    164547.39830707
  -Hartree energ DENC   =   -198833.01206550
  -exchange      EXHF   =         0.00000000
  -V(xc)+E(xc)   XCENC  =       530.37245553
  PAW double counting   =     36787.15776283   -36012.52887726
  entropy T*S    EENTRO =         0.00000000
  eigenvalues    EBANDS =     -1448.36679345
  atomic energy  EATOM  =     33422.47451392
  Solvation  Ediel_sol  =         0.00000000
  ---------------------------------------------------
  free energy    TOTEN  =      -133.87498469 eV

  energy without entropy =     -133.87498469  energy(sigma->0) =     -133.87498469


--------------------------------------------------------------------------------------------------------




--------------------------------------- Iteration      1(   5)  ---------------------------------------


     EDDAV:  cpu time    9.7632: real time    9.7665
 BZINTS: Fermi energy:    0.342987;  404.000000 electrons
         Band energy:-0.144848E+04;  BLOECHL correction:   -0.073191
       DOS:  cpu time    0.0102: real time    0.0102
    --------------------------------------------
      LOOP:  cpu time    9.7734: real time    9.7767

 eigenvalue-minimisations  :  6160
 total energy-change (2. order) :-0.1177911E+00  (-0.1177413E+00)
 number of electron     404.0000078 magnetization 
 augmentation part      404.0000078 magnetization 

 Free energy of the ion-electron system (eV)
  ---------------------------------------------------
  alpha Z        PSCENC =       872.62971217
  Ewald energy   TEWEN  =    164547.39830707
  -Hartree energ DENC   =   -198833.01206550
  -exchange      EXHF   =         0.00000000
  -V(xc)+E(xc)   XCENC  =       530.37245553
  PAW double counting   =     36787.15776283   -36012.52887726
  entropy T*S    EENTRO =         0.00000000
  eigenvalues    EBANDS =     -1448.48458460
  atomic energy  EATOM  =     33422.47451392
  Solvation  Ediel_sol  =         0.00000000
  ---------------------------------------------------
  free energy    TOTEN  =      -133.99277584 eV

  energy without entropy =     -133.99277584  energy(sigma->0) =     -133.99277584


--------------------------------------------------------------------------------------------------------




--------------------------------------- Iteration      1(   6)  ---------------------------------------


    EDDIAG:  cpu time    1.6477: real time    1.6479
  RMM-DIIS:  cpu time    4.9307: real time    4.9309
    ORTHCH:  cpu time    0.3042: real time    0.3042
 BZINTS: Fermi energy:    0.342986;  404.000000 electrons
         Band energy:-0.144849E+04;  BLOECHL correction:   -0.073191
       DOS:  cpu time    0.0103: real time    0.0103
    --------------------------------------------
      LOOP:  cpu time    6.8929: real time    6.8933

 eigenvalue-minimisations  :  5205
 total energy-change (2. order) :-0.3001161E-02  (-0.3001138E-02)
 number of electron     404.0000078 magnetization 
 augmentation part      404.0000078 magnetization 

 Free energy of the ion-electron system (eV)
  ---------------------------------------------------
  alpha Z        PSCENC =       872.62971217
  Ewald energy   TEWEN  =    164547.39830707
  -Hartree energ DENC   =   -198833.01206550
  -exchange      EXHF   =         0.00000000
  -V(xc)+E(xc)   XCENC  =       530.37245553
  PAW double counting   =     36787.15776283   -36012.52887726
  entropy T*S    EENTRO =         0.00000000
  eigenvalues    EBANDS =     -1448.48758576
  atomic energy  EATOM  =     33422.47451392
  Solvation  Ediel_sol  =         0.00000000
  ---------------------------------------------------
  free energy    TOTEN  =      -133.99577700 eV

  energy without entropy =     -133.99577700  energy(sigma->0) =     -133.99577700


--------------------------------------------------------------------------------------------------------




--------------------------------------- Iteration      1(   7)  ---------------------------------------


    EDDIAG:  cpu time    1.6502: real time    1.6504
  RMM-DIIS:  cpu time    6.7009: real time    6.7012
    ORTHCH:  cpu time    0.3035: real time    0.3035
 BZINTS: Fermi energy:    0.342985;  404.000000 electrons
         Band energy:-0.144849E+04;  BLOECHL correction:   -0.073191
       DOS:  cpu time    0.0106: real time    0.0106
    --------------------------------------------
      LOOP:  cpu time    8.6652: real time    8.6655

 eigenvalue-minimisations  :  7234
 total energy-change (2. order) :-0.1063626E-02  (-0.1061009E-02)
 number of electron     404.0000078 magnetization 
 augmentation part      404.0000078 magnetization 

 Free energy of the ion-electron system (eV)
  ---------------------------------------------------
  alpha Z        PSCENC =       872.62971217
  Ewald energy   TEWEN  =    164547.39830707
  -Hartree energ DENC   =   -198833.01206550
  -exchange      EXHF   =         0.00000000
  -V(xc)+E(xc)   XCENC  =       530.37245553
  PAW double counting   =     36787.15776283   -36012.52887726
  entropy T*S    EENTRO =         0.00000000
  eigenvalues    EBANDS =     -1448.48864939
  atomic energy  EATOM  =     33422.47451392
  Solvation  Ediel_sol  =         0.00000000
  ---------------------------------------------------
  free energy    TOTEN  =      -133.99684063 eV

  energy without entropy =     -133.99684063  energy(sigma->0) =     -133.99684063


--------------------------------------------------------------------------------------------------------




--------------------------------------- Iteration      1(   8)  ---------------------------------------


    EDDIAG:  cpu time    1.6500: real time    1.6502
  RMM-DIIS:  cpu time    5.3659: real time    5.3661
    ORTHCH:  cpu time    0.3045: real time    0.3045
 BZINTS: Fermi energy:    0.342985;  404.000000 electrons
         Band energy:-0.144849E+04;  BLOECHL correction:   -0.073191
       DOS:  cpu time    0.0101: real time    0.0101
    --------------------------------------------
      LOOP:  cpu time    7.3306: real time    7.3310

 eigenvalue-minimisations  :  5696
 total energy-change (2. order) :-0.4154074E-04  (-0.4178213E-04)
 number of electron     404.0000078 magnetization 
 augmentation part      404.0000078 magnetization 

 Free energy of the ion-electron system (eV)
  ---------------------------------------------------
  alpha Z        PSCENC =       872.62971217
  Ewald energy   TEWEN  =    164547.39830707
  -Hartree energ DENC   =   -198833.01206550
  -exchange      EXHF   =         0.00000000
  -V(xc)+E(xc)   XCENC  =       530.37245553
  PAW double counting   =     36787.15776283   -36012.52887726
  entropy T*S    EENTRO =         0.00000000
  eigenvalues    EBANDS =     -1448.48869093
  atomic energy  EATOM  =     33422.47451392
  Solvation  Ediel_sol  =         0.00000000
  ---------------------------------------------------
  free energy    TOTEN  =      -133.99688217 eV

  energy without entropy =     -133.99688217  energy(sigma->0) =     -133.99688217


--------------------------------------------------------------------------------------------------------




--------------------------------------- Iteration      1(   9)  ---------------------------------------


    EDDIAG:  cpu time    1.6501: real time    1.6502
  RMM-DIIS:  cpu time    4.7877: real time    4.7879
    ORTHCH:  cpu time    0.3042: real time    0.3042
 BZINTS: Fermi energy:    0.342985;  404.000000 electrons
         Band energy:-0.144849E+04;  BLOECHL correction:   -0.073191
       DOS:  cpu time    0.0103: real time    0.0103
    --------------------------------------------
      LOOP:  cpu time    6.7523: real time    6.7526

 eigenvalue-minimisations  :  4564
 total energy-change (2. order) :-0.9473530E-05  (-0.9435427E-05)
 number of electron     404.0000078 magnetization 
 augmentation part      404.0000078 magnetization 

 Free energy of the ion-electron system (eV)
  ---------------------------------------------------
  alpha Z        PSCENC =       872.62971217
  Ewald energy   TEWEN  =    164547.39830707
  -Hartree energ DENC   =   -198833.01206550
  -exchange      EXHF   =         0.00000000
  -V(xc)+E(xc)   XCENC  =       530.37245553
  PAW double counting   =     36787.15776283   -36012.52887726
  entropy T*S    EENTRO =         0.00000000
  eigenvalues    EBANDS =     -1448.48870040
  atomic energy  EATOM  =     33422.47451392
  Solvation  Ediel_sol  =         0.00000000
  ---------------------------------------------------
  free energy    TOTEN  =      -133.99689164 eV

  energy without entropy =     -133.99689164  energy(sigma->0) =     -133.99689164


--------------------------------------------------------------------------------------------------------




 average (electrostatic) potential at core
  the test charge radii are     1.2098  1.1957  0.6991  0.7215  0.5201
  (the norm of the test charge is              1.0000)
       1 -72.7269       2 -72.6799       3 -72.6798       4 -72.6799       5 -72.6785
       6 -72.6796       7 -72.6798       8 -72.6796       9 -72.6912      10 -73.0435
      11 -72.9819      12 -73.0434      13 -72.9819      14 -72.9816      15 -73.0198
      16 -73.0434      17 -73.0198      18 -73.0200      19 -72.9493      20 -73.1661
      21 -73.1659      22 -72.9924      23 -73.1659      24 -72.9920      25 -72.9495
      26 -72.9493      27 -72.9924      28 -72.5859      29 -72.6653      30 -72.6654
      31 -72.6653      32 -72.6651      33 -72.6654      34 -72.6651      35 -72.5462
      36 -51.8679      37 -57.5326      38 -79.3860      39 -43.6619
 
 
 
 E-fermi :   0.3430     XC(G=0):  -5.2263     alpha+bet : -4.8493

 Fermi energy:         0.3429853068

 k-point     1 :       0.0000    0.0000    0.0000
  band No.  band energies     occupation 
      1     -24.5230      2.00000
      2     -15.1480      2.00000
      3      -8.9583      2.00000
      4      -8.3509      2.00000
      5      -7.2995      2.00000
      6      -7.2993      2.00000
      7      -7.2409      2.00000
      8      -6.3584      2.00000
      9      -6.3484      2.00000
     10      -6.3484      2.00000
     11      -6.3145      2.00000
     12      -6.2875      2.00000
     13      -6.2753      2.00000
     14      -6.2753      2.00000
     15      -6.2678      2.00000
     16      -5.8542      2.00000
     17      -5.8542      2.00000
     18      -5.8513      2.00000
     19      -5.7943      2.00000
     20      -5.7943      2.00000
     21      -5.7896      2.00000
     22      -5.4768      2.00000
     23      -5.4667      2.00000
     24      -5.4667      2.00000
     25      -5.4290      2.00000
     26      -5.4182      2.00000
     27      -5.4181      2.00000
     28      -5.2736      2.00000
     29      -5.2736      2.00000
     30      -5.2671      2.00000
     31      -5.2671      2.00000
     32      -5.2635      2.00000
     33      -5.2349      2.00000
     34      -5.1203      2.00000
     35      -5.1203      2.00000
     36      -5.1040      2.00000
     37      -5.1040      2.00000
     38      -5.0917      2.00000
     39      -5.0796      2.00000
     40      -5.0693      2.00000
     41      -5.0693      2.00000
     42      -5.0624      2.00000
     43      -5.0573      2.00000
     44      -5.0311      2.00000
     45      -5.0311      2.00000
     46      -4.6151      2.00000
     47      -4.6151      2.00000
     48      -4.5935      2.00000
     49      -4.5935      2.00000
     50      -4.5617      2.00000
     51      -4.5338      2.00000
     52      -4.5337      2.00000
     53      -4.5300      2.00000
     54      -4.5129      2.00000
     55      -4.5128      2.00000
     56      -4.4351      2.00000
     57      -4.4279      2.00000
     58      -4.3860      2.00000
     59      -4.3616      2.00000
     60      -4.0317      2.00000
     61      -4.0317      2.00000
     62      -4.0238      2.00000
     63      -4.0115      2.00000
     64      -4.0010      2.00000
     65      -3.9962      2.00000
     66      -3.9961      2.00000
     67      -3.9405      2.00000
     68      -3.9405      2.00000
     69      -3.8962      2.00000
     70      -3.8962      2.00000
     71      -3.8621      2.00000
     72      -3.8469      2.00000
     73      -3.8469      2.00000
     74      -3.7830      2.00000
     75      -3.7786      2.00000
     76      -3.7786      2.00000
     77      -3.7618      2.00000
     78      -3.7618      2.00000
     79      -3.7499      2.00000
     80      -3.7408      2.00000
     81      -3.7408      2.00000
     82      -3.7375      2.00000
     83      -3.7302      2.00000
     84      -3.7301      2.00000
     85      -3.7055      2.00000
     86      -3.7055      2.00000
     87      -3.6647      2.00000
     88      -3.6647      2.00000
     89      -3.6583      2.00000
     90      -3.6176      2.00000
     91      -3.5965      2.00000
     92      -3.5964      2.00000
     93      -3.5733      2.00000
     94      -3.5186      2.00000
     95      -3.5186      2.00000
     96      -3.5064      2.00000
     97      -3.5064      2.00000
     98      -3.4040      2.00000
     99      -3.4039      2.00000
    100      -3.3297      2.00000
    101      -3.3297      2.00000
[...]
  0.000   0.000   0.000   0.000   0.000   0.000   0.000   0.000   0.000   0.000   1.000   0.000   0.000   0.000   0.000   0.000
  0.000   0.000   0.000   0.000   0.000   0.000   0.000   0.000   0.000   0.000   0.000   0.000   0.000   0.000   0.000   0.000
  0.000   0.000   0.000   0.000   0.000   0.000   0.000   0.000   0.000   0.000   0.000   0.000   0.000   0.000   0.000   0.000
  0.000   0.000   0.000   0.000   0.000   0.000   0.000   0.000   0.000   0.000   0.000   0.000   0.000   0.000   0.000   0.000
  0.000   0.000   0.000   0.000   0.000   0.000   0.000   0.000   0.000   0.000   0.000   0.000   0.000   0.000   0.000   0.000
  0.000   0.000   0.000   0.000   0.000   0.000   0.000   0.000   0.000   0.000   0.000   0.000   0.000   0.000   0.000   0.000
  0.000   0.000   0.000   0.000   0.000   0.000   0.000   0.000   0.000   0.000   0.000   0.000   0.000   0.000   0.000   0.000
  0.000   0.000   0.000   0.000   0.000   0.000   0.000   0.000   0.000   0.000   0.000   0.000   0.000   0.000   0.000   0.000


------------------------ aborting loop because EDIFF is reached ----------------------------------------





 total charge

# of ion       s       p       d       tot
------------------------------------------
    1        0.546   0.239   8.768   9.553
    2        0.545   0.241   8.764   9.551
    3        0.545   0.241   8.764   9.551
    4        0.545   0.241   8.764   9.551
    5        0.544   0.242   8.761   9.548
    6        0.545   0.241   8.764   9.551
    7        0.545   0.241   8.764   9.551
    8        0.545   0.241   8.764   9.551
    9        0.541   0.240   8.769   9.550
   10        0.521   0.307   8.769   9.598
   11        0.522   0.308   8.779   9.609
   12        0.521   0.307   8.769   9.598
   13        0.522   0.308   8.779   9.609
   14        0.522   0.308   8.779   9.609
   15        0.512   0.310   8.773   9.595
   16        0.521   0.307   8.769   9.598
   17        0.512   0.310   8.773   9.595
   18        0.512   0.310   8.773   9.595
   19        0.518   0.298   8.775   9.591
   20        0.552   0.337   8.749   9.638
   21        0.552   0.337   8.749   9.638
   22        0.509   0.310   8.774   9.593
   23        0.552   0.337   8.749   9.638
   24        0.509   0.310   8.774   9.593
   25        0.518   0.298   8.775   9.591
   26        0.518   0.298   8.775   9.591
   27        0.509   0.310   8.774   9.593
   28        0.544   0.228   8.767   9.539
   29        0.544   0.254   8.759   9.557
   30        0.544   0.254   8.759   9.557
   31        0.544   0.254   8.759   9.557
   32        0.544   0.254   8.759   9.557
   33        0.544   0.254   8.759   9.557
   34        0.544   0.254   8.759   9.557
   35        0.539   0.227   8.770   9.536
   36        0.597   0.628   6.126   7.351
   37        0.918   1.498   0.000   2.416
   38        1.523   3.778   0.000   5.302
   39        0.556   0.135   0.000   0.692
--------------------------------------------------
tot         22.249  15.799 312.959 351.008
 
    CHARGE:  cpu time    0.4405: real time    0.4406
    FORLOC:  cpu time    0.0141: real time    0.0141
    FORNL :  cpu time    1.7115: real time    1.7116
    STRESS:  cpu time    5.1354: real time    5.1358
    FORCOR:  cpu time    0.0692: real time    0.0694
    FORHAR:  cpu time    0.0223: real time    0.0225
    OFIELD:  cpu time    0.0003: real time    0.0003

  FORCE on cell =-STRESS in cart. coord.  units (eV):
  Direction    XX          YY          ZZ          XY          YZ          ZX
  --------------------------------------------------------------------------------------
  Alpha Z   872.62971   872.62971   872.62971
  Ewald  187017.11741187017.11785************    -0.00031    -0.00008    -0.00012
  Hartree195591.49399195591.49400************     0.00001    -0.00002    -0.00004
  E(xc)   -1812.72513 -1812.72529 -1818.29705     0.00013    -0.00001    -0.00002
  Local  ************************394787.31690     0.00217    -0.00000    -0.00003
  n-local  -132.32564   -83.97854   -80.10575    23.56485    -1.41785     1.34053
  augment  2392.52389  2392.52544  2400.47429    -0.00134    -0.00000     0.00004
  Kinetic  5684.29374  5696.40601  5655.61719     6.70513     0.09089     0.25970
  Fock        0.00000     0.00000     0.00000     0.00000     0.00000     0.00000
  -------------------------------------------------------------------------------------
  Total     -19.06159   -19.06159     2.58758    -0.00000     0.00000    -0.00000
  in kB     -16.96822   -16.96822     2.30341    -0.00000     0.00000    -0.00000
  external pressure =      -10.54 kB  Pullay stress =        0.00 kB


 VOLUME and BASIS-vectors are now :
 -----------------------------------------------------------------------------
  energy-cutoff  :      500.00
  volume of cell :     1799.84
      direct lattice vectors                 reciprocal lattice vectors
     8.813512802  0.000000000  0.000000000     0.113462137 -0.065507406  0.000000000
     4.406756909  7.632725690  0.000000000     0.000000000  0.131014796  0.000000000
     0.000000000  0.000000000 26.754991198     0.000000000  0.000000000  0.037376204

  length of vectors
     8.813512802  8.813512802 26.754991198     0.131014796  0.131014796  0.037376204


 FORCES acting on ions
    electron-ion (+dipol)            ewald-force                    non-local-force                 convergence-correction
 -----------------------------------------------------------------------------------------------
   -.202E-04 -.165E-04 0.283E+04   0.520E-04 0.434E-04 -.283E+04   0.231E-17 0.144E-18 -.956E+00   -.203E-03 -.130E-03 -.364E+00
   0.683E+00 0.347E+00 0.283E+04   -.786E+00 -.408E+00 -.283E+04   0.354E-01 0.769E-01 -.285E+00   0.674E-01 0.244E-02 -.392E+00
   -.684E+00 0.347E+00 0.283E+04   0.786E+00 -.408E+00 -.283E+04   -.354E-01 0.769E-01 -.285E+00   -.671E-01 0.441E-02 -.391E+00
   0.642E+00 0.418E+00 0.283E+04   -.747E+00 -.476E+00 -.283E+04   0.843E-01 -.776E-02 -.285E+00   0.359E-01 0.571E-01 -.392E+00
   0.104E-04 -.223E-04 0.284E+04   0.951E-04 0.175E-05 -.284E+04   -.548E-17 0.369E-17 -.120E+00   0.430E-02 0.262E-02 -.401E+00
   -.642E+00 0.418E+00 0.283E+04   0.747E+00 -.476E+00 -.283E+04   -.843E-01 -.776E-02 -.285E+00   -.374E-01 0.581E-01 -.391E+00
   -.412E-01 -.765E+00 0.283E+04   0.392E-01 0.885E+00 -.283E+04   0.489E-01 -.691E-01 -.285E+00   -.297E-01 -.604E-01 -.391E+00
   0.412E-01 -.765E+00 0.283E+04   -.393E-01 0.885E+00 -.283E+04   -.489E-01 -.691E-01 -.285E+00   0.316E-01 -.615E-01 -.391E+00
   0.197E-04 -.414E-04 0.283E+04   0.166E-03 -.201E-04 -.283E+04   0.556E-17 0.268E-17 -.607E+00   -.464E-02 -.240E-02 -.356E+00
   0.799E+01 0.461E+01 0.984E+03   -.766E+01 -.442E+01 -.983E+03   -.377E+00 -.218E+00 -.637E+00   0.287E-01 0.165E-01 -.160E+00
   0.148E-04 0.514E+01 0.992E+03   0.148E-03 -.510E+01 -.992E+03   0.243E-08 0.364E-01 -.296E+00   0.380E-02 -.127E+00 -.192E+00
   -.799E+01 0.461E+01 0.984E+03   0.765E+01 -.442E+01 -.983E+03   0.377E+00 -.218E+00 -.637E+00   -.300E-01 0.180E-01 -.160E+00
   0.445E+01 -.257E+01 0.992E+03   -.442E+01 0.255E+01 -.992E+03   0.316E-01 -.182E-01 -.296E+00   -.108E+00 0.671E-01 -.192E+00
   -.445E+01 -.257E+01 0.992E+03   0.442E+01 0.255E+01 -.992E+03   -.316E-01 -.182E-01 -.296E+00   0.116E+00 0.667E-01 -.192E+00
   0.311E-04 0.476E+01 0.988E+03   0.236E-03 -.484E+01 -.987E+03   -.199E-08 -.299E-01 -.481E+00   -.241E-02 0.612E-01 -.184E+00
   -.210E-04 -.923E+01 0.984E+03   0.163E-03 0.884E+01 -.983E+03   0.290E-07 0.436E+00 -.637E+00   0.297E-03 -.350E-01 -.160E+00
   0.412E+01 -.238E+01 0.988E+03   -.420E+01 0.242E+01 -.987E+03   -.259E-01 0.150E-01 -.481E+00   0.520E-01 -.322E-01 -.184E+00
   -.412E+01 -.238E+01 0.988E+03   0.420E+01 0.242E+01 -.987E+03   0.259E-01 0.150E-01 -.481E+00   -.521E-01 -.303E-01 -.184E+00
   -.430E-04 0.494E+01 -.903E+03   0.535E-04 -.494E+01 0.902E+03   -.355E-08 -.534E-01 0.601E+00   -.533E-03 0.302E-01 0.957E-01
   0.139E+02 0.804E+01 -.844E+03   -.130E+02 -.750E+01 0.844E+03   -.985E+00 -.569E+00 -.104E+01   -.513E-02 -.310E-02 0.176E+00
   -.139E+02 0.804E+01 -.844E+03   0.130E+02 -.750E+01 0.844E+03   0.985E+00 -.569E+00 -.104E+01   0.610E-02 -.120E-02 0.175E+00
   -.112E+01 0.645E+00 -.880E+03   0.743E+00 -.429E+00 0.879E+03   0.397E+00 -.229E+00 0.658E+00   0.805E-02 -.908E-02 0.268E-01
   -.120E-04 -.161E+02 -.844E+03   0.142E-03 0.150E+02 0.844E+03   0.757E-07 0.114E+01 -.104E+01   0.175E-02 0.589E-02 0.175E+00
   0.112E+01 0.645E+00 -.880E+03   -.743E+00 -.429E+00 0.879E+03   -.397E+00 -.229E+00 0.658E+00   -.150E-01 -.861E-02 0.268E-01
   -.428E+01 -.247E+01 -.903E+03   0.428E+01 0.247E+01 0.902E+03   0.462E-01 0.267E-01 0.601E+00   -.243E-01 -.141E-01 0.953E-01
   0.428E+01 -.247E+01 -.903E+03   -.428E+01 0.247E+01 0.902E+03   -.462E-01 0.267E-01 0.601E+00   0.262E-01 -.155E-01 0.957E-01
   0.913E-05 -.129E+01 -.880E+03   0.198E-03 0.858E+00 0.879E+03   0.305E-07 0.459E+00 0.658E+00   -.439E-02 0.115E-01 0.269E-01
   -.147E-04 -.136E-04 -.273E+04   0.302E-04 0.350E-04 0.273E+04   -.185E-17 0.113E-20 0.307E+00   0.101E-03 0.400E-04 0.383E+00
   0.335E+02 0.586E+02 -.270E+04   -.332E+02 -.584E+02 0.270E+04   -.483E+00 -.633E+00 0.324E+00   0.505E-01 0.372E-01 0.406E+00
   -.335E+02 0.586E+02 -.270E+04   0.332E+02 -.584E+02 0.270E+04   0.483E+00 -.633E+00 0.324E+00   -.503E-01 0.392E-01 0.407E+00
   0.675E+02 -.315E+00 -.270E+04   -.671E+02 0.429E+00 0.270E+04   -.790E+00 -.102E+00 0.324E+00   0.575E-01 0.250E-01 0.406E+00
   -.675E+02 -.315E+00 -.270E+04   0.671E+02 0.429E+00 0.270E+04   0.790E+00 -.102E+00 0.324E+00   -.589E-01 0.262E-01 0.406E+00
   0.340E+02 -.583E+02 -.270E+04   -.339E+02 0.579E+02 0.270E+04   -.307E+00 0.735E+00 0.324E+00   0.885E-02 -.632E-01 0.407E+00
   -.340E+02 -.583E+02 -.270E+04   0.339E+02 0.579E+02 0.270E+04   0.307E+00 0.735E+00 0.324E+00   -.674E-02 -.640E-01 0.406E+00
   0.330E-04 -.269E-04 -.273E+04   0.142E-03 -.506E-04 0.273E+04   0.673E-17 -.219E-17 0.414E+00   -.478E-02 -.247E-02 0.465E+00
   0.132E-05 -.970E-05 -.169E+04   0.835E-04 0.756E-05 0.169E+04   -.114E-17 0.475E-18 0.883E+00   0.181E-02 0.110E-02 0.302E+00
   -.625E-05 -.822E-04 -.105E+04   0.161E-04 0.101E-05 0.103E+04   0.352E-19 -.647E-19 0.185E+02   0.121E-02 0.738E-03 -.391E-01
   0.246E-03 -.898E-04 -.176E+04   0.558E-05 0.535E-06 0.177E+04   0.178E-18 0.574E-19 -.761E+01   0.388E-02 0.237E-02 -.744E-02
   0.626E-05 -.145E-04 -.336E+03   0.249E-06 0.397E-07 0.345E+03   0.786E-20 0.331E-20 -.864E+01   0.204E-03 0.124E-03 0.393E-03
 -----------------------------------------------------------------------------------------------
   -.498E-03 -.941E-03 0.253E+01   -.543E-13 0.241E-12 0.614E-11   0.172E-15 -.224E-15 -.121E+01   0.433E-02 0.325E-02 -.642E+00
 
 
 POSITION                                       TOTAL-FORCE (eV/Angst)
 -----------------------------------------------------------------------------------
      0.00000      0.00000      5.28038        -0.000000      0.000000     -0.103841
      2.93784      0.00000      5.28038         0.000822      0.018853     -0.044513
      5.87568      0.00000      5.28038        -0.000822      0.018853     -0.044513
      1.46892      2.54424      5.28038         0.016738     -0.008714     -0.044513
      4.40676      2.54424      5.28038        -0.000000     -0.000000     -0.056439
      7.34459      2.54424      5.28038        -0.016738     -0.008714     -0.044513
      2.93784      5.08848      5.28038         0.015916     -0.010139     -0.044513
      5.87568      5.08848      5.28038        -0.015916     -0.010139     -0.044513
      8.81351      5.08848      5.28038        -0.000000     -0.000000     -0.049994
      1.46892      0.84808      7.67911        -0.011573     -0.006682      0.162570
      4.40676      0.84808      7.67911        -0.000000     -0.061854      0.031298
      7.34459      0.84808      7.67911         0.011573     -0.006682      0.162570
      2.93784      3.39232      7.67911        -0.053567      0.030927      0.031298
      5.87568      3.39232      7.67911         0.053567      0.030927      0.031298
      8.81351      3.39232      7.67911        -0.000000     -0.052344      0.128817
      4.40676      5.93656      7.67911         0.000000      0.013363      0.162570
      7.34459      5.93656      7.67911        -0.045332      0.026172      0.128817
     10.28243      5.93656      7.67911         0.045332      0.026172      0.128817
      8.81351      1.70311     10.09495        -0.000000     -0.026944     -0.015574
      2.93286      1.69329     10.03570        -0.056537     -0.032642     -0.274920
      5.88065      1.69329     10.03570         0.056537     -0.032642     -0.274920
     10.26497      4.25049     10.06286         0.034941     -0.020173     -0.000026
      4.40676      4.24615     10.03570         0.000000      0.065283     -0.274920
      7.36206      4.25049     10.06286        -0.034941     -0.020173     -0.000026
     11.74534      6.78117     10.09495         0.023334      0.013472     -0.015574
      5.88169      6.78117     10.09495        -0.023334      0.013472     -0.015574
      8.81351      6.76448     10.06286         0.000000      0.040346     -0.000026
      0.00000      0.00000     12.49897        -0.000000      0.000000     -0.115754
      2.97514      0.06495     12.50272        -0.171790     -0.373504     -0.143359
      5.83837      0.06495     12.50272         0.171790     -0.373504     -0.143359
      1.54382      2.54408     12.50272        -0.409359      0.037977     -0.143359
      7.26969      2.54408     12.50272         0.409359      0.037977     -0.143359
      2.97543      5.02370     12.50272        -0.237569      0.335526     -0.143359
      5.83808      5.02370     12.50272         0.237569      0.335526     -0.143359
      8.81351      5.08848     12.49601        -0.000000     -0.000000     -0.106692
      4.40676      2.54424     12.21487        -0.000000      0.000000      1.466850
      4.40676      2.54424     13.98460        -0.000000      0.000000      0.012515
      4.40676      2.54424     15.23065        -0.000000      0.000000     -0.012603
      4.40676      2.54424     16.18966        -0.000000      0.000000     -0.003310
 -----------------------------------------------------------------------------------
    total drift:                                0.003835      0.002312      0.672241


--------------------------------------------------------------------------------------------------------



  FREE ENERGIE OF THE ION-ELECTRON SYSTEM (eV)
  ---------------------------------------------------
  free  energy   TOTEN  =      -133.99689164 eV

  energy  without entropy=     -133.99689164  energy(sigma->0) =     -133.99689164
 


--------------------------------------------------------------------------------------------------------


    POTLOK:  cpu time    0.0520: real time    0.0520


--------------------------------------------------------------------------------------------------------


 stress matrix after NEB project (eV)
    -19.06159     -0.00000     -0.00000
     -0.00000    -19.06159      0.00000
      0.00000      0.00000      2.58758
  FORCES: max atom, RMS     0.012603    0.002893
  FORCE total and by dimension    0.018067    0.012603
  Stress total and by dimension   27.081063   19.061590
     LOOP+:  cpu time   83.1222: real time   83.1360
 -----------------------------------------------------------------------------
|                                                                             |
|           W    W    AA    RRRRR   N    N  II  N    N   GGGG   !!!           |
|           W    W   A  A   R    R  NN   N  II  NN   N  G    G  !!!           |
|           W    W  A    A  R    R  N N  N  II  N N  N  G       !!!           |
|           W WW W  AAAAAA  RRRRR   N  N N  II  N  N N  G  GGG   !            |
|           WW  WW  A    A  R   R   N   NN  II  N   NN  G    G                |
|           W    W  A    A  R    R  N    N  II  N    N   GGGG   !!!           |
|                                                                             |
|     Tetrahedron method does not include variations of the Fermi             |
|     occupations, so forces and stress will be inaccurate. We suggest        |
|     using a different smearing scheme ISMEAR = 1 or 2 for metals in         |
|     relaxations.                                                            |
|                                                                             |
 -----------------------------------------------------------------------------

    4ORBIT:  cpu time    0.0000: real time    0.0000



 total charge

# of ion       s       p       d       tot
------------------------------------------
    1        0.546   0.239   8.768   9.553
    2        0.545   0.241   8.764   9.551
    3        0.545   0.241   8.764   9.551
    4        0.545   0.241   8.764   9.551
    5        0.544   0.242   8.761   9.548
    6        0.545   0.241   8.764   9.551
    7        0.545   0.241   8.764   9.551
    8        0.545   0.241   8.764   9.551
    9        0.541   0.240   8.769   9.550
   10        0.521   0.307   8.769   9.598
   11        0.522   0.308   8.779   9.609
   12        0.521   0.307   8.769   9.598
   13        0.522   0.308   8.779   9.609
   14        0.522   0.308   8.779   9.609
   15        0.512   0.310   8.773   9.595
   16        0.521   0.307   8.769   9.598
   17        0.512   0.310   8.773   9.595
   18        0.512   0.310   8.773   9.595
   19        0.518   0.298   8.775   9.591
   20        0.552   0.337   8.749   9.638
   21        0.552   0.337   8.749   9.638
   22        0.509   0.310   8.774   9.593
   23        0.552   0.337   8.749   9.638
   24        0.509   0.310   8.774   9.593
   25        0.518   0.298   8.775   9.591
   26        0.518   0.298   8.775   9.591
   27        0.509   0.310   8.774   9.593
   28        0.544   0.228   8.767   9.539
   29        0.544   0.254   8.759   9.557
   30        0.544   0.254   8.759   9.557
   31        0.544   0.254   8.759   9.557
   32        0.544   0.254   8.759   9.557
   33        0.544   0.254   8.759   9.557
   34        0.544   0.254   8.759   9.557
   35        0.539   0.227   8.770   9.536
   36        0.597   0.628   6.126   7.351
   37        0.918   1.498   0.000   2.416
   38        1.523   3.778   0.000   5.302
   39        0.556   0.135   0.000   0.692
--------------------------------------------------
tot         22.249  15.799 312.959 351.008
 
 BZINTS: Fermi energy:    0.342985;  404.000000 electrons
         Band energy:-0.144849E+04;  BLOECHL correction:   -0.073191

 total amount of memory used by VASP MPI-rank0   139984. kBytes
=======================================================================

   base      :      30000. kBytes
   nonlr-proj:      14292. kBytes
   fftplans  :       5150. kBytes
   grid      :      23126. kBytes
   one-center:        606. kBytes
   wavefun   :      66810. kBytes
 
  
  
 General timing and accounting informations for this job:
 ========================================================
  
                  Total CPU time used (sec):       91.618
                            User time (sec):       88.453
                          System time (sec):        3.164
                         Elapsed time (sec):       92.123
  
                   Maximum memory used (kb):      416336.
                   Average memory used (kb):          N/A
  
                          Minor page faults:        75633
                          Major page faults:            0
                 Voluntary context switches:         7864
