PROCAR new format
# of k-points:   10         # of bands:  252         # of ions:   39

 k-point     1 :    0.00000000 0.00000000 0.00000000     weight = 0.01562500

band     1 # energy  -24.52300011 # occ.  2.00000000
 
ion      s      p      d    tot
    1  0.000  0.000  0.000  0.000
    2  0.000  0.000  0.000  0.000
    3  0.000  0.000  0.000  0.000
    4  0.000  0.000  0.000  0.000
    5  0.000  0.000  0.000  0.000
    6  0.000  0.000  0.000  0.000
    7  0.000  0.000  0.000  0.000
    8  0.000  0.000  0.000  0.000
    9  0.000  0.000  0.000  0.000
   10  0.000  0.000  0.000  0.000
   11  0.000  0.000  0.000  0.000
   12  0.000  0.000  0.000  0.000
   13  0.000  0.000  0.000  0.000
   14  0.000  0.000  0.000  0.000
   15  0.000  0.000  0.000  0.000
   16  0.000  0.000  0.000  0.000
   17  0.000  0.000  0.000  0.000
   18  0.000  0.000  0.000  0.000
   19  0.000  0.000  0.000  0.000
   20  0.000  0.000  0.000  0.000
   21  0.000  0.000  0.000  0.000
   22  0.000  0.000  0.000  0.000
   23  0.000  0.000  0.000  0.000
   24  0.000  0.000  0.000  0.000
   25  0.000  0.000  0.000  0.000
   26  0.000  0.000  0.000  0.000
   27  0.000  0.000  0.000  0.000
   28  0.000  0.000  0.000  0.000
   29  0.000  0.000  0.000  0.000
   30  0.000  0.000  0.000  0.000
   31  0.000  0.000  0.000  0.000
   32  0.000  0.000  0.000  0.000
   33  0.000  0.000  0.000  0.000
   34  0.000  0.000  0.000  0.000
   35  0.000  0.000  0.000  0.000
   36  0.000  0.000  0.000  0.001
   37  0.085  0.062  0.000  0.147
   38  0.723  0.010  0.000  0.733
   39  0.058  0.012  0.000  0.070
tot    0.866  0.085  0.000  0.951
 
band     2 # energy  -15.14802121 # occ.  2.00000000
 
ion      s      p      d    tot
    1  0.000  0.000  0.000  0.000
    2  0.000  0.000  0.000  0.000
    3  0.000  0.000  0.000  0.000
    4  0.000  0.000  0.000  0.000
    5  0.000  0.000  0.000  0.000
    6  0.000  0.000  0.000  0.000
    7  0.000  0.000  0.000  0.000
    8  0.000  0.000  0.000  0.000
    9  0.000  0.000  0.000  0.000
   10  0.000  0.000  0.000  0.000
   11  0.000  0.000  0.000  0.000
   12  0.000  0.000  0.000  0.000
   13  0.000  0.000  0.000  0.000
   14  0.000  0.000  0.000  0.000
   15  0.000  0.000  0.000  0.000
   16  0.000  0.000  0.000  0.000
   17  0.000  0.000  0.000  0.000
   18  0.000  0.000  0.000  0.000
   19  0.000  0.000  0.000  0.000
   20  0.000  0.000  0.000  0.000
   21  0.000  0.000  0.000  0.000
   22  0.000  0.000  0.000  0.000
   23  0.000  0.000  0.000  0.000
   24  0.000  0.000  0.000  0.000
   25  0.000  0.000  0.000  0.000
   26  0.000  0.000  0.000  0.000
   27  0.000  0.000  0.000  0.000
   28  0.000  0.000  0.000  0.000
   29  0.000  0.000  0.000  0.000
   30  0.000  0.000  0.000  0.000
   31  0.000  0.000  0.000  0.000
   32  0.000  0.000  0.000  0.000
   33  0.000  0.000  0.000  0.000
   34  0.000  0.000  0.000  0.000
   35  0.000  0.000  0.000  0.000
   36  0.004  0.003  0.005  0.011
   37  0.161  0.047  0.000  0.208
   38  0.022  0.523  0.000  0.545
   39  0.203  0.033  0.000  0.237
tot    0.390  0.606  0.005  1.001
 
band     3 # energy   -8.95834048 # occ.  2.00000000
 
ion      s      p      d    tot
    1  0.001  0.000  0.000  0.001
    2  0.000  0.000  0.000  0.000
    3  0.000  0.000  0.000  0.000
    4  0.000  0.000  0.000  0.000
    5  0.000  0.000  0.000  0.000
    6  0.000  0.000  0.000  0.000
    7  0.000  0.000  0.000  0.000
    8  0.000  0.000  0.000  0.000
    9  0.000  0.000  0.000  0.000
   10  0.003  0.000  0.000  0.003
   11  0.003  0.000  0.000  0.003
   12  0.003  0.000  0.000  0.003
   13  0.003  0.000  0.000  0.003
   14  0.003  0.000  0.000  0.003
   15  0.002  0.000  0.000  0.002
   16  0.003  0.000  0.000  0.003
   17  0.002  0.000  0.000  0.002
   18  0.002  0.000  0.000  0.002
   19  0.005  0.000  0.000  0.005
   20  0.016  0.001  0.005  0.021
   21  0.016  0.001  0.005  0.021
   22  0.005  0.000  0.000  0.005
   23  0.016  0.001  0.005  0.021
   24  0.005  0.000  0.000  0.005
   25  0.005  0.000  0.000  0.005
   26  0.005  0.000  0.000  0.005
   27  0.005  0.000  0.000  0.005
   28  0.002  0.000  0.000  0.002
   29  0.005  0.000  0.001  0.006
   30  0.005  0.000  0.001  0.006
   31  0.005  0.000  0.001  0.006
   32  0.005  0.000  0.001  0.006
   33  0.005  0.000  0.001  0.006
   34  0.005  0.000  0.001  0.006
   35  0.002  0.000  0.000  0.002
   36  0.154  0.033  0.184  0.371
   37  0.128  0.141  0.000  0.269
   38  0.008  0.040  0.000  0.048
   39  0.011  0.001  0.000  0.012
tot    0.439  0.222  0.204  0.864
 
band     4 # energy   -8.35086899 # occ.  2.00000000
 
ion      s      p      d    tot
    1  0.007  0.001  0.000  0.008
    2  0.007  0.001  0.000  0.008
    3  0.007  0.001  0.000  0.008
    4  0.007  0.001  0.000  0.008
    5  0.007  0.001  0.000  0.008
    6  0.007  0.001  0.000  0.008
    7  0.007  0.001  0.000  0.008
    8  0.007  0.001  0.000  0.008
    9  0.007  0.001  0.000  0.008
   10  0.025  0.000  0.000  0.025
   11  0.026  0.000  0.000  0.026
   12  0.025  0.000  0.000  0.025
   13  0.026  0.000  0.000  0.026
   14  0.026  0.000  0.000  0.026
   15  0.026  0.000  0.000  0.027
   16  0.025  0.000  0.000  0.025
   17  0.026  0.000  0.000  0.027
   18  0.026  0.000  0.000  0.027
   19  0.017  0.000  0.000  0.018
   20  0.012  0.001  0.001  0.015
   21  0.012  0.001  0.001  0.015
   22  0.019  0.000  0.000  0.019
   23  0.012  0.001  0.001  0.015
   24  0.019  0.000  0.000  0.019
   25  0.017  0.000  0.000  0.018
   26  0.017  0.000  0.000  0.018
   27  0.019  0.000  0.000  0.019
   28  0.003  0.000  0.000  0.003
   29  0.001  0.000  0.000  0.002
   30  0.001  0.000  0.000  0.002
   31  0.001  0.000  0.000  0.002
   32  0.001  0.000  0.000  0.002
   33  0.001  0.000  0.000  0.002
   34  0.001  0.000  0.000  0.002
   35  0.003  0.000  0.000  0.003
   36  0.015  0.018  0.056  0.088
   37  0.037  0.037  0.000  0.075
   38  0.002  0.010  0.000  0.012
   39  0.003  0.000  0.000  0.003
tot    0.512  0.078  0.066  0.655
 
band     5 # energy   -7.29948960 # occ.  2.00000000
 
ion      s      p      d    tot
    1  0.000  0.000  0.000  0.000
    2  0.000  0.000  0.000  0.000
    3  0.000  0.000  0.000  0.000
    4  0.000  0.000  0.000  0.000
    5  0.000  0.000  0.000  0.000
    6  0.000  0.000  0.000  0.000
    7  0.000  0.000  0.000  0.000
    8  0.000  0.000  0.000  0.000
    9  0.000  0.000  0.000  0.000
   10  0.000  0.000  0.000  0.000
   11  0.000  0.000  0.000  0.000
   12  0.000  0.000  0.000  0.000
   13  0.000  0.000  0.000  0.000
   14  0.000  0.000  0.000  0.000
   15  0.000  0.000  0.000  0.000
   16  0.000  0.000  0.000  0.000
   17  0.000  0.000  0.000  0.000
   18  0.000  0.000  0.000  0.000
   19  0.000  0.000  0.000  0.000
   20  0.000  0.000  0.001  0.001
   21  0.000  0.000  0.000  0.000
   22  0.000  0.000  0.000  0.000
   23  0.000  0.000  0.000  0.000
   24  0.000  0.000  0.000  0.000
   25  0.000  0.000  0.000  0.000
   26  0.000  0.000  0.000  0.000
   27  0.000  0.000  0.000  0.000
   28  0.000  0.000  0.000  0.000
   29  0.001  0.000  0.001  0.002
   30  0.000  0.000  0.000  0.000
   31  0.001  0.000  0.001  0.002
   32  0.001  0.000  0.001  0.002
   33  0.000  0.000  0.000  0.000
   34  0.001  0.000  0.001  0.002
   35  0.000  0.000  0.000  0.000
   36  0.000  0.003  0.030  0.033
   37  0.000  0.127  0.000  0.127
   38  0.000  0.507  0.000  0.507
   39  0.000  0.007  0.000  0.007
tot    0.004  0.644  0.038  0.686
 
band     6 # energy   -7.29931250 # occ.  2.00000000
 
ion      s      p      d    tot
    1  0.000  0.000  0.000  0.000
    2  0.000  0.000  0.000  0.000
    3  0.000  0.000  0.000  0.000
    4  0.000  0.000  0.000  0.000
    5  0.000  0.000  0.000  0.000
    6  0.000  0.000  0.000  0.000
    7  0.000  0.000  0.000  0.000
    8  0.000  0.000  0.000  0.000
    9  0.000  0.000  0.000  0.000
   10  0.000  0.000  0.000  0.000
   11  0.000  0.000  0.000  0.000
   12  0.000  0.000  0.000  0.000
   13  0.000  0.000  0.000  0.000
   14  0.000  0.000  0.000  0.000
   15  0.000  0.000  0.000  0.000
   16  0.000  0.000  0.000  0.000
   17  0.000  0.000  0.000  0.000
   18  0.000  0.000  0.000  0.000
   19  0.000  0.000  0.000  0.000
   20  0.000  0.000  0.000  0.000
   21  0.000  0.000  0.001  0.001
   22  0.000  0.000  0.000  0.000
   23  0.000  0.000  0.001  0.001
   24  0.000  0.000  0.000  0.000
   25  0.000  0.000  0.000  0.000
   26  0.000  0.000  0.000  0.000
   27  0.000  0.000  0.000  0.000
   28  0.000  0.000  0.000  0.000
   29  0.000  0.000  0.001  0.001
   30  0.001  0.000  0.002  0.003
   31  0.000  0.000  0.001  0.001
   32  0.000  0.000  0.001  0.001
   33  0.001  0.000  0.002  0.003
   34  0.000  0.000  0.001  0.001
   35  0.000  0.000  0.000  0.000
   36  0.000  0.003  0.030  0.033
   37  0.000  0.127  0.000  0.127
   38  0.000  0.507  0.000  0.507
   39  0.000  0.007  0.000  0.007
tot    0.004  0.644  0.038  0.686
 
band     7 # energy   -7.24092077 # occ.  2.00000000
 
ion      s      p      d    tot
    1  0.017  0.000  0.001  0.019
    2  0.016  0.000  0.001  0.017
    3  0.016  0.000  0.001  0.017
    4  0.016  0.000  0.001  0.017
    5  0.015  0.000  0.001  0.017
    6  0.016  0.000  0.001  0.017
    7  0.016  0.000  0.001  0.017
    8  0.016  0.000  0.001  0.017
    9  0.015  0.000  0.001  0.017
   10  0.009  0.001  0.002  0.013
   11  0.008  0.002  0.002  0.012
   12  0.009  0.001  0.002  0.013
   13  0.008  0.002  0.002  0.012
   14  0.008  0.002  0.002  0.012
   15  0.007  0.002  0.002  0.011
   16  0.009  0.001  0.002  0.013
   17  0.007  0.002  0.002  0.011
   18  0.007  0.002  0.002  0.011
   19  0.016  0.001  0.004  0.020
   20  0.012  0.001  0.004  0.017
   21  0.012  0.001  0.004  0.017
   22  0.018  0.001  0.004  0.022
   23  0.012  0.001  0.004  0.017
   24  0.018  0.001  0.004  0.022
   25  0.016  0.001  0.004  0.020
   26  0.016  0.001  0.004  0.020
   27  0.018  0.001  0.004  0.022
   28  0.015  0.001  0.000  0.016
   29  0.013  0.001  0.001  0.014
   30  0.013  0.001  0.001  0.014
   31  0.013  0.001  0.001  0.014
   32  0.013  0.001  0.001  0.014
   33  0.013  0.001  0.001  0.014
   34  0.013  0.001  0.001  0.014
   35  0.015  0.001  0.000  0.016
   36  0.001  0.007  0.027  0.035
   37  0.010  0.009  0.000  0.019
   38  0.000  0.002  0.000  0.002
   39  0.000  0.000  0.000  0.001
tot    0.474  0.048  0.098  0.620
 
band     8 # energy   -6.35838752 # occ.  2.00000000
 
ion      s      p      d    tot
    1  0.007  0.000  0.019  0.026
    2  0.015  0.000  0.014  0.029
    3  0.015  0.000  0.014  0.029
    4  0.015  0.000  0.014  0.029
    5  0.009  0.000  0.012  0.021
    6  0.015  0.000  0.014  0.029
    7  0.015  0.000  0.014  0.029
    8  0.015  0.000  0.014  0.029
    9  0.034  0.000  0.009  0.043
   10  0.011  0.001  0.016  0.028
   11  0.014  0.002  0.011  0.027
   12  0.011  0.001  0.016  0.028
   13  0.014  0.002  0.011  0.027
   14  0.014  0.002  0.011  0.027
   15  0.001  0.001  0.018  0.019
   16  0.011  0.001  0.016  0.028
   17  0.001  0.001  0.018  0.019
   18  0.001  0.001  0.018  0.019
   19  0.000  0.001  0.008  0.008
   20  0.012  0.002  0.006  0.020
   21  0.012  0.002  0.006  0.019
   22  0.003  0.001  0.002  0.006
   23  0.012  0.002  0.006  0.019
   24  0.003  0.001  0.002  0.006
   25  0.000  0.001  0.008  0.008
   26  0.000  0.001  0.008  0.008
   27  0.003  0.001  0.002  0.006
   28  0.009  0.000  0.001  0.011
   29  0.007  0.000  0.005  0.011
   30  0.007  0.000  0.005  0.011
   31  0.007  0.000  0.005  0.011
   32  0.007  0.000  0.005  0.011
   33  0.007  0.000  0.005  0.011
   34  0.007  0.000  0.005  0.011
   35  0.013  0.000  0.002  0.015
   36  0.000  0.003  0.004  0.007
   37  0.000  0.000  0.000  0.000
   38  0.000  0.000  0.000  0.000
   39  0.000  0.000  0.000  0.000
tot    0.323  0.026  0.342  0.692
 
band     9 # energy   -6.34844497 # occ.  2.00000000
 
ion      s      p      d    tot
    1  0.000  0.000  0.008  0.009
    2  0.003  0.001  0.003  0.007
    3  0.006  0.001  0.003  0.010
    4  0.004  0.001  0.003  0.008
    5  0.000  0.001  0.006  0.007
    6  0.001  0.000  0.003  0.003
    7  0.006  0.001  0.003  0.010
    8  0.000  0.000  0.003  0.003
    9  0.000  0.000  0.001  0.001
   10  0.000  0.000  0.035  0.035
   11  0.034  0.002  0.015  0.050
   12  0.030  0.002  0.011  0.043
   13  0.039  0.001  0.014  0.054
   14  0.000  0.004  0.023  0.027
   15  0.001  0.001  0.010  0.011
   16  0.026  0.002  0.014  0.042
   17  0.001  0.001  0.010  0.012
   18  0.000  0.003  0.005  0.008
   19  0.008  0.001  0.010  0.019
   20  0.000  0.002  0.035  0.037
   21  0.052  0.001  0.016  0.069
   22  0.012  0.001  0.009  0.023
   23  0.046  0.001  0.018  0.065
   24  0.000  0.000  0.026  0.027
   25  0.000  0.004  0.003  0.007
   26  0.009  0.001  0.011  0.021
   27  0.011  0.001  0.011  0.023
   28  0.000  0.000  0.001  0.002
   29  0.000  0.000  0.002  0.003
   30  0.005  0.001  0.003  0.009
   31  0.000  0.000  0.002  0.002
   32  0.005  0.001  0.004  0.010
   33  0.004  0.001  0.003  0.008
   34  0.005  0.001  0.004  0.010
   35  0.000  0.000  0.004  0.004
   36  0.000  0.003  0.010  0.013
   37  0.000  0.000  0.000  0.000
   38  0.000  0.001  0.000  0.001
   39  0.000  0.000  0.000  0.000
tot    0.307  0.045  0.343  0.695
 
band    10 # energy   -6.34844243 # occ.  2.00000000
 
ion      s      p      d    tot
    1  0.000  0.000  0.008  0.009
    2  0.004  0.001  0.003  0.007
    3  0.001  0.000  0.003  0.004
    4  0.003  0.001  0.002  0.006
    5  0.000  0.001  0.006  0.007
    6  0.006  0.001  0.003  0.010
    7  0.000  0.000  0.003  0.004
    8  0.006  0.001  0.003  0.011
    9  0.000  0.000  0.001  0.001
   10  0.037  0.002  0.005  0.044
   11  0.015  0.003  0.020  0.037
   12  0.008  0.000  0.029  0.037
   13  0.010  0.003  0.021  0.034
   14  0.048  0.001  0.011  0.060
   15  0.000  0.002  0.007  0.010
   16  0.011  0.001  0.026  0.038
   17  0.000  0.003  0.006  0.009
   18  0.001  0.000  0.012  0.013
   19  0.003  0.003  0.006  0.012
   20  0.065  0.001  0.011  0.077
   21  0.013  0.002  0.030  0.045
   22  0.003  0.001  0.022  0.026
   23  0.020  0.002  0.028  0.049
   24  0.015  0.002  0.005  0.022
   25  0.011  0.000  0.013  0.025
   26  0.002  0.003  0.005  0.011
   27  0.005  0.001  0.020  0.025
   28  0.000  0.000  0.001  0.002
   29  0.007  0.001  0.004  0.012
   30  0.002  0.001  0.003  0.005
   31  0.007  0.001  0.004  0.012
   32  0.001  0.000  0.002  0.004
   33  0.002  0.001  0.003  0.006
   34  0.002  0.000  0.002  0.005
   35  0.000  0.000  0.004  0.004
   36  0.000  0.003  0.010  0.013
   37  0.000  0.000  0.000  0.000
   38  0.000  0.001  0.000  0.001
   39  0.000  0.000  0.000  0.000
tot    0.307  0.045  0.343  0.695
 
band    11 # energy   -6.31450436 # occ.  2.00000000
 
ion      s      p      d    tot
    1  0.020  0.000  0.004  0.024
    2  0.006  0.000  0.010  0.016
    3  0.006  0.000  0.010  0.016
    4  0.006  0.000  0.010  0.016
    5  0.008  0.000  0.009  0.017
    6  0.006  0.000  0.010  0.016
    7  0.006  0.000  0.010  0.016
    8  0.006  0.000  0.010  0.016
    9  0.000  0.001  0.011  0.012
   10  0.000  0.000  0.032  0.033
   11  0.001  0.001  0.022  0.023
   12  0.000  0.000  0.032  0.033
   13  0.001  0.001  0.022  0.023
   14  0.001  0.001  0.021  0.023
   15  0.029  0.001  0.010  0.041
   16  0.000  0.000  0.032  0.033
   17  0.029  0.001  0.010  0.041
   18  0.029  0.001  0.010  0.041
   19  0.004  0.001  0.018  0.022
   20  0.017  0.000  0.019  0.036
   21  0.017  0.000  0.019  0.036
   22  0.003  0.001  0.015  0.019
   23  0.017  0.000  0.019  0.036
   24  0.003  0.001  0.014  0.019
   25  0.004  0.001  0.018  0.022
   26  0.004  0.001  0.018  0.022
   27  0.003  0.001  0.015  0.019
   28  0.001  0.000  0.001  0.002
   29  0.002  0.000  0.004  0.006
   30  0.002  0.000  0.004  0.006
   31  0.002  0.000  0.004  0.006
   32  0.002  0.000  0.004  0.006
   33  0.002  0.000  0.004  0.006
   34  0.002  0.000  0.004  0.006
   35  0.009  0.000  0.001  0.010
   36  0.000  0.006  0.001  0.006
   37  0.002  0.001  0.000  0.003
   38  0.000  0.001  0.000  0.001
   39  0.000  0.000  0.000  0.000
tot    0.254  0.025  0.454  0.734
 
band    12 # energy   -6.28746911 # occ.  2.00000000
 
ion      s      p      d    tot
    1  0.002  0.001  0.001  0.003
    2  0.001  0.001  0.006  0.007
    3  0.001  0.001  0.006  0.007
    4  0.001  0.001  0.006  0.007
    5  0.021  0.002  0.000  0.023
    6  0.001  0.001  0.006  0.007
    7  0.001  0.001  0.006  0.007
    8  0.001  0.001  0.006  0.007
    9  0.001  0.000  0.004  0.005
   10  0.013  0.003  0.006  0.022
   11  0.024  0.001  0.010  0.036
   12  0.013  0.003  0.006  0.022
   13  0.024  0.001  0.010  0.036
   14  0.024  0.001  0.010  0.036
   15  0.005  0.000  0.026  0.031
   16  0.013  0.003  0.006  0.022
   17  0.005  0.000  0.026  0.031
   18  0.005  0.000  0.026  0.031
   19  0.029  0.002  0.007  0.037
   20  0.006  0.002  0.016  0.024
   21  0.006  0.002  0.016  0.024
   22  0.000  0.000  0.026  0.027
   23  0.006  0.002  0.016  0.024
   24  0.000  0.000  0.026  0.027
   25  0.028  0.002  0.007  0.037
   26  0.029  0.002  0.007  0.037
   27  0.000  0.000  0.026  0.027
   28  0.002  0.001  0.006  0.010
   29  0.003  0.000  0.006  0.010
   30  0.003  0.000  0.006  0.010
   31  0.003  0.000  0.006  0.010
   32  0.003  0.000  0.006  0.010
   33  0.003  0.000  0.006  0.010
   34  0.003  0.000  0.006  0.010
   35  0.008  0.000  0.000  0.009
   36  0.007  0.001  0.012  0.019
   37  0.001  0.001  0.000  0.002
   38  0.000  0.000  0.000  0.000
   39  0.000  0.000  0.000  0.000
tot    0.295  0.039  0.370  0.703
 
band    13 # energy   -6.27529851 # occ.  2.00000000
 
ion      s      p      d    tot
    1  0.000  0.001  0.003  0.004
    2  0.004  0.001  0.004  0.009
    3  0.008  0.001  0.004  0.013
    4  0.004  0.001  0.004  0.009
    5  0.000  0.000  0.005  0.005
    6  0.001  0.000  0.003  0.004
    7  0.008  0.001  0.004  0.013
    8  0.001  0.000  0.003  0.004
    9  0.000  0.001  0.011  0.012
   10  0.024  0.000  0.016  0.041
   11  0.002  0.001  0.021  0.025
   12  0.006  0.004  0.007  0.016
   13  0.002  0.001  0.021  0.025
   14  0.009  0.001  0.007  0.018
   15  0.017  0.001  0.033  0.051
   16  0.006  0.003  0.007  0.017
   17  0.015  0.001  0.034  0.050
   18  0.063  0.002  0.006  0.071
   19  0.010  0.001  0.027  0.038
   20  0.000  0.001  0.013  0.014
   21  0.000  0.002  0.010  0.012
   22  0.009  0.003  0.016  0.028
   23  0.000  0.002  0.011  0.013
   24  0.037  0.001  0.012  0.049
   25  0.039  0.002  0.003  0.044
   26  0.009  0.001  0.028  0.038
   27  0.010  0.003  0.016  0.028
   28  0.000  0.000  0.006  0.007
   29  0.000  0.000  0.002  0.003
   30  0.003  0.001  0.002  0.005
   31  0.000  0.000  0.002  0.002
   32  0.004  0.001  0.003  0.008
   33  0.002  0.001  0.002  0.005
   34  0.004  0.001  0.003  0.008
   35  0.000  0.001  0.004  0.005
   36  0.000  0.000  0.001  0.001
   37  0.000  0.000  0.000  0.000
   38  0.000  0.001  0.000  0.001
   39  0.000  0.000  0.000  0.000
tot    0.299  0.042  0.352  0.693
 
band    14 # energy   -6.27527794 # occ.  2.00000000
 
ion      s      p      d    tot
    1  0.000  0.001  0.003  0.004
    2  0.004  0.001  0.003  0.009
    3  0.001  0.000  0.004  0.005
    4  0.004  0.001  0.003  0.008
    5  0.000  0.000  0.005  0.005
    6  0.008  0.001  0.004  0.014
    7  0.001  0.000  0.004  0.005
    8  0.008  0.001  0.004  0.014
    9  0.000  0.001  0.011  0.012
   10  0.000  0.005  0.003  0.008
   11  0.007  0.001  0.012  0.020
   12  0.018  0.001  0.013  0.033
   13  0.007  0.001  0.012  0.020
   14  0.000  0.001  0.025  0.027
   15  0.047  0.001  0.015  0.064
   16  0.018  0.001  0.013  0.032
   17  0.048  0.001  0.015  0.064
   18  0.000  0.001  0.043  0.044
   19  0.029  0.002  0.012  0.042
   20  0.000  0.002  0.010  0.012
   21  0.000  0.001  0.012  0.014
   22  0.028  0.001  0.013  0.043
   23  0.000  0.001  0.012  0.014
   24  0.000  0.004  0.017  0.021
   25  0.000  0.000  0.036  0.036
   26  0.030  0.002  0.011  0.042
   27  0.027  0.001  0.013  0.042
   28  0.000  0.000  0.006  0.007
   29  0.004  0.001  0.002  0.008
   30  0.002  0.000  0.003  0.005
   31  0.005  0.001  0.002  0.008
   32  0.000  0.000  0.002  0.002
   33  0.002  0.001  0.003  0.005
   34  0.001  0.000  0.002  0.002
   35  0.000  0.001  0.004  0.005
   36  0.000  0.000  0.001  0.001
   37  0.000  0.000  0.000  0.000
   38  0.000  0.001  0.000  0.001
   39  0.000  0.000  0.000  0.000
tot    0.299  0.042  0.352  0.693
 
band    15 # energy   -6.26780904 # occ.  2.00000000
 
ion      s      p      d    tot
    1  0.009  0.001  0.001  0.011
    2  0.000  0.000  0.003  0.003
    3  0.000  0.000  0.003  0.003
    4  0.000  0.000  0.003  0.003
    5  0.000  0.000  0.001  0.001
    6  0.000  0.000  0.003  0.003
    7  0.000  0.000  0.003  0.003
    8  0.000  0.000  0.003  0.003
    9  0.002  0.000  0.000  0.002
   10  0.014  0.001  0.008  0.022
   11  0.000  0.000  0.017  0.017
   12  0.014  0.001  0.008  0.022
   13  0.000  0.000  0.017  0.017
   14  0.000  0.000  0.017  0.017
   15  0.006  0.002  0.004  0.012
   16  0.014  0.001  0.008  0.022
   17  0.006  0.002  0.004  0.012
   18  0.006  0.002  0.004  0.012
   19  0.000  0.001  0.016  0.017
   20  0.001  0.001  0.030  0.032
   21  0.001  0.001  0.030  0.032
   22  0.024  0.002  0.012  0.038
   23  0.001  0.001  0.030  0.032
   24  0.025  0.002  0.012  0.038
   25  0.000  0.001  0.016  0.017
   26  0.000  0.001  0.016  0.017
   27  0.024  0.002  0.012  0.038
   28  0.024  0.000  0.010  0.034
   29  0.015  0.000  0.013  0.029
   30  0.015  0.000  0.013  0.029
   31  0.015  0.000  0.013  0.029
   32  0.015  0.000  0.013  0.029
   33  0.015  0.000  0.013  0.029
   34  0.015  0.000  0.013  0.029
   35  0.004  0.001  0.017  0.021
   36  0.009  0.001  0.033  0.043
   37  0.003  0.003  0.000  0.006
   38  0.000  0.000  0.000  0.000
   39  0.000  0.000  0.000  0.000
tot    0.280  0.027  0.417  0.724
 
band    16 # energy   -5.85420327 # occ.  2.00000000
 
ion      s      p      d    tot
    1  0.000  0.001  0.004  0.005
    2  0.001  0.001  0.005  0.007
    3  0.009  0.001  0.005  0.016
    4  0.001  0.001  0.005  0.007
    5  0.000  0.001  0.010  0.012
    6  0.005  0.001  0.004  0.009
    7  0.009  0.001  0.005  0.015
    8  0.005  0.001  0.004  0.009
    9  0.000  0.000  0.009  0.009
   10  0.000  0.001  0.050  0.051
   11  0.017  0.001  0.020  0.039
   12  0.007  0.002  0.019  0.028
   13  0.017  0.001  0.020  0.039
   14  0.000  0.000  0.051  0.051
   15  0.002  0.000  0.020  0.022
   16  0.007  0.002  0.019  0.028
   17  0.002  0.000  0.020  0.022
   18  0.000  0.001  0.012  0.013
   19  0.004  0.000  0.018  0.022
   20  0.000  0.000  0.075  0.075
   21  0.016  0.001  0.023  0.040
   22  0.003  0.001  0.018  0.023
   23  0.016  0.001  0.023  0.040
   24  0.000  0.001  0.033  0.034
   25  0.000  0.001  0.010  0.011
   26  0.004  0.000  0.018  0.022
   27  0.003  0.001  0.018  0.023
   28  0.000  0.000  0.007  0.007
   29  0.003  0.001  0.004  0.008
   30  0.009  0.001  0.004  0.014
   31  0.003  0.001  0.004  0.008
   32  0.002  0.001  0.004  0.006
   33  0.009  0.001  0.004  0.014
   34  0.002  0.001  0.004  0.006
   35  0.000  0.000  0.002  0.003
   36  0.000  0.003  0.010  0.013
   37  0.000  0.000  0.000  0.000
   38  0.000  0.000  0.000  0.000
   39  0.000  0.000  0.000  0.000
tot    0.156  0.032  0.562  0.749
 
band    17 # energy   -5.85418877 # occ.  2.00000000
 
ion      s      p      d    tot
    1  0.000  0.001  0.004  0.005
    2  0.009  0.001  0.004  0.014
    3  0.000  0.000  0.004  0.005
    4  0.009  0.001  0.004  0.014
    5  0.000  0.001  0.010  0.012
    6  0.005  0.001  0.005  0.012
    7  0.000  0.000  0.004  0.005
    8  0.005  0.001  0.005  0.012
    9  0.000  0.000  0.009  0.009
   10  0.009  0.002  0.009  0.020
   11  0.006  0.000  0.041  0.047
   12  0.002  0.001  0.040  0.043
   13  0.006  0.000  0.041  0.047
   14  0.023  0.001  0.010  0.034
   15  0.001  0.001  0.014  0.016
   16  0.002  0.001  0.040  0.043
   17  0.001  0.001  0.014  0.016
   18  0.003  0.000  0.023  0.026
   19  0.001  0.001  0.013  0.015
   20  0.021  0.002  0.006  0.029
   21  0.005  0.000  0.058  0.063
   22  0.001  0.001  0.029  0.031
   23  0.005  0.000  0.058  0.063
   24  0.004  0.001  0.013  0.019
   25  0.006  0.000  0.020  0.026
   26  0.001  0.001  0.013  0.015
   27  0.001  0.001  0.029  0.031
   28  0.000  0.000  0.007  0.007
   29  0.006  0.001  0.004  0.011
   30  0.000  0.000  0.004  0.004
   31  0.006  0.001  0.004  0.011
   32  0.007  0.001  0.004  0.013
   33  0.000  0.000  0.004  0.004
   34  0.007  0.001  0.004  0.013
   35  0.000  0.000  0.002  0.003
   36  0.000  0.003  0.010  0.013
   37  0.000  0.000  0.000  0.000
   38  0.000  0.000  0.000  0.000
   39  0.000  0.000  0.000  0.000
tot    0.156  0.032  0.562  0.749
 
band    18 # energy   -5.85127708 # occ.  2.00000000
 
ion      s      p      d    tot
    1  0.018  0.002  0.002  0.022
    2  0.000  0.001  0.007  0.008
    3  0.000  0.001  0.007  0.008
    4  0.000  0.001  0.007  0.008
    5  0.001  0.000  0.002  0.004
    6  0.000  0.001  0.007  0.008
    7  0.000  0.001  0.007  0.008
    8  0.000  0.001  0.007  0.008
    9  0.010  0.001  0.000  0.010
   10  0.008  0.002  0.011  0.020
   11  0.006  0.001  0.033  0.040
   12  0.008  0.002  0.011  0.020
   13  0.006  0.001  0.033  0.040
   14  0.006  0.001  0.033  0.040
   15  0.000  0.001  0.033  0.034
   16  0.008  0.002  0.011  0.020
   17  0.000  0.001  0.033  0.034
   18  0.000  0.001  0.032  0.033
   19  0.008  0.001  0.006  0.015
   20  0.000  0.000  0.047  0.047
   21  0.000  0.000  0.047  0.047
   22  0.010  0.001  0.030  0.041
   23  0.000  0.000  0.047  0.047
   24  0.010  0.001  0.031  0.042
   25  0.008  0.001  0.006  0.015
   26  0.008  0.001  0.006  0.015
   27  0.010  0.001  0.030  0.041
   28  0.016  0.002  0.000  0.018
   29  0.000  0.001  0.007  0.008
   30  0.000  0.001  0.007  0.008
   31  0.000  0.001  0.007  0.008
   32  0.000  0.001  0.007  0.008
   33  0.000  0.001  0.007  0.008
   34  0.000  0.001  0.007  0.008
   35  0.002  0.001  0.003  0.006
   36  0.003  0.001  0.003  0.007
   37  0.000  0.000  0.000  0.000
   38  0.000  0.000  0.000  0.000
   39  0.000  0.000  0.000  0.000
tot    0.149  0.029  0.577  0.755
 
band    19 # energy   -5.79434011 # occ.  2.00000000
 
ion      s      p      d    tot
    1  0.000  0.001  0.015  0.015
    2  0.010  0.001  0.004  0.015
    3  0.001  0.000  0.005  0.006
    4  0.010  0.001  0.004  0.015
    5  0.000  0.000  0.006  0.006
    6  0.004  0.001  0.005  0.011
    7  0.001  0.000  0.005  0.006
    8  0.004  0.001  0.005  0.011
    9  0.000  0.001  0.006  0.007
   10  0.000  0.001  0.033  0.033
   11  0.000  0.001  0.020  0.021
   12  0.008  0.000  0.022  0.030
   13  0.000  0.001  0.020  0.021
   14  0.000  0.001  0.017  0.018
   15  0.010  0.002  0.020  0.032
   16  0.008  0.000  0.022  0.030
   17  0.011  0.002  0.020  0.032
   18  0.000  0.000  0.061  0.062
   19  0.015  0.001  0.019  0.035
   20  0.000  0.002  0.020  0.022
   21  0.000  0.001  0.023  0.024
   22  0.017  0.001  0.020  0.038
   23  0.000  0.001  0.023  0.024
   24  0.000  0.001  0.030  0.031
   25  0.000  0.000  0.066  0.066
   26  0.015  0.001  0.019  0.035
   27  0.017  0.001  0.021  0.038
   28  0.000  0.001  0.005  0.006
   29  0.006  0.001  0.004  0.011
   30  0.000  0.000  0.005  0.005
   31  0.006  0.001  0.004  0.011
   32  0.005  0.001  0.003  0.008
   33  0.000  0.000  0.005  0.005
   34  0.005  0.001  0.003  0.008
   35  0.000  0.001  0.008  0.009
   36  0.000  0.000  0.003  0.003
   37  0.000  0.000  0.000  0.000
   38  0.000  0.000  0.000  0.000
   39  0.000  0.000  0.000  0.000
tot    0.151  0.029  0.569  0.749
 
band    20 # energy   -5.79431705 # occ.  2.00000000
 
ion      s      p      d    tot
    1  0.000  0.001  0.015  0.015
    2  0.000  0.001  0.005  0.006
    3  0.009  0.001  0.005  0.015
    4  0.000  0.001  0.005  0.006
    5  0.000  0.000  0.006  0.006
    6  0.006  0.001  0.004  0.011
    7  0.009  0.001  0.005  0.015
    8  0.006  0.001  0.004  0.011
    9  0.000  0.001  0.006  0.007
   10  0.011  0.000  0.018  0.029
   11  0.000  0.001  0.018  0.019
   12  0.003  0.001  0.029  0.033
   13  0.000  0.001  0.018  0.019
   14  0.000  0.001  0.020  0.021
   15  0.003  0.001  0.048  0.052
   16  0.003  0.001  0.029  0.033
   17  0.003  0.001  0.048  0.052
   18  0.014  0.002  0.006  0.023
   19  0.005  0.001  0.050  0.055
   20  0.000  0.000  0.024  0.024
   21  0.000  0.001  0.021  0.023
   22  0.006  0.001  0.027  0.033
   23  0.000  0.001  0.021  0.023
   24  0.022  0.001  0.017  0.040
   25  0.020  0.001  0.004  0.025
   26  0.005  0.001  0.050  0.055
   27  0.006  0.001  0.027  0.033
   28  0.000  0.001  0.005  0.006
   29  0.001  0.000  0.004  0.005
   30  0.007  0.001  0.003  0.011
   31  0.001  0.000  0.004  0.005
   32  0.002  0.001  0.005  0.008
   33  0.007  0.001  0.003  0.011
   34  0.002  0.001  0.005  0.008
   35  0.000  0.001  0.008  0.009
   36  0.000  0.000  0.003  0.003
   37  0.000  0.000  0.000  0.000
   38  0.000  0.000  0.000  0.000
   39  0.000  0.000  0.000  0.000