 vasp.6.2.0 18Jan21 (build Jun 12 2021 23:27:24) complex                        
  
 executed on             LinuxIFC date 2022.05.28  02:15:26
 running on   28 total cores
 distrk:  each k-point on   28 cores,    1 groups
 distr:  one band on NCORE=   1 cores,   28 groups


--------------------------------------------------------------------------------------------------------


 INCAR:
   ISMEAR = -5
   SIGMA = 0.1
   ISPIN = 1
   EDIFF = 1.d-5
   EDIFFG = -0.01
   NSW = 0
   NELM = 150
   ENCUT = 500
   ISIF = 2
   IBRION = 2
   LREAL = Auto
   ALGO = Fast
   ICHARG = 11
   LORBIT = 10
   LCHARG = .F.
   LWAVE = .F.

 POTCAR:    PAW_PBE Cu 22Jun2005                  
 POTCAR:    PAW_PBE V 08Apr2002                   
 POTCAR:    PAW_PBE H 15Jun2001                   
 POTCAR:    PAW_PBE O 08Apr2002                   
 -----------------------------------------------------------------------------
|                                                                             |
|           W    W    AA    RRRRR   N    N  II  N    N   GGGG   !!!           |
|           W    W   A  A   R    R  NN   N  II  NN   N  G    G  !!!           |
|           W    W  A    A  R    R  N N  N  II  N N  N  G       !!!           |
|           W WW W  AAAAAA  RRRRR   N  N N  II  N  N N  G  GGG   !            |
|           WW  WW  A    A  R   R   N   NN  II  N   NN  G    G                |
|           W    W  A    A  R    R  N    N  II  N    N   GGGG   !!!           |
|                                                                             |
|     For optimal performance we recommend to set                             |
|       NCORE = 2 up to number-of-cores-per-socket                            |
|     NCORE specifies how many cores store one orbital (NPAR=cpu/NCORE).      |
|     This setting can greatly improve the performance of VASP for DFT.       |
|     The default, NCORE=1 might be grossly inefficient on modern             |
|     multi-core architectures or massively parallel machines. Do your        |
|     own testing! More info at https://www.vasp.at/wiki/index.php/NCORE      |
|     Unfortunately you need to use the default for GW and RPA                |
|     calculations (for HF NCORE is supported but not extensively tested      |
|     yet).                                                                   |
|                                                                             |
 -----------------------------------------------------------------------------

 POTCAR:    PAW_PBE Cu 22Jun2005                  
   VRHFIN =Cu: d10 p1                                                                               
   LEXCH  = PE                                                                                      
   EATOM  =  1390.9808 eV,  102.2342 Ry                                                             
                                                                                                    
   TITEL  = PAW_PBE Cu 22Jun2005                                                                    
   LULTRA =        F    use ultrasoft PP ?                                                          
   IUNSCR =        1    unscreen: 0-lin 1-nonlin 2-no                                               
   RPACOR =    2.000    partial core radius                                                         
   POMASS =   63.546; ZVAL   =   11.000    mass and valenz                                          
   RCORE  =    2.300    outmost cutoff radius                                                       
   RWIGS  =    2.200; RWIGS  =    1.164    wigner-seitz radius (au A)                               
   ENMAX  =  295.446; ENMIN  =  221.585 eV                                                          
   ICORE  =        3    local potential                                                             
   LCOR   =        T    correct aug charges                                                         
   LPAW   =        T    paw PP                                                                      
   EAUG   =  586.980                                                                                
   DEXC   =    0.000                                                                                
   RMAX   =    2.344    core radius for proj-oper                                                   
   RAUG   =    1.300    factor for augmentation sphere                                              
   RDEP   =    2.302    radius for radial grids                                                     
   RDEPT  =    1.771    core radius for aug-charge                                                  
                                                                                                    
   Atomic configuration                                                                             
    9 entries                                                                                       
     n  l   j            E        occ.                                                              
     1  0  0.50     -8850.2468   2.0000                                                             
     2  0  0.50     -1062.3498   2.0000                                                             
     2  1  1.50      -916.8226   6.0000                                                             
     3  0  0.50      -114.6929   2.0000                                                             
     3  1  1.50       -72.1325   6.0000                                                             
     3  2  2.50        -5.0394  10.0000                                                             
     4  0  0.50        -4.6097   1.0000                                                             
     4  1  0.50        -4.0817   0.0000                                                             
     4  3  2.50        -1.3606   0.0000                                                             
   Description                                                                                      
     l       E           TYP  RCUT    TYP  RCUT                                                     
     2     -5.0393973     23  2.200                                                                 
     2     10.8846608     23  2.200                                                                 
     0     -4.6097109     23  2.200                                                                 
     0      8.2520465     23  2.200                                                                 
     1     -2.7211652     23  2.200                                                                 
     1     21.7055443     23  2.200                                                                 
     3      2.7211652     23  2.300                                                                 
  local pseudopotential read in
  partial core-charges read in
  partial kinetic energy density read in
  atomic valenz-charges read in
  non local Contribution for L=           2  read in
    real space projection operators read in
  non local Contribution for L=           2  read in
    real space projection operators read in
  non local Contribution for L=           0  read in
    real space projection operators read in
  non local Contribution for L=           0  read in
    real space projection operators read in
  non local Contribution for L=           1  read in
    real space projection operators read in
  non local Contribution for L=           1  read in
    real space projection operators read in
    PAW grid and wavefunctions read in
 
   number of l-projection  operators is LMAX  =           6
   number of lm-projection operators is LMMAX =          18
 
 POTCAR:    PAW_PBE V 08Apr2002                   
   VRHFIN =V: p6 d4 s1                                                                              
   LEXCH  = PE                                                                                      
   EATOM  =   170.8679 eV,   12.5584 Ry                                                             
                                                                                                    
   TITEL  = PAW_PBE V 08Apr2002                                                                     
   LULTRA =        F    use ultrasoft PP ?                                                          
   IUNSCR =        1    unscreen: 0-lin 1-nonlin 2-no                                               
   RPACOR =    2.000    partial core radius                                                         
   POMASS =   50.941; ZVAL   =    5.000    mass and valenz                                          
   RCORE  =    2.700    outmost cutoff radius                                                       
   RWIGS  =    2.500; RWIGS  =    1.323    wigner-seitz radius (au A)                               
   ENMAX  =  192.543; ENMIN  =  144.408 eV                                                          
   RCLOC  =    1.779    cutoff for local pot                                                        
   LCOR   =        T    correct aug charges                                                         
   LPAW   =        T    paw PP                                                                      
   EAUG   =  358.662                                                                                
   DEXC   =    0.000                                                                                
   RMAX   =    2.768    core radius for proj-oper                                                   
   RAUG   =    1.300    factor for augmentation sphere                                              
   RDEP   =    2.762    radius for radial grids                                                     
   RDEPT  =    2.240    core radius for aug-charge                                                  
                                                                                                    
   Atomic configuration                                                                             
    9 entries                                                                                       
     n  l   j            E        occ.                                                              
     1  0  0.50     -5360.7193   2.0000                                                             
     2  0  0.50      -598.4546   2.0000                                                             
     2  1  1.50      -499.0155   6.0000                                                             
     3  0  0.50       -66.5711   2.0000                                                             
     3  1  1.50       -40.5282   6.0000                                                             
     3  2  2.50        -2.4291   4.0000                                                             
     4  0  0.50        -3.8743   1.0000                                                             
     4  1  0.50        -2.7212   0.0000                                                             
     4  3  2.50        -1.3606   0.0000                                                             
   Description                                                                                      
     l       E           TYP  RCUT    TYP  RCUT                                                     
     2     -2.4290901     23  2.700                                                                 
     2     -3.7896727     23  2.700                                                                 
     0     -3.8742752     23  2.700                                                                 
     0     27.2116520     23  2.700                                                                 
     1     -2.7211652     23  2.700                                                                 
     1     27.2116520     23  2.700                                                                 
  local pseudopotential read in
  partial core-charges read in
  partial kinetic energy density read in
  atomic valenz-charges read in
  non local Contribution for L=           2  read in
    real space projection operators read in
  non local Contribution for L=           2  read in
    real space projection operators read in
  non local Contribution for L=           0  read in
    real space projection operators read in
  non local Contribution for L=           0  read in
    real space projection operators read in
  non local Contribution for L=           1  read in
    real space projection operators read in
  non local Contribution for L=           1  read in
    real space projection operators read in
    PAW grid and wavefunctions read in
 
   number of l-projection  operators is LMAX  =           6
   number of lm-projection operators is LMMAX =          18
 
 POTCAR:    PAW_PBE H 15Jun2001                   
   VRHFIN =H: ultrasoft test                                                                        
   LEXCH  = PE                                                                                      
   EATOM  =    12.4884 eV,    0.9179 Ry                                                             
                                                                                                    
   TITEL  = PAW_PBE H 15Jun2001                                                                     
   LULTRA =        F    use ultrasoft PP ?                                                          
   IUNSCR =        0    unscreen: 0-lin 1-nonlin 2-no                                               
   RPACOR =    0.000    partial core radius                                                         
   POMASS =    1.000; ZVAL   =    1.000    mass and valenz                                          
   RCORE  =    1.100    outmost cutoff radius                                                       
   RWIGS  =    0.700; RWIGS  =    0.370    wigner-seitz radius (au A)                               
   ENMAX  =  250.000; ENMIN  =  200.000 eV                                                          
   RCLOC  =    0.701    cutoff for local pot                                                        
   LCOR   =        T    correct aug charges                                                         
   LPAW   =        T    paw PP                                                                      
   EAUG   =  400.000                                                                                
   RMAX   =    1.123    core radius for proj-oper                                                   
   RAUG   =    1.200    factor for augmentation sphere                                              
   RDEP   =    1.112    radius for radial grids                                                     
   RDEPT  =    0.926    core radius for aug-charge                                                  
                                                                                                    
   Atomic configuration                                                                             
    2 entries                                                                                       
     n  l   j            E        occ.                                                              
     1  0  0.50        -6.4927   1.0000                                                             
     2  1  0.50        -3.4015   0.0000                                                             
   Description                                                                                      
     l       E           TYP  RCUT    TYP  RCUT                                                     
     0     -6.4927494     23  1.100                                                                 
     0      6.8029130     23  1.100                                                                 
     1     -4.0817478     23  1.100                                                                 
  local pseudopotential read in
  atomic valenz-charges read in
  non local Contribution for L=           0  read in
    real space projection operators read in
  non local Contribution for L=           0  read in
    real space projection operators read in
  non local Contribution for L=           1  read in
    real space projection operators read in
    PAW grid and wavefunctions read in
 
   number of l-projection  operators is LMAX  =           3
   number of lm-projection operators is LMMAX =           5
 
 POTCAR:    PAW_PBE O 08Apr2002                   
   VRHFIN =O: s2p4                                                                                  
   LEXCH  = PE                                                                                      
   EATOM  =   432.3788 eV,   31.7789 Ry                                                             
                                                                                                    
   TITEL  = PAW_PBE O 08Apr2002                                                                     
   LULTRA =        F    use ultrasoft PP ?                                                          
   IUNSCR =        1    unscreen: 0-lin 1-nonlin 2-no                                               
   RPACOR =    1.200    partial core radius                                                         
   POMASS =   16.000; ZVAL   =    6.000    mass and valenz                                          
   RCORE  =    1.520    outmost cutoff radius                                                       
   RWIGS  =    1.550; RWIGS  =    0.820    wigner-seitz radius (au A)                               
   ENMAX  =  400.000; ENMIN  =  300.000 eV                                                          
   ICORE  =        2    local potential                                                             
   LCOR   =        T    correct aug charges                                                         
   LPAW   =        T    paw PP                                                                      
   EAUG   =  605.392                                                                                
   DEXC   =    0.000                                                                                
   RMAX   =    1.553    core radius for proj-oper                                                   
   RAUG   =    1.300    factor for augmentation sphere                                              
   RDEP   =    1.550    radius for radial grids                                                     
   RDEPT  =    1.329    core radius for aug-charge                                                  
                                                                                                    
   Atomic configuration                                                                             
    4 entries                                                                                       
     n  l   j            E        occ.                                                              
     1  0  0.50      -514.6923   2.0000                                                             
     2  0  0.50       -23.9615   2.0000                                                             
     2  1  0.50        -9.0305   4.0000                                                             
     3  2  1.50        -9.5241   0.0000                                                             
   Description                                                                                      
     l       E           TYP  RCUT    TYP  RCUT                                                     
     0    -23.9615318     23  1.200                                                                 
     0     -9.5240782     23  1.200                                                                 
     1     -9.0304911     23  1.520                                                                 
     1      8.1634956     23  1.520                                                                 
     2     -9.5240782      7  1.500                                                                 
  local pseudopotential read in
  partial core-charges read in
  partial kinetic energy density read in
  kinetic energy density of atom read in
  atomic valenz-charges read in
  non local Contribution for L=           0  read in
    real space projection operators read in
  non local Contribution for L=           0  read in
    real space projection operators read in
  non local Contribution for L=           1  read in
    real space projection operators read in
  non local Contribution for L=           1  read in
    real space projection operators read in
    PAW grid and wavefunctions read in
 
   number of l-projection  operators is LMAX  =           4
   number of lm-projection operators is LMMAX =           8
 
 Optimization of the real space projectors (new method)

 maximal supplied QI-value         = 16.25
 optimisation between [QCUT,QGAM] = [ 11.38, 22.75] = [ 36.24,144.96] Ry 
 Optimized for a Real-space Cutoff    1.52 Angstroem

   l    n(q)    QCUT    max X(q) W(low)/X(q) W(high)/X(q)  e(spline) 
   2      9    11.376     4.610    0.21E-03    0.10E-03    0.26E-06
   2      9    11.376     8.522    0.33E-03    0.16E-03    0.37E-06
   0     10    11.376    51.609    0.62E-04    0.20E-04    0.13E-06
   0     10    11.376    27.747    0.54E-04    0.20E-04    0.13E-06
   1     10    11.376    20.408    0.13E-04    0.99E-04    0.19E-06
   1     10    11.376    13.425    0.12E-04    0.87E-04    0.17E-06
 Optimization of the real space projectors (new method)

 maximal supplied QI-value         = 13.98
 optimisation between [QCUT,QGAM] = [ 11.33, 22.79] = [ 35.93,145.49] Ry 
 Optimized for a Real-space Cutoff    1.56 Angstroem

   l    n(q)    QCUT    max X(q) W(low)/X(q) W(high)/X(q)  e(spline) 
   2     10    11.327    96.114    0.36E-03    0.35E-03    0.42E-06
   2     10    11.327    88.986    0.37E-03    0.35E-03    0.42E-06
   0     11    11.327    20.919    0.40E-04    0.56E-04    0.79E-06
   0     11    11.327     9.593    0.30E-04    0.41E-04    0.60E-06
   1     10    11.327    11.615    0.15E-03    0.10E-03    0.19E-06
   1     10    11.327     7.031    0.11E-03    0.73E-04    0.14E-06
 Optimization of the real space projectors (new method)

 maximal supplied QI-value         = 34.20
 optimisation between [QCUT,QGAM] = [ 11.29, 22.57] = [ 35.68,142.71] Ry 
 Optimized for a Real-space Cutoff    1.16 Angstroem

   l    n(q)    QCUT    max X(q) W(low)/X(q) W(high)/X(q)  e(spline) 
   0      8    11.287    19.460    0.40E-03    0.73E-03    0.16E-06
   0      8    11.287    12.209    0.38E-03    0.70E-03    0.15E-06
   1      7    11.287     4.655    0.22E-03    0.25E-04    0.22E-06
 Optimization of the real space projectors (new method)

 maximal supplied QI-value         = 24.76
 optimisation between [QCUT,QGAM] = [ 11.39, 22.77] = [ 36.31,145.25] Ry 
 Optimized for a Real-space Cutoff    1.00 Angstroem

   l    n(q)    QCUT    max X(q) W(low)/X(q) W(high)/X(q)  e(spline) 
   0      7    11.387    20.381    0.39E-03    0.13E-02    0.15E-06
   0      7    11.387    15.268    0.42E-03    0.14E-02    0.17E-06
   1      6    11.387     5.964    0.41E-03    0.11E-02    0.17E-06
   1      6    11.387     5.382    0.39E-03    0.87E-03    0.15E-06
  PAW_PBE Cu 22Jun2005                  :
 energy of atom  1       EATOM=-1390.9808
 kinetic energy error for atom=    0.0043 (will be added to EATOM!!)
  PAW_PBE V 08Apr2002                   :
 energy of atom  2       EATOM= -170.8679
 kinetic energy error for atom=    0.0003 (will be added to EATOM!!)
  PAW_PBE H 15Jun2001                   :
 energy of atom  3       EATOM=  -12.4884
 kinetic energy error for atom=    0.0020 (will be added to EATOM!!)
  PAW_PBE O 08Apr2002                   :
 energy of atom  4       EATOM= -432.3788
 kinetic energy error for atom=    0.0224 (will be added to EATOM!!)
 
 
 POSCAR: Cu-V-H2O
  positions in direct lattice
  velocities in cartesian coordinates
 exchange correlation table for  LEXCH =        8
   RHO(1)=    0.500       N(1)  =     2000
   RHO(2)=  100.500       N(2)  =     4000

 VTST: version 3.2, (02/03/18)

 CHAIN: initializing optimizer
 
 OPT: Using VASP Conjugate-Gradient optimizer
 CHAIN: Read ICHAIN            0
 
 POSCAR: Cu-V-H2O
  positions in direct lattice
  velocities in cartesian coordinates
 


--------------------------------------------------------------------------------------------------------


 ion  position               nearest neighbor table
   1  0.000  0.000  0.221-   7 2.57   3 2.57   4 2.57   2 2.57   6 2.57   8 2.57  12 2.57  10 2.57
                            16 2.57
   2  0.333  0.000  0.221-   8 2.57   9 2.57   5 2.57   1 2.57   3 2.57  11 2.57   4 2.57  10 2.57
                            17 2.57
   3  0.667  0.000  0.221-   1 2.57   7 2.57   6 2.57   9 2.57   2 2.57  12 2.57   5 2.57  18 2.57
                            11 2.57
   4  0.000  0.333  0.221-   5 2.57   6 2.57   1 2.57   7 2.57   2 2.57  13 2.57   9 2.57  10 2.57
                            15 2.57
   5  0.333  0.333  0.221-   4 2.57   2 2.57   7 2.57  13 2.57   8 2.57   6 2.57   3 2.57  11 2.57
                            14 2.57
   6  0.667  0.333  0.221-   4 2.57   9 2.57  15 2.57   3 2.57   1 2.57   8 2.57  14 2.57   5 2.57
                            12 2.57
   7  0.000  0.667  0.221-   1 2.57   3 2.57  16 2.57  18 2.57   4 2.57   5 2.57   8 2.57   9 2.57
                            13 2.57
   8  0.333  0.667  0.221-   9 2.57   2 2.57  17 2.57   6 2.57   1 2.57   7 2.57   5 2.57  14 2.57
                            16 2.57
   9  0.667  0.667  0.221-   8 2.57   6 2.57   2 2.57  17 2.57   3 2.57   7 2.57   4 2.57  15 2.57
                            18 2.57
  10  0.111  0.111  0.308-  26 2.56  19 2.56  20 2.56  11 2.57  12 2.57  13 2.57   1 2.57   2 2.57
                             4 2.57  15 2.57  16 2.57  17 2.57
  11  0.444  0.111  0.308-  20 2.56  21 2.56  10 2.57  13 2.57   2 2.57  17 2.57  14 2.57  12 2.57
                             5 2.57   3 2.57  18 2.57  27 2.57
  12  0.778  0.111  0.308-  19 2.56  25 2.56  21 2.56  15 2.57  10 2.57  14 2.57  18 2.57   3 2.57
                             1 2.57  16 2.57  11 2.57   6 2.57
  13  0.111  0.444  0.308-  23 2.56  20 2.56  16 2.57  18 2.57  10 2.57  11 2.57  14 2.57   5 2.57
                             4 2.57   7 2.57  15 2.57  22 2.57
  14  0.444  0.444  0.308-  21 2.56  23 2.56  15 2.57  17 2.57  12 2.57  16 2.57  13 2.57  11 2.57
                             6 2.57   8 2.57   5 2.57  24 2.57
  15  0.778  0.444  0.308-  19 2.56  24 2.57  22 2.57  14 2.57  17 2.57  12 2.57   6 2.57  18 2.57
                            10 2.57   9 2.57  13 2.57   4 2.57
  16  0.111  0.778  0.308-  25 2.56  26 2.56  23 2.56  18 2.57  13 2.57   7 2.57  14 2.57  17 2.57
                            12 2.57  10 2.57   8 2.57   1 2.57
  17  0.444  0.778  0.308-  26 2.56  27 2.57  24 2.57  14 2.57  15 2.57   8 2.57   9 2.57  11 2.57
                            16 2.57  18 2.57  10 2.57   2 2.57
  18  0.778  0.778  0.308-  25 2.56  22 2.57  27 2.57  16 2.57  13 2.57   7 2.57  15 2.57  12 2.57
                            17 2.57   9 2.57   3 2.57  11 2.57
  19  0.889  0.222  0.393-  12 2.56  10 2.56  15 2.56  28 2.56  25 2.56  26 2.56  21 2.57  20 2.57
                            22 2.57  24 2.57  32 2.58  31 2.58
  20  0.222  0.222  0.394-  36 2.54  11 2.56  13 2.56  10 2.56  23 2.56  21 2.56  26 2.57  19 2.57
                            27 2.57  22 2.57  29 2.57  31 2.57
  21  0.555  0.222  0.394-  36 2.54  14 2.56  11 2.56  12 2.56  20 2.56  23 2.56  19 2.57  25 2.57
                            24 2.57  27 2.57  32 2.57  30 2.57
  22  0.888  0.556  0.394-  24 2.56  27 2.56  35 2.56  18 2.57  15 2.57  19 2.57  25 2.57  31 2.57
                            33 2.57  13 2.57  23 2.57  20 2.57
  23  0.222  0.555  0.394-  36 2.54  13 2.56  14 2.56  16 2.56  20 2.56  21 2.56  25 2.57  26 2.57
                            22 2.57  24 2.57  33 2.57  34 2.57
  24  0.556  0.556  0.394-  22 2.56  27 2.56  35 2.56  15 2.57  17 2.57  19 2.57  26 2.57  32 2.57
                            34 2.57  14 2.57  21 2.57  23 2.57
  25  0.889  0.889  0.393-  12 2.56  16 2.56  18 2.56  28 2.56  19 2.56  26 2.56  21 2.57  23 2.57
                            22 2.57  27 2.57  33 2.58  30 2.58
  26  0.222  0.889  0.393-  10 2.56  16 2.56  17 2.56  28 2.56  25 2.56  19 2.56  20 2.57  23 2.57
                            27 2.57  24 2.57  29 2.58  34 2.58
  27  0.556  0.888  0.394-  24 2.56  22 2.56  35 2.56  17 2.57  18 2.57  26 2.57  25 2.57  29 2.57
                            30 2.57  11 2.57  20 2.57  21 2.57
  28  0.000  0.000  0.480-  25 2.56  19 2.56  26 2.56  33 2.57  30 2.57  31 2.57  29 2.57  32 2.57
                            34 2.57
  29  0.333  0.000  0.480-  30 2.56  36 2.56  31 2.56  27 2.57  35 2.57  28 2.57  20 2.57  34 2.57
                            26 2.58
  30  0.666  0.000  0.480-  29 2.56  36 2.56  32 2.56  27 2.57  35 2.57  28 2.57  21 2.57  33 2.57
                            25 2.58
  31  0.000  0.333  0.480-  33 2.56  36 2.56  29 2.56  22 2.57  35 2.57  28 2.57  20 2.57  32 2.57
                            19 2.58
  32  0.666  0.333  0.480-  34 2.56  36 2.56  30 2.56  24 2.57  35 2.57  28 2.57  21 2.57  31 2.57
                            19 2.58
  33  0.000  0.666  0.480-  31 2.56  36 2.56  34 2.56  22 2.57  35 2.57  28 2.57  23 2.57  30 2.57
                            25 2.58
  34  0.333  0.666  0.480-  32 2.56  36 2.56  33 2.56  24 2.57  35 2.57  28 2.57  23 2.57  29 2.57
                            26 2.58
  35  0.667  0.667  0.480-  24 2.56  27 2.56  22 2.56  34 2.57  32 2.57  29 2.57  30 2.57  33 2.57
                            31 2.57
  36  0.333  0.333  0.479-  39 2.17  23 2.54  20 2.54  21 2.54  31 2.56  29 2.56  33 2.56  32 2.56
                            34 2.56  30 2.56
  37  0.273  0.250  0.578-  39 0.98
  38  0.477  0.249  0.578-  39 0.98
  39  0.335  0.330  0.568-  37 0.98  38 0.98  36 2.17
 
  LATTYP: Found a hexagonal cell.
 ALAT       =     7.6967864036
 C/A-ratio  =     3.1535378041
  
  Lattice vectors:
  
 A1 = (  -3.8483927580,  -6.6656128093,   0.0000000000)
 A2 = (   7.6967864037,   0.0000000000,   0.0000000000)
 A3 = (   0.0000000000,   0.0000000000,  24.2721068937)


Analysis of symmetry for initial positions (statically):
=====================================================================
 Subroutine PRICEL returns:
 Original cell was already a primitive cell.
 

 Routine SETGRP: Setting up the symmetry group for a 
 hexagonal supercell.


 Subroutine GETGRP returns: Found  1 space group operations
 (whereof  1 operations were pure point group operations)
 out of a pool of 24 trial point group operations.


The static configuration has the point symmetry C_1 .


Analysis of symmetry for dynamics (positions and initial velocities):
=====================================================================
 Subroutine PRICEL returns:
 Original cell was already a primitive cell.
 

 Routine SETGRP: Setting up the symmetry group for a 
 hexagonal supercell.


 Subroutine GETGRP returns: Found  1 space group operations
 (whereof  1 operations were pure point group operations)
 out of a pool of 24 trial point group operations.


The dynamic configuration has the point symmetry C_1 .


Analysis of constrained symmetry for selective dynamics:
=====================================================================
 Subroutine PRICEL returns:
 Original cell was already a primitive cell.
 

 Routine SETGRP: Setting up the symmetry group for a 
 hexagonal supercell.


 Subroutine GETGRP returns: Found  1 space group operations
 (whereof  1 operations were pure point group operations)
 out of a pool of 24 trial point group operations.


The constrained configuration has the point symmetry C_1 .


 Subroutine INISYM returns: Found  1 space group operations
 (whereof  1 operations are pure point group operations),
 and found     1 'primitive' translations


----------------------------------------------------------------------------------------

                                     Primitive cell                                     

  volume of cell :    1245.2513

  direct lattice vectors                    reciprocal lattice vectors
     7.696786404  0.000000000  0.000000000     0.129924354 -0.075011849  0.000000000
     3.848392758  6.665612809  0.000000000     0.000000000  0.150023716  0.000000000
     0.000000000  0.000000000 24.272106894     0.000000000  0.000000000  0.041199555

  length of vectors
     7.696786404  7.696786404 24.272106894     0.150023716  0.150023716  0.041199555

  position of ions in fractional coordinates (direct lattice)
     0.000000000  0.000000000  0.221305866
     0.333333343  0.000000000  0.221305866
     0.666666687  0.000000000  0.221305866
     1.000000000  0.333333343  0.221305866
     0.333333313  0.333333343  0.221305866
     0.666666687  0.333333343  0.221305866
     1.000000000  0.666666687  0.221305866
     0.333333373  0.666666687  0.221305866
     0.666666627  0.666666687  0.221305866
     0.111111119  0.111111112  0.307610705
     0.444444418  0.111111112  0.307610705
     0.777777791  0.111111112  0.307610705
     0.111111119  0.444444448  0.307610705
     0.444444478  0.444444448  0.307610705
     0.777777731  0.444444448  0.307610705
     0.111111112  0.777777731  0.307610705
     0.444444478  0.777777731  0.307610705
     0.777777851  0.777777731  0.307610705
     0.888969867  0.222060282  0.393418785
     0.222289655  0.222289640  0.393505614
     0.555420751  0.222289640  0.393505614
     0.888491892  0.555754024  0.393931162
     0.222289625  0.555420691  0.393505614
     0.555754084  0.555754024  0.393931162
     0.888969867  0.888969867  0.393418785
     0.222060297  0.888969867  0.393418785
     0.555754024  0.888491892  0.393931162
     0.000000000  0.000000000  0.479592557
     0.333456448  0.000460112  0.480273197
     0.666083470  0.000460112  0.480273197
     0.000460112  0.333456448  0.480273197
     0.666083470  0.333456448  0.480273197
     0.000460112  0.666083470  0.480273197
     0.333456478  0.666083470  0.480273197
     0.666666627  0.666666687  0.480220422
     0.333333313  0.333333343  0.478748282
     0.272634383  0.249587521  0.577688890
     0.477483885  0.248615111  0.577594948
     0.334770927  0.330166791  0.568205371

  ion indices of the primitive-cell ions
   primitive index   ion index
                 1           1
                 2           2
                 3           3
                 4           4
                 5           5
                 6           6
                 7           7
                 8           8
                 9           9
                10          10
                11          11
                12          12
                13          13
                14          14
                15          15
                16          16
                17          17
                18          18
                19          19
                20          20
                21          21
                22          22
                23          23
                24          24
                25          25
                26          26
                27          27
                28          28
                29          29
                30          30
                31          31
                32          32
                33          33
                34          34
                35          35
                36          36
                37          37
                38          38
                39          39

----------------------------------------------------------------------------------------

 
 
 KPOINTS: Automatic mesh                          

Automatic generation of k-mesh.
 Grid dimensions read from file:
 generate k-points for:    8    8    1

 Generating k-lattice:

  Cartesian coordinates                     Fractional coordinates (reciprocal lattice)
     0.016240544 -0.009376481  0.000000000     0.125000000 -0.000000000  0.000000000
     0.000000000  0.018752964  0.000000000     0.000000000  0.125000000  0.000000000
     0.000000000  0.000000000  0.041199555     0.000000000  0.000000000  1.000000000

  Length of vectors
     0.018752964  0.018752964  0.041199555

  Shift w.r.t. Gamma in fractional coordinates (k-lattice)
     0.000000000  0.000000000  0.000000000

 TETIRR: Found    192 inequivalent tetrahedra from      384
 
 Subroutine IBZKPT returns following result:
 ===========================================
 
 Found     34 irreducible k-points:
 
 Following reciprocal coordinates:
            Coordinates               Weight
  0.000000  0.000000  0.000000      1.000000
  0.125000 -0.000000  0.000000      2.000000
  0.125000  0.125000  0.000000      2.000000
  0.000000  0.125000  0.000000      2.000000
  0.250000 -0.000000  0.000000      2.000000
  0.250000  0.250000  0.000000      2.000000
  0.000000  0.250000  0.000000      2.000000
  0.375000 -0.000000  0.000000      2.000000
  0.375000  0.375000  0.000000      2.000000
  0.000000  0.375000  0.000000      2.000000
  0.500000 -0.000000  0.000000      1.000000
  0.500000  0.500000  0.000000      1.000000
  0.000000  0.500000  0.000000      1.000000
  0.250000  0.125000  0.000000      2.000000
  0.125000  0.250000  0.000000      2.000000
 -0.125000  0.125000  0.000000      2.000000
  0.375000  0.125000  0.000000      2.000000
  0.250000  0.375000  0.000000      2.000000
 -0.125000  0.250000  0.000000      2.000000
  0.250000 -0.125000  0.000000      2.000000
 -0.125000 -0.375000  0.000000      2.000000
 -0.375000 -0.250000  0.000000      2.000000
  0.500000  0.125000  0.000000      2.000000
  0.375000  0.500000  0.000000      2.000000
 -0.125000  0.375000  0.000000      2.000000
  0.375000 -0.125000  0.000000      2.000000
 -0.125000  0.500000  0.000000      2.000000
  0.500000 -0.375000  0.000000      2.000000
  0.500000  0.250000  0.000000      2.000000
  0.250000  0.500000  0.000000      2.000000
 -0.250000  0.250000  0.000000      2.000000
 -0.375000  0.250000  0.000000      2.000000
  0.375000 -0.375000  0.000000      2.000000
 -0.250000  0.375000  0.000000      2.000000
 
 Following cartesian coordinates:
            Coordinates               Weight
  0.000000  0.000000  0.000000      1.000000
  0.016241 -0.009376  0.000000      2.000000
  0.016241  0.009376  0.000000      2.000000
  0.000000  0.018753  0.000000      2.000000
  0.032481 -0.018753  0.000000      2.000000
  0.032481  0.018753  0.000000      2.000000
  0.000000  0.037506  0.000000      2.000000
  0.048722 -0.028129  0.000000      2.000000
  0.048722  0.028129  0.000000      2.000000
  0.000000  0.056259  0.000000      2.000000
  0.064962 -0.037506  0.000000      1.000000
  0.064962  0.037506  0.000000      1.000000
  0.000000  0.075012  0.000000      1.000000
  0.032481  0.000000  0.000000      2.000000
  0.016241  0.028129  0.000000      2.000000
 -0.016241  0.028129  0.000000      2.000000
  0.048722 -0.009376  0.000000      2.000000
  0.032481  0.037506  0.000000      2.000000
 -0.016241  0.046882  0.000000      2.000000
  0.032481 -0.037506  0.000000      2.000000
 -0.016241 -0.046882  0.000000      2.000000
 -0.048722 -0.009376  0.000000      2.000000
  0.064962 -0.018753  0.000000      2.000000
  0.048722  0.046882  0.000000      2.000000
 -0.016241  0.065635  0.000000      2.000000
  0.048722 -0.046882  0.000000      2.000000
 -0.016241  0.084388  0.000000      2.000000
  0.064962 -0.093765  0.000000      2.000000
  0.064962  0.000000  0.000000      2.000000
  0.032481  0.056259  0.000000      2.000000
 -0.032481  0.056259  0.000000      2.000000
 -0.048722  0.065635  0.000000      2.000000
  0.048722 -0.084388  0.000000      2.000000
 -0.032481  0.075012  0.000000      2.000000
 


--------------------------------------------------------------------------------------------------------




 Dimension of arrays:
   k-points           NKPTS =     34   k-points in BZ     NKDIM =     34   number of bands    NBANDS=    252
   number of dos      NEDOS =    301   number of ions     NIONS =     39
   non local maximal  LDIM  =      6   non local SUM 2l+1 LMDIM =     18
   total plane-waves  NPLWV = 246960
   max r-space proj   IRMAX =   3229   max aug-charges    IRDMAX=  12225
   dimension x,y,z NGX =    42 NGY =   42 NGZ =  140
   dimension x,y,z NGXF=    84 NGYF=   84 NGZF=  280
   support grid    NGXF=    84 NGYF=   84 NGZF=  280
   ions per type =              35   1   2   1
   NGX,Y,Z   is equivalent  to a cutoff of   9.07,  9.07,  9.59 a.u.
   NGXF,Y,Z  is equivalent  to a cutoff of  18.14, 18.14, 19.18 a.u.

 SYSTEM =  unknown system                          
 POSCAR =  Cu-V-H2O                                

 Startparameter for this run:
   NWRITE =      2    write-flag & timer
   PREC   = normal    normal or accurate (medium, high low for compatibility)
   ISTART =      0    job   : 0-new  1-cont  2-samecut
   ICHARG =     11    charge: 1-file 2-atom 10-const
   ISPIN  =      1    spin polarized calculation?
   LNONCOLLINEAR =      F non collinear calculations
   LSORBIT =      F    spin-orbit coupling
   INIWAV =      1    electr: 0-lowe 1-rand  2-diag
   LASPH  =      F    aspherical Exc in radial PAW
   METAGGA=      F    non-selfconsistent MetaGGA calc.

 Electronic Relaxation 1
   ENCUT  =  500.0 eV  36.75 Ry    6.06 a.u.  14.03 14.03 44.25*2*pi/ulx,y,z
   ENINI  =  500.0     initial cutoff
   ENAUG  =  605.4 eV  augmentation charge cutoff
   NELM   =    150;   NELMIN=  2; NELMDL= -5     # of ELM steps 
   EDIFF  = 0.1E-04   stopping-criterion for ELM
   LREAL  =      T    real-space projection
   NLSPLINE    = F    spline interpolate recip. space projectors
   LCOMPAT=      F    compatible to vasp.4.4
   GGA_COMPAT  = T    GGA compatible to vasp.4.4-vasp.4.6
   LMAXPAW     = -100 max onsite density
   LMAXMIX     =    2 max onsite mixed and CHGCAR
   VOSKOWN=      0    Vosko Wilk Nusair interpolation
   ROPT   =   -0.00050  -0.00050  -0.00050  -0.00050
 Ionic relaxation
   EDIFFG = -.1E-01   stopping-criterion for IOM
   NSW    =      0    number of steps for IOM
   NBLOCK =      1;   KBLOCK =      1    inner block; outer block 
   IBRION =     -1    ionic relax: 0-MD 1-quasi-New 2-CG
   NFREE  =      1    steps in history (QN), initial steepest desc. (CG)
   ISIF   =      2    stress and relaxation
   IWAVPR =     10    prediction:  0-non 1-charg 2-wave 3-comb
   ISYM   =      2    0-nonsym 1-usesym 2-fastsym
   LCORR  =      T    Harris-Foulkes like correction to forces

   POTIM  = 0.5000    time-step for ionic-motion
   TEIN   =    0.0    initial temperature
   TEBEG  =    0.0;   TEEND  =   0.0 temperature during run
   SMASS  =  -3.00    Nose mass-parameter (am)
   estimated Nose-frequenzy (Omega)   =  0.10E-29 period in steps = 0.13E+47 mass=  -0.135E-26a.u.
   SCALEE = 1.0000    scale energy and forces
   NPACO  =    256;   APACO  = 16.0  distance and # of slots for P.C.
   PSTRESS=    0.0 pullay stress

  Mass of Ions in am
   POMASS =  63.55 50.94  1.00 16.00
  Ionic Valenz
   ZVAL   =  11.00  5.00  1.00  6.00
  Atomic Wigner-Seitz radii
   RWIGS  =  -1.00 -1.00 -1.00 -1.00
  virtual crystal weights 
   VCA    =   1.00  1.00  1.00  1.00
   NELECT =     398.0000    total number of electrons
   NUPDOWN=      -1.0000    fix difference up-down

 DOS related values:
   EMIN   =  10.00;   EMAX   =-10.00  energy-range for DOS
   EFERMI =   0.00
   ISMEAR =    -5;   SIGMA  =   0.10  broadening in eV -4-tet -1-fermi 0-gaus

 Electronic relaxation 2 (details)
   IALGO  =     68    algorithm
   LDIAG  =      T    sub-space diagonalisation (order eigenvalues)
   LSUBROT=      F    optimize rotation matrix (better conditioning)
   TURBO    =      0    0=normal 1=particle mesh
   IRESTART =      0    0=no restart 2=restart with 2 vectors
   NREBOOT  =      0    no. of reboots
   NMIN     =      0    reboot dimension
   EREF     =   0.00    reference energy to select bands
   IMIX   =      4    mixing-type and parameters
     AMIX     =   0.40;   BMIX     =  1.00
     AMIX_MAG =   1.60;   BMIX_MAG =  1.00
     AMIN     =   0.10
     WC   =   100.;   INIMIX=   1;  MIXPRE=   1;  MAXMIX= -45

 Intra band minimization:
   WEIMIN = 0.0000     energy-eigenvalue tresh-hold
   EBREAK =  0.99E-08  absolut break condition
   DEPER  =   0.30     relativ break condition  

   TIME   =   0.40     timestep for ELM

  volume/ion in A,a.u.               =      31.93       215.47
  Fermi-wavevector in a.u.,A,eV,Ry     =   1.119310  2.115188 17.046110  1.252854
  Thomas-Fermi vector in A             =   2.255948
 
 Write flags
   LWAVE        =      F    write WAVECAR
   LDOWNSAMPLE  =      F    k-point downsampling of WAVECAR
   LCHARG       =      F    write CHGCAR
   LVTOT        =      F    write LOCPOT, total local potential
   LVHAR        =      F    write LOCPOT, Hartree potential only
   LELF         =      F    write electronic localiz. function (ELF)
   LORBIT       =     10    0 simple, 1 ext, 2 COOP (PROOUT), +10 PAW based schemes


 Dipole corrections
   LMONO  =      F    monopole corrections only (constant potential shift)
   LDIPOL =      F    correct potential (dipole corrections)
   IDIPOL =      0    1-x, 2-y, 3-z, 4-all directions 
   EPSILON=  1.0000000 bulk dielectric constant

 Exchange correlation treatment:
   GGA     =    --    GGA type
   LEXCH   =     8    internal setting for exchange type
   VOSKOWN=      0    Vosko Wilk Nusair interpolation
   LHFCALC =     F    Hartree Fock is set to
   LHFONE  =     F    Hartree Fock one center treatment
   AEXX    =    0.0000 exact exchange contribution

 Linear response parameters
   LEPSILON=     F    determine dielectric tensor
   LRPA    =     F    only Hartree local field effects (RPA)
   LNABLA  =     F    use nabla operator in PAW spheres
   LVEL    =     F    velocity operator in full k-point grid
   LINTERFAST=   F  fast interpolation
   KINTER  =     0    interpolate to denser k-point grid
   CSHIFT  =0.1000    complex shift for real part using Kramers Kronig
   OMEGAMAX=  -1.0    maximum frequency
   DEG_THRESHOLD= 0.2000000E-02 threshold for treating states as degnerate
   RTIME   =   -0.100 relaxation time in fs
  (WPLASMAI=    0.000 imaginary part of plasma frequency in eV, 0.658/RTIME)
   DFIELD  = 0.0000000 0.0000000 0.0000000 field for delta impulse in time
 
 Orbital magnetization related:
   ORBITALMAG=     F  switch on orbital magnetization
   LCHIMAG   =     F  perturbation theory with respect to B field
   DQ        =  0.001000  dq finite difference perturbation B field
   LLRAUG    =     F  two centre corrections for induced B field



--------------------------------------------------------------------------------------------------------


 Static calculation
 charge density and potential remain constant during run
 non-spin polarized calculation
 RMM-DIIS sequential band-by-band and
  variant of blocked Davidson during initial phase
 perform sub-space diagonalisation
    before iterative eigenvector-optimisation
 no mixing
 using additional bands           53
 real space projection scheme for non local part
 use partial core corrections
 calculate Harris-corrections to forces 
   (improved forces if not selfconsistent)
 use gradient corrections 
 WARNING: stress and forces are not correct
  (second derivative of E(xc) not defined)
 use of overlap-Matrix (Vanderbilt PP)
 Fermi weights with tetrahedron method with Bloechl corrections


--------------------------------------------------------------------------------------------------------


  energy-cutoff  :      500.00
  volume of cell :     1245.25
      direct lattice vectors                 reciprocal lattice vectors
     7.696786404  0.000000000  0.000000000     0.129924354 -0.075011849  0.000000000
     3.848392758  6.665612809  0.000000000     0.000000000  0.150023716  0.000000000
     0.000000000  0.000000000 24.272106894     0.000000000  0.000000000  0.041199555

  length of vectors
     7.696786404  7.696786404 24.272106894     0.150023716  0.150023716  0.041199555


 
 k-points in units of 2pi/SCALE and weight: Automatic mesh                          
   0.00000000  0.00000000  0.00000000       0.016
   0.01624054 -0.00937648  0.00000000       0.031
   0.01624054  0.00937648  0.00000000       0.031
   0.00000000  0.01875296  0.00000000       0.031
   0.03248109 -0.01875296  0.00000000       0.031
   0.03248109  0.01875297  0.00000000       0.031
   0.00000000  0.03750593  0.00000000       0.031
   0.04872163 -0.02812944  0.00000000       0.031
   0.04872163  0.02812945  0.00000000       0.031
   0.00000000  0.05625889  0.00000000       0.031
   0.06496218 -0.03750592  0.00000000       0.016
   0.06496218  0.03750593  0.00000000       0.016
   0.00000000  0.07501186  0.00000000       0.016
   0.03248109  0.00000000  0.00000000       0.031
   0.01624054  0.02812945  0.00000000       0.031
  -0.01624054  0.02812945  0.00000000       0.031
   0.04872163 -0.00937648  0.00000000       0.031
   0.03248109  0.03750593  0.00000000       0.031
  -0.01624054  0.04688241  0.00000000       0.031
   0.03248109 -0.03750593  0.00000000       0.031
  -0.01624054 -0.04688241  0.00000000       0.031
  -0.04872163 -0.00937649  0.00000000       0.031
   0.06496218 -0.01875296  0.00000000       0.031
   0.04872163  0.04688241  0.00000000       0.031
  -0.01624054  0.06563537  0.00000000       0.031
   0.04872163 -0.04688241  0.00000000       0.031
  -0.01624054  0.08438834  0.00000000       0.031
   0.06496218 -0.09376482  0.00000000       0.031
   0.06496218  0.00000000  0.00000000       0.031
   0.03248109  0.05625890  0.00000000       0.031
  -0.03248109  0.05625889  0.00000000       0.031
  -0.04872163  0.06563537  0.00000000       0.031
   0.04872163 -0.08438834  0.00000000       0.031
  -0.03248109  0.07501186  0.00000000       0.031
 
 k-points in reciprocal lattice and weights: Automatic mesh                          
   0.00000000  0.00000000  0.00000000       0.016
   0.12500000 -0.00000000  0.00000000       0.031
   0.12500000  0.12500000  0.00000000       0.031
   0.00000000  0.12500000  0.00000000       0.031
   0.25000000 -0.00000000  0.00000000       0.031
   0.25000000  0.25000000  0.00000000       0.031
   0.00000000  0.25000000  0.00000000       0.031
   0.37500000 -0.00000000  0.00000000       0.031
   0.37500000  0.37500000  0.00000000       0.031
   0.00000000  0.37500000  0.00000000       0.031
   0.50000000 -0.00000000  0.00000000       0.016
   0.50000000  0.50000000  0.00000000       0.016
   0.00000000  0.50000000  0.00000000       0.016
   0.25000000  0.12500000  0.00000000       0.031
   0.12500000  0.25000000  0.00000000       0.031
  -0.12500000  0.12500000  0.00000000       0.031
   0.37500000  0.12500000  0.00000000       0.031
   0.25000000  0.37500000  0.00000000       0.031
  -0.12500000  0.25000000  0.00000000       0.031
   0.25000000 -0.12500000  0.00000000       0.031
  -0.12500000 -0.37500000  0.00000000       0.031
  -0.37500000 -0.25000000  0.00000000       0.031
   0.50000000  0.12500000  0.00000000       0.031
   0.37500000  0.50000000  0.00000000       0.031
  -0.12500000  0.37500000  0.00000000       0.031
   0.37500000 -0.12500000  0.00000000       0.031
  -0.12500000  0.50000000  0.00000000       0.031
   0.50000000 -0.37500000  0.00000000       0.031
   0.50000000  0.25000000  0.00000000       0.031
   0.25000000  0.50000000  0.00000000       0.031
  -0.25000000  0.25000000  0.00000000       0.031
  -0.37500000  0.25000000  0.00000000       0.031
   0.37500000 -0.37500000  0.00000000       0.031
  -0.25000000  0.37500000  0.00000000       0.031
 
 position of ions in fractional coordinates (direct lattice) 
   0.00000000  0.00000000  0.22130587
   0.33333334  0.00000000  0.22130587
   0.66666669  0.00000000  0.22130587
   0.00000000  0.33333334  0.22130587
   0.33333331  0.33333334  0.22130587
   0.66666669  0.33333334  0.22130587
   0.00000000  0.66666669  0.22130587
   0.33333337  0.66666669  0.22130587
   0.66666663  0.66666669  0.22130587
   0.11111112  0.11111111  0.30761070
   0.44444442  0.11111111  0.30761070
   0.77777779  0.11111111  0.30761070
   0.11111112  0.44444445  0.30761070
   0.44444448  0.44444445  0.30761070
   0.77777773  0.44444445  0.30761070
   0.11111111  0.77777773  0.30761070
   0.44444448  0.77777773  0.30761070
   0.77777785  0.77777773  0.30761070
   0.88896987  0.22206028  0.39341878
   0.22228965  0.22228964  0.39350561
   0.55542075  0.22228964  0.39350561
   0.88849189  0.55575402  0.39393116
   0.22228962  0.55542069  0.39350561
   0.55575408  0.55575402  0.39393116
   0.88896987  0.88896987  0.39341878
   0.22206030  0.88896987  0.39341878
   0.55575402  0.88849189  0.39393116
   0.00000000  0.00000000  0.47959256
   0.33345645  0.00046011  0.48027320
   0.66608347  0.00046011  0.48027320
   0.00046011  0.33345645  0.48027320
   0.66608347  0.33345645  0.48027320
   0.00046011  0.66608347  0.48027320
   0.33345648  0.66608347  0.48027320
   0.66666663  0.66666669  0.48022042
   0.33333331  0.33333334  0.47874828
   0.27263438  0.24958752  0.57768889
   0.47748388  0.24861511  0.57759495
   0.33477093  0.33016679  0.56820537
 
 position of ions in cartesian coordinates  (Angst):
   0.00000000  0.00000000  5.37155964
   2.56559554  0.00000000  5.37155964
   5.13119109  0.00000000  5.37155964
   1.28279762  2.22187100  5.37155964
   3.84839293  2.22187100  5.37155964
   6.41398872  2.22187100  5.37155964
   2.56559525  4.44374201  5.37155964
   5.13119102  4.44374201  5.37155964
   7.69678588  4.44374201  5.37155964
   1.28279775  0.74062365  7.46635991
   3.84839295  0.74062365  7.46635991
   6.41398873  0.74062365  7.46635991
   2.56559535  2.96249461  7.46635991
   5.13119101  2.96249461  7.46635991
   7.69678586  2.96249461  7.46635991
   3.84839268  5.18436521  7.46635991
   6.41398840  5.18436521  7.46635991
   8.97958418  5.18436521  7.46635991
   7.69678637  1.48016786  9.54910280
   2.56637383  1.48169667  9.55121032
   5.13041272  1.48169667  9.55121032
   8.97729207  3.70444114  9.56153928
   3.84839272  3.70221927  9.55121032
   6.41628024  3.70444114  9.56153928
  10.26331639  5.92552893  9.54910280
   5.13025587  5.92552893  9.54910280
   7.69678578  5.92234294  9.56153928
   0.00000000  0.00000000 11.64072181
   2.56831375  0.00306693 11.65724238
   5.12847289  0.00306693 11.65724238
   1.28681276  2.22269157 11.65724238
   6.40997358  2.22269157 11.65724238
   2.56689218  4.43985451 11.65724238
   5.12989409  4.43985451 11.65724238
   7.69678588  4.44374201 11.65596141
   3.84839293  2.22187100 11.62022948
   3.05891942  1.66365377 14.02172649
   4.63186006  1.65717207 14.01944633
   3.84727181  2.20076399 13.79154150
 


--------------------------------------------------------------------------------------------------------


 k-point   1 :   0.0000 0.0000 0.0000  plane waves:   31487
 k-point   2 :   0.1250-0.0000 0.0000  plane waves:   31553
 k-point   3 :   0.1250 0.1250 0.0000  plane waves:   31553
 k-point   4 :   0.0000 0.1250 0.0000  plane waves:   31553
 k-point   5 :   0.2500-0.0000 0.0000  plane waves:   31574
 k-point   6 :   0.2500 0.2500 0.0000  plane waves:   31574
 k-point   7 :   0.0000 0.2500 0.0000  plane waves:   31574
 k-point   8 :   0.3750-0.0000 0.0000  plane waves:   31600
 k-point   9 :   0.3750 0.3750 0.0000  plane waves:   31600
 k-point  10 :   0.0000 0.3750 0.0000  plane waves:   31600
 k-point  11 :   0.5000-0.0000 0.0000  plane waves:   31646
 k-point  12 :   0.5000 0.5000 0.0000  plane waves:   31646
 k-point  13 :   0.0000 0.5000 0.0000  plane waves:   31646
 k-point  14 :   0.2500 0.1250 0.0000  plane waves:   31618
 k-point  15 :   0.1250 0.2500 0.0000  plane waves:   31618
 k-point  16 :  -0.1250 0.1250 0.0000  plane waves:   31618
 k-point  17 :   0.3750 0.1250 0.0000  plane waves:   31612
 k-point  18 :   0.2500 0.3750 0.0000  plane waves:   31612
 k-point  19 :  -0.1250 0.2500 0.0000  plane waves:   31612
 k-point  20 :   0.2500-0.1250 0.0000  plane waves:   31612
 k-point  21 :  -0.1250-0.3750 0.0000  plane waves:   31612
 k-point  22 :  -0.3750-0.2500 0.0000  plane waves:   31612
 k-point  23 :   0.5000 0.1250 0.0000  plane waves:   31639
 k-point  24 :   0.3750 0.5000 0.0000  plane waves:   31639
 k-point  25 :  -0.1250 0.3750 0.0000  plane waves:   31639
 k-point  26 :   0.3750-0.1250 0.0000  plane waves:   31639
 k-point  27 :  -0.1250 0.5000 0.0000  plane waves:   31639
 k-point  28 :   0.5000-0.3750 0.0000  plane waves:   31639
 k-point  29 :   0.5000 0.2500 0.0000  plane waves:   31648
 k-point  30 :   0.2500 0.5000 0.0000  plane waves:   31648
 k-point  31 :  -0.2500 0.2500 0.0000  plane waves:   31648
 k-point  32 :  -0.3750 0.2500 0.0000  plane waves:   31656
 k-point  33 :   0.3750-0.3750 0.0000  plane waves:   31656
 k-point  34 :  -0.2500 0.3750 0.0000  plane waves:   31656

 maximum and minimum number of plane-waves per node :     31656    31487

 maximum number of plane-waves:     31656
 maximum index in each direction: 
   IXMAX=   14   IYMAX=   14   IZMAX=   44
   IXMIN=  -14   IYMIN=  -14   IZMIN=  -44


 serial   3D FFT for wavefunctions
 parallel 3D FFT for charge:
    minimum data exchange during FFTs selected (reduces bandwidth)


 total amount of memory used by VASP MPI-rank0   225829. kBytes
=======================================================================

   base      :      30000. kBytes
   nonlr-proj:      18478. kBytes
   fftplans  :       3394. kBytes
   grid      :      15015. kBytes
   one-center:        606. kBytes
   wavefun   :     158336. kBytes
 
     INWAV:  cpu time    0.0000: real time    0.0000
 initial charge density was supplied:
 number of electron     397.9999288 magnetization 
 keeping initial charge density in first step


--------------------------------------------------------------------------------------------------------


 Maximum index for non-local projection operator         3095
 Maximum index for augmentation-charges          577 (set IRDMAX)


--------------------------------------------------------------------------------------------------------


 First call to EWALD:  gamma=   0.165
 Maximum number of real-space cells 4x 4x 1
 Maximum number of reciprocal cells 2x 2x 6

    FEWALD:  cpu time    0.0013: real time    0.0013


--------------------------------------- Iteration      1(   1)  ---------------------------------------


    POTLOK:  cpu time    0.0325: real time    0.0329
    SETDIJ:  cpu time    0.0046: real time    0.0047
     EDDAV:  cpu time   22.1515: real time   22.1535
 BZINTS: Fermi energy:   12.312961;  398.000000 electrons
         Band energy: 0.238560E+04;  BLOECHL correction:   -0.034439
       DOS:  cpu time    0.0592: real time    0.0593
    --------------------------------------------
      LOOP:  cpu time   22.2479: real time   22.2504

 eigenvalue-minimisations  : 17136
 total energy-change (2. order) : 0.3494380E+04  (-0.1685704E+05)
 number of electron     397.9999288 magnetization 
 augmentation part      397.9999288 magnetization 

 Free energy of the ion-electron system (eV)
  ---------------------------------------------------
  alpha Z        PSCENC =       772.50057675
  Ewald energy   TEWEN  =    203949.45185368
  -Hartree energ DENC   =   -250749.49354683
  -exchange      EXHF   =         0.00000000
  -V(xc)+E(xc)   XCENC  =      1545.61939132
  PAW double counting   =     46462.35134527   -50184.02532586
  entropy T*S    EENTRO =         0.00000000
  eigenvalues    EBANDS =      2385.59945254
  atomic energy  EATOM  =     49312.37601138
  Solvation  Ediel_sol  =         0.00000000
  ---------------------------------------------------
  free energy    TOTEN  =      3494.37975824 eV

  energy without entropy =     3494.37975824  energy(sigma->0) =     3494.37975824


--------------------------------------------------------------------------------------------------------




--------------------------------------- Iteration      1(   2)  ---------------------------------------


     EDDAV:  cpu time   22.1292: real time   22.1295
 BZINTS: Fermi energy:    2.356451;  398.000000 electrons
         Band energy:-0.805399E+03;  BLOECHL correction:   -0.023066
       DOS:  cpu time    0.0615: real time    0.0615
    --------------------------------------------
      LOOP:  cpu time   22.1907: real time   22.1910

 eigenvalue-minimisations  : 17136
 total energy-change (2. order) :-0.3190998E+04  (-0.3063385E+04)
 number of electron     397.9999288 magnetization 
 augmentation part      397.9999288 magnetization 

 Free energy of the ion-electron system (eV)
  ---------------------------------------------------
  alpha Z        PSCENC =       772.50057675
  Ewald energy   TEWEN  =    203949.45185368
  -Hartree energ DENC   =   -250749.49354683
  -exchange      EXHF   =         0.00000000
  -V(xc)+E(xc)   XCENC  =      1545.61939132
  PAW double counting   =     46462.35134527   -50184.02532586
  entropy T*S    EENTRO =         0.00000000
  eigenvalues    EBANDS =      -805.39870265
  atomic energy  EATOM  =     49312.37601138
  Solvation  Ediel_sol  =         0.00000000
  ---------------------------------------------------
  free energy    TOTEN  =       303.38160305 eV

  energy without entropy =      303.38160305  energy(sigma->0) =      303.38160305


--------------------------------------------------------------------------------------------------------




--------------------------------------- Iteration      1(   3)  ---------------------------------------


     EDDAV:  cpu time   24.3461: real time   24.3463
 BZINTS: Fermi energy:   -0.024762;  398.000000 electrons
         Band energy:-0.122461E+04;  BLOECHL correction:   -0.024638
       DOS:  cpu time    0.0558: real time    0.0558
    --------------------------------------------
      LOOP:  cpu time   24.4019: real time   24.4021

 eigenvalue-minimisations  : 19264
 total energy-change (2. order) :-0.4192091E+03  (-0.3902694E+03)
 number of electron     397.9999288 magnetization 
 augmentation part      397.9999288 magnetization 

 Free energy of the ion-electron system (eV)
  ---------------------------------------------------
  alpha Z        PSCENC =       772.50057675
  Ewald energy   TEWEN  =    203949.45185368
  -Hartree energ DENC   =   -250749.49354683
  -exchange      EXHF   =         0.00000000
  -V(xc)+E(xc)   XCENC  =      1545.61939132
  PAW double counting   =     46462.35134527   -50184.02532586
  entropy T*S    EENTRO =         0.00000000
  eigenvalues    EBANDS =     -1224.60776447
  atomic energy  EATOM  =     49312.37601138
  Solvation  Ediel_sol  =         0.00000000
  ---------------------------------------------------
  free energy    TOTEN  =      -115.82745877 eV

  energy without entropy =     -115.82745877  energy(sigma->0) =     -115.82745877


--------------------------------------------------------------------------------------------------------




--------------------------------------- Iteration      1(   4)  ---------------------------------------


     EDDAV:  cpu time   30.5806: real time   30.5808
 BZINTS: Fermi energy:   -0.128289;  398.000000 electrons
         Band energy:-0.125281E+04;  BLOECHL correction:   -0.021581
       DOS:  cpu time    0.0552: real time    0.0552
    --------------------------------------------
      LOOP:  cpu time   30.6358: real time   30.6360

 eigenvalue-minimisations  : 25340
 total energy-change (2. order) :-0.2820245E+02  (-0.2775117E+02)
 number of electron     397.9999288 magnetization 
 augmentation part      397.9999288 magnetization 

 Free energy of the ion-electron system (eV)
  ---------------------------------------------------
  alpha Z        PSCENC =       772.50057675
  Ewald energy   TEWEN  =    203949.45185368
  -Hartree energ DENC   =   -250749.49354683
  -exchange      EXHF   =         0.00000000
  -V(xc)+E(xc)   XCENC  =      1545.61939132
  PAW double counting   =     46462.35134527   -50184.02532586
  entropy T*S    EENTRO =         0.00000000
  eigenvalues    EBANDS =     -1252.81021075
  atomic energy  EATOM  =     49312.37601138
  Solvation  Ediel_sol  =         0.00000000
  ---------------------------------------------------
  free energy    TOTEN  =      -144.02990505 eV

  energy without entropy =     -144.02990505  energy(sigma->0) =     -144.02990505


--------------------------------------------------------------------------------------------------------




--------------------------------------- Iteration      1(   5)  ---------------------------------------


     EDDAV:  cpu time   25.2913: real time   25.2914
 BZINTS: Fermi energy:   -0.130123;  398.000000 electrons
         Band energy:-0.125328E+04;  BLOECHL correction:   -0.021523
       DOS:  cpu time    0.0580: real time    0.0580
    --------------------------------------------
      LOOP:  cpu time   25.3493: real time   25.3494

 eigenvalue-minimisations  : 20188
 total energy-change (2. order) :-0.4654902E+00  (-0.4652469E+00)
 number of electron     397.9999288 magnetization 
 augmentation part      397.9999288 magnetization 

 Free energy of the ion-electron system (eV)
  ---------------------------------------------------
  alpha Z        PSCENC =       772.50057675
  Ewald energy   TEWEN  =    203949.45185368
  -Hartree energ DENC   =   -250749.49354683
  -exchange      EXHF   =         0.00000000
  -V(xc)+E(xc)   XCENC  =      1545.61939132
  PAW double counting   =     46462.35134527   -50184.02532586
  entropy T*S    EENTRO =         0.00000000
  eigenvalues    EBANDS =     -1253.27570095
  atomic energy  EATOM  =     49312.37601138
  Solvation  Ediel_sol  =         0.00000000
  ---------------------------------------------------
  free energy    TOTEN  =      -144.49539525 eV

  energy without entropy =     -144.49539525  energy(sigma->0) =     -144.49539525


--------------------------------------------------------------------------------------------------------




--------------------------------------- Iteration      1(   6)  ---------------------------------------


    EDDIAG:  cpu time    4.1467: real time    4.1500
  RMM-DIIS:  cpu time   12.5565: real time   12.5565
    ORTHCH:  cpu time    0.7723: real time    0.7723
 BZINTS: Fermi energy:   -0.130131;  398.000000 electrons
         Band energy:-0.125328E+04;  BLOECHL correction:   -0.021523
       DOS:  cpu time    0.0610: real time    0.0610
    --------------------------------------------
      LOOP:  cpu time   17.5364: real time   17.5398

 eigenvalue-minimisations  : 18604
 total energy-change (2. order) :-0.9057681E-02  (-0.9057672E-02)
 number of electron     397.9999288 magnetization 
 augmentation part      397.9999288 magnetization 

 Free energy of the ion-electron system (eV)
  ---------------------------------------------------
  alpha Z        PSCENC =       772.50057675
  Ewald energy   TEWEN  =    203949.45185368
  -Hartree energ DENC   =   -250749.49354683
  -exchange      EXHF   =         0.00000000
  -V(xc)+E(xc)   XCENC  =      1545.61939132
  PAW double counting   =     46462.35134527   -50184.02532586
  entropy T*S    EENTRO =         0.00000000
  eigenvalues    EBANDS =     -1253.28475863
  atomic energy  EATOM  =     49312.37601138
  Solvation  Ediel_sol  =         0.00000000
  ---------------------------------------------------
  free energy    TOTEN  =      -144.50445293 eV

  energy without entropy =     -144.50445293  energy(sigma->0) =     -144.50445293


--------------------------------------------------------------------------------------------------------




--------------------------------------- Iteration      1(   7)  ---------------------------------------


    EDDIAG:  cpu time    4.1486: real time    4.1489
  RMM-DIIS:  cpu time   17.7160: real time   17.7161
    ORTHCH:  cpu time    0.7719: real time    0.7719
 BZINTS: Fermi energy:   -0.130134;  398.000000 electrons
         Band energy:-0.125329E+04;  BLOECHL correction:   -0.021523
       DOS:  cpu time    0.0609: real time    0.0609
    --------------------------------------------
      LOOP:  cpu time   22.6975: real time   22.6978

 eigenvalue-minimisations  : 26331
 total energy-change (2. order) :-0.4232960E-02  (-0.4100408E-02)
 number of electron     397.9999288 magnetization 
 augmentation part      397.9999288 magnetization 

 Free energy of the ion-electron system (eV)
  ---------------------------------------------------
  alpha Z        PSCENC =       772.50057675
  Ewald energy   TEWEN  =    203949.45185368
  -Hartree energ DENC   =   -250749.49354683
  -exchange      EXHF   =         0.00000000
  -V(xc)+E(xc)   XCENC  =      1545.61939132
  PAW double counting   =     46462.35134527   -50184.02532586
  entropy T*S    EENTRO =         0.00000000
  eigenvalues    EBANDS =     -1253.28899159
  atomic energy  EATOM  =     49312.37601138
  Solvation  Ediel_sol  =         0.00000000
  ---------------------------------------------------
  free energy    TOTEN  =      -144.50868589 eV

  energy without entropy =     -144.50868589  energy(sigma->0) =     -144.50868589


--------------------------------------------------------------------------------------------------------




--------------------------------------- Iteration      1(   8)  ---------------------------------------


    EDDIAG:  cpu time    4.1509: real time    4.1510
  RMM-DIIS:  cpu time   14.0404: real time   14.0404
    ORTHCH:  cpu time    0.7723: real time    0.7723
 BZINTS: Fermi energy:   -0.130135;  398.000000 electrons
         Band energy:-0.125329E+04;  BLOECHL correction:   -0.021523
       DOS:  cpu time    0.0610: real time    0.0610
    --------------------------------------------
      LOOP:  cpu time   19.0245: real time   19.0247

 eigenvalue-minimisations  : 20962
 total energy-change (2. order) :-0.3467861E-03  (-0.3457819E-03)
 number of electron     397.9999288 magnetization 
 augmentation part      397.9999288 magnetization 

 Free energy of the ion-electron system (eV)
  ---------------------------------------------------
  alpha Z        PSCENC =       772.50057675
  Ewald energy   TEWEN  =    203949.45185368
  -Hartree energ DENC   =   -250749.49354683
  -exchange      EXHF   =         0.00000000
  -V(xc)+E(xc)   XCENC  =      1545.61939132
  PAW double counting   =     46462.35134527   -50184.02532586
  entropy T*S    EENTRO =         0.00000000
  eigenvalues    EBANDS =     -1253.28933838
  atomic energy  EATOM  =     49312.37601138
  Solvation  Ediel_sol  =         0.00000000
  ---------------------------------------------------
  free energy    TOTEN  =      -144.50903267 eV

  energy without entropy =     -144.50903267  energy(sigma->0) =     -144.50903267


--------------------------------------------------------------------------------------------------------




--------------------------------------- Iteration      1(   9)  ---------------------------------------


    EDDIAG:  cpu time    4.1478: real time    4.1480
  RMM-DIIS:  cpu time   16.7189: real time   16.7190
    ORTHCH:  cpu time    0.7721: real time    0.7721
 BZINTS: Fermi energy:   -0.130135;  398.000000 electrons
         Band energy:-0.125329E+04;  BLOECHL correction:   -0.021523
       DOS:  cpu time    0.0609: real time    0.0609
    --------------------------------------------
      LOOP:  cpu time   21.6998: real time   21.7001

 eigenvalue-minimisations  : 24539
 total energy-change (2. order) :-0.6351288E-04  (-0.5914650E-04)
 number of electron     397.9999288 magnetization 
 augmentation part      397.9999288 magnetization 

 Free energy of the ion-electron system (eV)
  ---------------------------------------------------
  alpha Z        PSCENC =       772.50057675
  Ewald energy   TEWEN  =    203949.45185368
  -Hartree energ DENC   =   -250749.49354683
  -exchange      EXHF   =         0.00000000
  -V(xc)+E(xc)   XCENC  =      1545.61939132
  PAW double counting   =     46462.35134527   -50184.02532586
  entropy T*S    EENTRO =         0.00000000
  eigenvalues    EBANDS =     -1253.28940189
  atomic energy  EATOM  =     49312.37601138
  Solvation  Ediel_sol  =         0.00000000
  ---------------------------------------------------
  free energy    TOTEN  =      -144.50909619 eV

  energy without entropy =     -144.50909619  energy(sigma->0) =     -144.50909619


--------------------------------------------------------------------------------------------------------




--------------------------------------- Iteration      1(  10)  ---------------------------------------


    EDDIAG:  cpu time    4.1517: real time    4.1518
  RMM-DIIS:  cpu time   10.1633: real time   10.1633
    ORTHCH:  cpu time    0.7715: real time    0.7715
 BZINTS: Fermi energy:   -0.130135;  398.000000 electrons
         Band energy:-0.125329E+04;  BLOECHL correction:   -0.021523
       DOS:  cpu time    0.0609: real time    0.0609
    --------------------------------------------
      LOOP:  cpu time   15.1474: real time   15.1475

 eigenvalue-minimisations  : 13177
 total energy-change (2. order) :-0.5076494E-05  (-0.3990110E-05)
 number of electron     397.9999288 magnetization 
 augmentation part      397.9999288 magnetization 

 Free energy of the ion-electron system (eV)
  ---------------------------------------------------
  alpha Z        PSCENC =       772.50057675
  Ewald energy   TEWEN  =    203949.45185368
  -Hartree energ DENC   =   -250749.49354683
  -exchange      EXHF   =         0.00000000
  -V(xc)+E(xc)   XCENC  =      1545.61939132
  PAW double counting   =     46462.35134527   -50184.02532586
  entropy T*S    EENTRO =         0.00000000
  eigenvalues    EBANDS =     -1253.28940697
  atomic energy  EATOM  =     49312.37601138
  Solvation  Ediel_sol  =         0.00000000
  ---------------------------------------------------
  free energy    TOTEN  =      -144.50910126 eV

  energy without entropy =     -144.50910126  energy(sigma->0) =     -144.50910126


--------------------------------------------------------------------------------------------------------




 average (electrostatic) potential at core
  the test charge radii are     0.9430  1.2064  0.5201  0.7215
  (the norm of the test charge is              1.0000)
       1 -71.1091       2 -71.1060       3 -71.1059       4 -71.1050       5 -71.1190
       6 -71.1047       7 -71.1071       8 -71.1069       9 -71.1070      10 -71.3924
      11 -71.3554      12 -71.3922      13 -71.3570      14 -71.3568      15 -71.3704
      16 -71.3936      17 -71.3734      18 -71.3735      19 -71.3746      20 -71.5468
      21 -71.5469      22 -71.3533      23 -71.5490      24 -71.3533      25 -71.3741
      26 -71.3741      27 -71.3542      28 -71.1705      29 -71.2992      30 -71.2994
      31 -71.2872      32 -71.2871      33 -71.2724      34 -71.2723      35 -71.1476
      36 -46.5603      37 -41.9096      38 -41.9085      39 -78.4566
 
 
 
 E-fermi :  -0.1301     XC(G=0):  -5.3010     alpha+bet : -4.7253

 Fermi energy:        -0.1301346167

 k-point     1 :       0.0000    0.0000    0.0000
  band No.  band energies     occupation 
      1     -23.0053      2.00000
      2     -10.7672      2.00000
      3      -8.9422      2.00000
      4      -7.6869      2.00000
      5      -7.4153      2.00000
      6      -6.0488      2.00000
      7      -5.9632      2.00000
      8      -5.9626      2.00000
      9      -5.9426      2.00000
     10      -5.9409      2.00000
     11      -5.9364      2.00000
     12      -5.9159      2.00000
     13      -5.6146      2.00000
     14      -5.2060      2.00000
     15      -5.1935      2.00000
     16      -5.1930      2.00000
     17      -5.1826      2.00000
     18      -5.1818      2.00000
     19      -5.1782      2.00000
     20      -5.0097      2.00000
     21      -4.5227      2.00000
     22      -4.5222      2.00000
     23      -4.4978      2.00000
     24      -4.4953      2.00000
     25      -4.4897      2.00000
     26      -4.4007      2.00000
     27      -4.2236      2.00000
     28      -4.2107      2.00000
     29      -4.2105      2.00000
     30      -4.1884      2.00000
     31      -4.1883      2.00000
     32      -4.1726      2.00000
     33      -4.0390      2.00000
     34      -4.0383      2.00000
     35      -4.0229      2.00000
     36      -4.0225      2.00000
     37      -4.0163      2.00000
     38      -4.0151      2.00000
     39      -3.9982      2.00000
     40      -3.9842      2.00000
     41      -3.9822      2.00000
     42      -3.9795      2.00000
     43      -3.9787      2.00000
     44      -3.9709      2.00000
     45      -3.9151      2.00000
     46      -3.9141      2.00000
     47      -3.8609      2.00000
     48      -3.8608      2.00000
     49      -3.7674      2.00000
     50      -3.7574      2.00000
     51      -3.7192      2.00000
     52      -3.6973      2.00000
     53      -3.6914      2.00000
     54      -3.6901      2.00000
     55      -3.6868      2.00000
     56      -3.6839      2.00000
     57      -3.6322      2.00000
     58      -3.6270      2.00000
     59      -3.3641      2.00000
     60      -3.3502      2.00000
     61      -3.3497      2.00000
     62      -3.3457      2.00000
     63      -3.3278      2.00000
     64      -3.3253      2.00000
     65      -3.2637      2.00000
     66      -3.2601      2.00000
     67      -3.2601      2.00000
     68      -3.2323      2.00000
     69      -3.2317      2.00000
     70      -3.2238      2.00000
     71      -3.2235      2.00000
     72      -3.1927      2.00000
     73      -3.1911      2.00000
     74      -3.1752      2.00000
     75      -3.1681      2.00000
     76      -3.1191      2.00000
     77      -3.1045      2.00000
     78      -3.1038      2.00000
     79      -3.0462      2.00000
     80      -3.0460      2.00000
     81      -3.0144      2.00000
     82      -3.0131      2.00000
     83      -3.0050      2.00000
     84      -2.9943      2.00000
     85      -2.9926      2.00000
[...]
  0.000   0.000   0.000   0.000   0.000   0.000   0.000   0.000   0.000   0.000   1.000   0.000   0.000   0.000   0.000   0.000
  0.000   0.000   0.000   0.000   0.000   0.000   0.000   0.000   0.000   0.000   0.000   0.000   0.000   0.000   0.000   0.000
  0.000   0.000   0.000   0.000   0.000   0.000   0.000   0.000   0.000   0.000   0.000   0.000   0.000   0.000   0.000   0.000
  0.000   0.000   0.000   0.000   0.000   0.000   0.000   0.000   0.000   0.000   0.000   0.000   0.000   0.000   0.000   0.000
  0.000   0.000   0.000   0.000   0.000   0.000   0.000   0.000   0.000   0.000   0.000   0.000   0.000   0.000   0.000   0.000
  0.000   0.000   0.000   0.000   0.000   0.000   0.000   0.000   0.000   0.000   0.000   0.000   0.000   0.000   0.000   0.000
  0.000   0.000   0.000   0.000   0.000   0.000   0.000   0.000   0.000   0.000   0.000   0.000   0.000   0.000   0.000   0.000
  0.000   0.000   0.000   0.000   0.000   0.000   0.000   0.000   0.000   0.000   0.000   0.000   0.000   0.000   0.000   0.000


------------------------ aborting loop because EDIFF is reached ----------------------------------------





 total charge

# of ion       s       p       d       tot
------------------------------------------
    1        0.449   0.283   9.187   9.919
    2        0.447   0.286   9.185   9.918
    3        0.447   0.286   9.184   9.918
    4        0.447   0.286   9.185   9.918
    5        0.449   0.286   9.181   9.916
    6        0.447   0.286   9.185   9.917
    7        0.447   0.286   9.185   9.917
    8        0.447   0.286   9.185   9.917
    9        0.448   0.284   9.187   9.918
   10        0.443   0.371   9.175   9.989
   11        0.442   0.366   9.182   9.990
   12        0.443   0.371   9.175   9.989
   13        0.441   0.366   9.182   9.989
   14        0.441   0.366   9.182   9.989
   15        0.439   0.370   9.175   9.984
   16        0.443   0.371   9.175   9.989
   17        0.438   0.370   9.176   9.984
   18        0.438   0.370   9.176   9.984
   19        0.443   0.369   9.179   9.990
   20        0.465   0.394   9.156  10.016
   21        0.465   0.394   9.156  10.016
   22        0.432   0.374   9.179   9.986
   23        0.465   0.394   9.157  10.015
   24        0.432   0.374   9.179   9.986
   25        0.442   0.368   9.179   9.990
   26        0.442   0.368   9.179   9.990
   27        0.433   0.374   9.179   9.986
   28        0.445   0.292   9.177   9.914
   29        0.473   0.311   9.163   9.946
   30        0.473   0.311   9.163   9.946
   31        0.473   0.309   9.164   9.946
   32        0.473   0.309   9.164   9.946
   33        0.471   0.304   9.166   9.941
   34        0.471   0.304   9.166   9.941
   35        0.439   0.295   9.178   9.912
   36        0.488   0.548   3.392   4.428
   37        0.600   0.117   0.000   0.717
   38        0.600   0.117   0.000   0.717
   39        1.568   3.615   0.000   5.182
--------------------------------------------------
tot         18.990  16.134 324.535 359.659
 
    CHARGE:  cpu time    0.8159: real time    0.8160
    FORLOC:  cpu time    0.0095: real time    0.0095
    FORNL :  cpu time    4.4718: real time    4.4720
    STRESS:  cpu time   13.3704: real time   13.3706
    FORCOR:  cpu time    0.0328: real time    0.0329
    FORHAR:  cpu time    0.0145: real time    0.0146
    OFIELD:  cpu time    0.0002: real time    0.0002

  FORCE on cell =-STRESS in cart. coord.  units (eV):
  Direction    XX          YY          ZZ          XY          YZ          ZX
  --------------------------------------------------------------------------------------
  Alpha Z   772.50058   772.50058   772.50058
  Ewald  229664.09790229598.28586************    -0.31319   -10.89193    -0.14293
  Hartree242400.01688242388.22535************    -0.06309     6.64590     0.06447
  E(xc)   -2304.03436 -2304.16008 -2308.26444    -0.00080    -0.05395    -0.00166
  Local  ************************484989.63958     0.31607    -3.03409     0.00263
  n-local  -785.57704  -786.07086  -797.05000     0.00369    -0.14673    -0.00400
  augment  3334.20224  3334.99712  3356.33668    -0.01620     0.45179     0.00622
  Kinetic  3295.75360  3313.95172  3348.97121     0.08295     6.95201     0.07663
  Fock        0.00000     0.00000     0.00000     0.00000     0.00000     0.00000
  -------------------------------------------------------------------------------------
  Total     -11.14073   -11.14594    -3.82830     0.00945    -0.07699     0.00136
  in kB     -14.33400   -14.34069    -4.92561     0.01215    -0.09906     0.00174
  external pressure =      -11.20 kB  Pullay stress =        0.00 kB


 VOLUME and BASIS-vectors are now :
 -----------------------------------------------------------------------------
  energy-cutoff  :      500.00
  volume of cell :     1245.25
      direct lattice vectors                 reciprocal lattice vectors
     7.696786404  0.000000000  0.000000000     0.129924354 -0.075011849  0.000000000
     3.848392758  6.665612809  0.000000000     0.000000000  0.150023716  0.000000000
     0.000000000  0.000000000 24.272106894     0.000000000  0.000000000  0.041199555

  length of vectors
     7.696786404  7.696786404 24.272106894     0.150023716  0.150023716  0.041199555


 FORCES acting on ions
    electron-ion (+dipol)            ewald-force                    non-local-force                 convergence-correction
 -----------------------------------------------------------------------------------------------
   0.247E-02 -.171E-02 0.375E+04   -.197E-04 -.109E-01 -.375E+04   0.427E-04 -.945E-03 -.239E+01   -.246E-02 0.147E-01 0.921E-01
   -.665E+00 -.569E+00 0.375E+04   0.565E+00 0.514E+00 -.375E+04   0.880E-01 0.156E+00 -.184E+01   0.169E-01 -.895E-01 0.980E-01
   0.662E+00 -.581E+00 0.375E+04   -.565E+00 0.514E+00 -.375E+04   -.885E-01 0.155E+00 -.184E+01   -.140E-01 -.764E-01 0.102E+00
   -.797E+00 -.304E+00 0.375E+04   0.737E+00 0.245E+00 -.375E+04   0.174E+00 -.146E-01 -.187E+01   -.973E-01 0.703E-01 0.858E-01
   -.158E-01 -.416E-01 0.375E+04   0.308E-03 0.185E-01 -.375E+04   -.898E-02 -.144E-01 -.151E+01   0.248E-01 0.327E-01 0.253E+00
   0.808E+00 -.308E+00 0.375E+04   -.737E+00 0.245E+00 -.375E+04   -.173E+00 -.154E-01 -.187E+01   0.863E-01 0.751E-01 0.908E-01
   -.228E+00 0.881E+00 0.375E+04   0.172E+00 -.759E+00 -.375E+04   0.114E+00 -.141E+00 -.191E+01   -.532E-01 0.106E-01 0.107E+00
   0.218E+00 0.888E+00 0.375E+04   -.172E+00 -.759E+00 -.375E+04   -.116E+00 -.140E+00 -.191E+01   0.655E-01 0.262E-02 0.108E+00
   0.149E-01 0.468E-01 0.375E+04   0.152E-03 -.741E-02 -.375E+04   0.957E-02 0.210E-02 -.213E+01   -.250E-01 -.393E-01 0.506E-01
   -.429E+01 -.247E+01 0.126E+04   0.475E+01 0.275E+01 -.126E+04   -.388E+00 -.242E+00 -.917E+00   -.790E-01 -.400E-01 -.619E+00
   -.132E-01 -.507E+01 0.125E+04   0.115E-02 0.480E+01 -.125E+04   -.833E-02 0.228E+00 -.182E+00   0.208E-01 0.314E-02 -.704E+00
   0.430E+01 -.248E+01 0.126E+04   -.475E+01 0.275E+01 -.126E+04   0.388E+00 -.242E+00 -.916E+00   0.718E-01 -.340E-01 -.625E+00
   -.438E+01 0.239E+01 0.125E+04   0.415E+01 -.228E+01 -.125E+04   0.198E+00 -.121E+00 -.206E+00   -.353E-02 0.409E-01 -.714E+00
   0.436E+01 0.239E+01 0.125E+04   -.415E+01 -.228E+01 -.125E+04   -.216E+00 -.120E+00 -.206E+00   0.420E-01 0.366E-01 -.725E+00
   0.115E-01 -.127E+01 0.126E+04   -.103E-02 0.102E+01 -.126E+04   0.176E-02 0.136E+00 -.911E+00   -.122E-01 0.106E+00 -.673E+00
   -.127E-02 0.511E+01 0.126E+04   0.564E-03 -.561E+01 -.126E+04   0.805E-03 0.455E+00 -.905E+00   -.816E-04 0.505E-01 -.598E+00
   -.961E+00 0.706E+00 0.126E+04   0.788E+00 -.574E+00 -.126E+04   0.884E-01 -.507E-01 -.905E+00   0.709E-01 -.734E-01 -.639E+00
   0.962E+00 0.695E+00 0.126E+04   -.788E+00 -.572E+00 -.126E+04   -.898E-01 -.518E-01 -.906E+00   -.706E-01 -.625E-01 -.635E+00
   0.656E-02 -.643E+01 -.123E+04   -.834E-02 0.653E+01 0.123E+04   -.488E-03 -.207E-01 0.832E+00   0.221E-02 -.895E-01 -.654E+00
   -.470E+02 -.278E+02 -.129E+04   0.487E+02 0.288E+02 0.129E+04   -.121E+01 -.694E+00 -.916E+00   -.465E+00 -.289E+00 -.121E+01
   0.470E+02 -.278E+02 -.129E+04   -.487E+02 0.288E+02 0.129E+04   0.122E+01 -.693E+00 -.916E+00   0.437E+00 -.290E+00 -.122E+01
   -.224E+02 0.126E+02 -.124E+04   0.224E+02 -.126E+02 0.124E+04   0.378E+00 -.194E+00 0.587E+00   -.294E+00 0.182E+00 -.721E+00
   -.565E-03 0.541E+02 -.129E+04   0.870E-02 -.560E+02 0.129E+04   0.904E-02 0.143E+01 -.782E+00   -.177E-01 0.504E+00 -.119E+01
   0.224E+02 0.126E+02 -.124E+04   -.224E+02 -.126E+02 0.124E+04   -.378E+00 -.195E+00 0.587E+00   0.298E+00 0.186E+00 -.720E+00
   0.504E+01 0.384E+01 -.123E+04   -.513E+01 -.384E+01 0.123E+04   0.359E-01 -.284E-01 0.970E+00   0.642E-01 0.378E-01 -.643E+00
   -.504E+01 0.384E+01 -.123E+04   0.513E+01 -.385E+01 0.123E+04   -.362E-01 -.286E-01 0.971E+00   -.606E-01 0.392E-01 -.641E+00
   0.166E-02 -.249E+02 -.124E+04   0.965E-03 0.249E+02 0.124E+04   0.276E-03 0.418E+00 0.541E+00   -.290E-02 -.345E+00 -.685E+00
   0.201E-01 0.258E+01 -.366E+04   -.176E-01 -.268E+01 0.366E+04   0.105E-03 0.106E+00 0.169E+01   -.260E-02 0.371E-02 -.395E+00
   -.233E+02 -.469E+02 -.364E+04   0.241E+02 0.481E+02 0.364E+04   -.640E+00 -.758E+00 0.712E+00   -.240E+00 -.515E+00 -.202E+00
   0.232E+02 -.469E+02 -.364E+04   -.241E+02 0.481E+02 0.364E+04   0.625E+00 -.762E+00 0.704E+00   0.269E+00 -.511E+00 -.201E+00
   -.559E+02 -.349E+00 -.364E+04   0.576E+02 0.568E+00 0.364E+04   -.113E+01 -.224E+00 0.631E+00   -.609E+00 0.710E-02 -.204E+00
   0.560E+02 -.363E+00 -.364E+04   -.577E+02 0.575E+00 0.364E+04   0.111E+01 -.224E+00 0.631E+00   0.641E+00 0.130E-01 -.201E+00
   -.342E+02 0.499E+02 -.365E+04   0.347E+02 -.513E+02 0.365E+04   -.240E+00 0.892E+00 0.123E+01   -.296E+00 0.540E+00 -.233E+00
   0.341E+02 0.500E+02 -.365E+04   -.346E+02 -.514E+02 0.365E+04   0.222E+00 0.891E+00 0.123E+01   0.336E+00 0.541E+00 -.231E+00
   0.416E-01 0.170E+01 -.368E+04   -.258E-01 -.169E+01 0.368E+04   0.105E-01 -.237E-01 0.225E+01   -.265E-01 0.151E-01 -.141E+00
   -.542E-01 -.470E+01 -.157E+04   0.542E-01 0.471E+01 0.157E+04   -.216E-03 -.662E-02 0.193E+01   -.943E-03 -.141E-01 -.610E-01
   0.671E+02 0.421E+02 -.386E+03   -.738E+02 -.464E+02 0.388E+03   0.673E+01 0.429E+01 -.187E+01   -.201E-01 -.171E-01 0.464E-01
   -.668E+02 0.426E+02 -.386E+03   0.734E+02 -.469E+02 0.387E+03   -.670E+01 0.435E+01 -.185E+01   0.199E-01 -.174E-01 0.466E-01
   -.219E+00 -.562E+02 -.222E+04   0.376E+00 0.983E+02 0.221E+04   -.156E+00 -.420E+02 0.810E+01   -.225E-02 -.236E-01 0.449E+00
 -----------------------------------------------------------------------------------------------
   0.979E-01 0.335E+02 0.201E+02   -.111E-15 -.284E-13 -.273E-11   -.167E+00 -.335E+02 -.608E+01   0.704E-01 -.134E-01 -.140E+02
 
 
 POSITION                                       TOTAL-FORCE (eV/Angst)
 -----------------------------------------------------------------------------------
      0.00000      0.00000      5.37156        -0.000013      0.000929     -0.024473
      2.56560      0.00000      5.37156         0.005280      0.011859      0.052707
      5.13119      0.00000      5.37156        -0.005374      0.011685      0.052654
      1.28280      2.22187      5.37156         0.016357     -0.003505      0.053376
      3.84839      2.22187      5.37156         0.000331     -0.004911      0.047722
      6.41399      2.22187      5.37156        -0.016311     -0.003514      0.053376
      2.56560      4.44374      5.37156         0.004977     -0.009313      0.053885
      5.13119      4.44374      5.37156        -0.005123     -0.009295      0.053923
      7.69679      4.44374      5.37156        -0.000439      0.002036      0.017621
      1.28280      0.74062      7.46636        -0.002436     -0.001299     -0.081497
      3.84839      0.74062      7.46636         0.000380     -0.043605     -0.058333
      6.41399      0.74062      7.46636         0.002441     -0.001361     -0.081471
      2.56560      2.96249      7.46636        -0.033506      0.023047     -0.057510
      5.13119      2.96249      7.46636         0.034421      0.023109     -0.057479
      7.69679      2.96249      7.46636         0.000052     -0.014822     -0.024879
      3.84839      5.18437      7.46636        -0.000027      0.002616     -0.083068
      6.41399      5.18437      7.46636        -0.013587      0.008297     -0.018372
      8.97958      5.18437      7.46636         0.013578      0.008190     -0.018457
      7.69679      1.48017      9.54910        -0.000099     -0.003197     -0.005988
      2.56637      1.48170      9.55121        -0.016406     -0.002499     -0.057159
      5.13041      1.48170      9.55121         0.015394     -0.002573     -0.057298
      8.97729      3.70444      9.56154         0.031914     -0.025062      0.001186
      3.84839      3.70222      9.55121        -0.000604      0.034580     -0.040698
      6.41628      3.70444      9.56154        -0.032181     -0.025297      0.001296
     10.26332      5.92553      9.54910         0.007621      0.005783      0.002681
      5.13026      5.92553      9.54910        -0.007776      0.005826      0.002747
      7.69679      5.92234      9.56154        -0.000038      0.039363     -0.010433
      0.00000      0.00000     11.64072         0.000010      0.010310      0.039580
      2.56831      0.00307     11.65724        -0.051401     -0.085289     -0.105461
      5.12847      0.00307     11.65724         0.052412     -0.084693     -0.105029
      1.28681      2.22269     11.65724        -0.081016      0.001666     -0.094942
      6.40997      2.22269     11.65724         0.080944      0.001148     -0.094090
      2.56689      4.43985     11.65724        -0.074642      0.072610     -0.108851
      5.12989      4.43985     11.65724         0.075377      0.072483     -0.109000
      7.69679      4.44374     11.65596        -0.000232     -0.001185      0.037119
      3.84839      2.22187     11.62023        -0.001211     -0.011455      0.831138
      3.05892      1.66365     14.02173         0.006639      0.006935     -0.006666
      4.63186      1.65717     14.01945        -0.005493      0.006378     -0.003082
      3.84727      2.20076     13.79154        -0.000214     -0.015974      0.003226
 -----------------------------------------------------------------------------------
    total drift:                                0.001620      0.007481      0.072210


--------------------------------------------------------------------------------------------------------



  FREE ENERGIE OF THE ION-ELECTRON SYSTEM (eV)
  ---------------------------------------------------
  free  energy   TOTEN  =      -144.50910126 eV

  energy  without entropy=     -144.50910126  energy(sigma->0) =     -144.50910126
 


--------------------------------------------------------------------------------------------------------


    POTLOK:  cpu time    0.0333: real time    0.0333


--------------------------------------------------------------------------------------------------------


 stress matrix after NEB project (eV)
    -11.14073      0.00945      0.00136
      0.00945    -11.14594     -0.07699
      0.00136     -0.07699     -3.82830
  FORCES: max atom, RMS     0.016298    0.003518
  FORCE total and by dimension    0.021968    0.015974
  Stress total and by dimension   16.217760   11.145936
     LOOP+:  cpu time  239.8040: real time  239.8168
 -----------------------------------------------------------------------------
|                                                                             |
|           W    W    AA    RRRRR   N    N  II  N    N   GGGG   !!!           |
|           W    W   A  A   R    R  NN   N  II  NN   N  G    G  !!!           |
|           W    W  A    A  R    R  N N  N  II  N N  N  G       !!!           |
|           W WW W  AAAAAA  RRRRR   N  N N  II  N  N N  G  GGG   !            |
|           WW  WW  A    A  R   R   N   NN  II  N   NN  G    G                |
|           W    W  A    A  R    R  N    N  II  N    N   GGGG   !!!           |
|                                                                             |
|     Tetrahedron method does not include variations of the Fermi             |
|     occupations, so forces and stress will be inaccurate. We suggest        |
|     using a different smearing scheme ISMEAR = 1 or 2 for metals in         |
|     relaxations.                                                            |
|                                                                             |
 -----------------------------------------------------------------------------

    4ORBIT:  cpu time    0.0000: real time    0.0000



 total charge

# of ion       s       p       d       tot
------------------------------------------
    1        0.449   0.283   9.187   9.919
    2        0.447   0.286   9.185   9.918
    3        0.447   0.286   9.184   9.918
    4        0.447   0.286   9.185   9.918
    5        0.449   0.286   9.181   9.916
    6        0.447   0.286   9.185   9.917
    7        0.447   0.286   9.185   9.917
    8        0.447   0.286   9.185   9.917
    9        0.448   0.284   9.187   9.918
   10        0.443   0.371   9.175   9.989
   11        0.442   0.366   9.182   9.990
   12        0.443   0.371   9.175   9.989
   13        0.441   0.366   9.182   9.989
   14        0.441   0.366   9.182   9.989
   15        0.439   0.370   9.175   9.984
   16        0.443   0.371   9.175   9.989
   17        0.438   0.370   9.176   9.984
   18        0.438   0.370   9.176   9.984
   19        0.443   0.369   9.179   9.990
   20        0.465   0.394   9.156  10.016
   21        0.465   0.394   9.156  10.016
   22        0.432   0.374   9.179   9.986
   23        0.465   0.394   9.157  10.015
   24        0.432   0.374   9.179   9.986
   25        0.442   0.368   9.179   9.990
   26        0.442   0.368   9.179   9.990
   27        0.433   0.374   9.179   9.986
   28        0.445   0.292   9.177   9.914
   29        0.473   0.311   9.163   9.946
   30        0.473   0.311   9.163   9.946
   31        0.473   0.309   9.164   9.946
   32        0.473   0.309   9.164   9.946
   33        0.471   0.304   9.166   9.941
   34        0.471   0.304   9.166   9.941
   35        0.439   0.295   9.178   9.912
   36        0.488   0.548   3.392   4.428
   37        0.600   0.117   0.000   0.717
   38        0.600   0.117   0.000   0.717
   39        1.568   3.615   0.000   5.182
--------------------------------------------------
tot         18.990  16.134 324.535 359.659
 
 BZINTS: Fermi energy:   -0.130135;  398.000000 electrons
         Band energy:-0.125329E+04;  BLOECHL correction:   -0.021523

 total amount of memory used by VASP MPI-rank0   225829. kBytes
=======================================================================

   base      :      30000. kBytes
   nonlr-proj:      18478. kBytes
   fftplans  :       3394. kBytes
   grid      :      15015. kBytes
   one-center:        606. kBytes
   wavefun   :     158336. kBytes
 
  
  
 General timing and accounting informations for this job:
 ========================================================
  
                  Total CPU time used (sec):      258.933
                            User time (sec):      249.902
                          System time (sec):        9.031
                         Elapsed time (sec):      259.425
  
                   Maximum memory used (kb):      497824.
                   Average memory used (kb):          N/A
  
                          Minor page faults:       115847
                          Major page faults:            0
                 Voluntary context switches:        10984
