PROCAR new format
# of k-points:   10         # of bands:  252         # of ions:   37

 k-point     1 :    0.00000000 0.00000000 0.00000000     weight = 0.01562500

band     1 # energy   -6.43460974 # occ.  2.00000000
 
ion      s      p      d    tot
    1  0.005  0.001  0.000  0.006
    2  0.005  0.000  0.000  0.006
    3  0.005  0.000  0.000  0.006
    4  0.005  0.000  0.000  0.006
    5  0.005  0.001  0.000  0.006
    6  0.005  0.000  0.000  0.006
    7  0.005  0.000  0.000  0.006
    8  0.005  0.000  0.000  0.006
    9  0.005  0.000  0.000  0.005
   10  0.021  0.000  0.000  0.022
   11  0.022  0.000  0.000  0.022
   12  0.021  0.000  0.000  0.022
   13  0.022  0.000  0.000  0.022
   14  0.022  0.000  0.000  0.022
   15  0.020  0.000  0.000  0.020
   16  0.021  0.000  0.000  0.022
   17  0.020  0.000  0.000  0.020
   18  0.020  0.000  0.000  0.020
   19  0.021  0.000  0.001  0.022
   20  0.029  0.000  0.001  0.030
   21  0.029  0.000  0.001  0.030
   22  0.021  0.000  0.000  0.022
   23  0.029  0.000  0.001  0.030
   24  0.021  0.000  0.000  0.022
   25  0.021  0.000  0.001  0.022
   26  0.021  0.000  0.001  0.022
   27  0.021  0.000  0.000  0.022
   28  0.006  0.000  0.000  0.006
   29  0.007  0.001  0.000  0.008
   30  0.007  0.001  0.000  0.008
   31  0.007  0.001  0.000  0.008
   32  0.007  0.001  0.000  0.008
   33  0.007  0.001  0.000  0.008
   34  0.007  0.001  0.000  0.008
   35  0.006  0.000  0.000  0.006
   36  0.028  0.001  0.000  0.029
   37  0.002  0.000  0.000  0.002
tot    0.530  0.013  0.011  0.554
 
band     2 # energy   -5.61159251 # occ.  2.00000000
 
ion      s      p      d    tot
    1  0.008  0.000  0.001  0.009
    2  0.010  0.000  0.001  0.011
    3  0.010  0.000  0.001  0.011
    4  0.010  0.000  0.001  0.011
    5  0.010  0.001  0.000  0.011
    6  0.010  0.000  0.001  0.011
    7  0.010  0.000  0.001  0.011
    8  0.010  0.000  0.001  0.011
    9  0.011  0.001  0.000  0.012
   10  0.011  0.001  0.013  0.024
   11  0.013  0.001  0.008  0.022
   12  0.011  0.001  0.013  0.024
   13  0.013  0.001  0.008  0.022
   14  0.013  0.001  0.008  0.022
   15  0.016  0.001  0.007  0.023
   16  0.011  0.001  0.013  0.024
   17  0.016  0.001  0.007  0.023
   18  0.016  0.001  0.007  0.023
   19  0.004  0.001  0.008  0.012
   20  0.012  0.003  0.014  0.029
   21  0.012  0.003  0.014  0.029
   22  0.003  0.001  0.006  0.010
   23  0.012  0.003  0.014  0.029
   24  0.003  0.001  0.006  0.010
   25  0.004  0.001  0.008  0.012
   26  0.004  0.001  0.008  0.012
   27  0.003  0.001  0.006  0.010
   28  0.006  0.000  0.002  0.008
   29  0.010  0.001  0.005  0.016
   30  0.010  0.001  0.005  0.016
   31  0.010  0.001  0.005  0.016
   32  0.010  0.001  0.005  0.016
   33  0.010  0.001  0.005  0.016
   34  0.010  0.001  0.005  0.016
   35  0.005  0.000  0.001  0.007
   36  0.065  0.001  0.001  0.066
   37  0.006  0.000  0.000  0.006
tot    0.405  0.030  0.208  0.642
 
band     3 # energy   -5.33827148 # occ.  2.00000000
 
ion      s      p      d    tot
    1  0.000  0.000  0.008  0.008
    2  0.001  0.000  0.003  0.004
    3  0.001  0.000  0.003  0.004
    4  0.001  0.000  0.003  0.004
    5  0.001  0.000  0.001  0.003
    6  0.001  0.000  0.003  0.004
    7  0.001  0.000  0.003  0.004
    8  0.001  0.000  0.003  0.004
    9  0.002  0.000  0.002  0.004
   10  0.003  0.000  0.020  0.023
   11  0.001  0.000  0.022  0.023
   12  0.003  0.000  0.020  0.023
   13  0.001  0.000  0.022  0.023
   14  0.001  0.000  0.022  0.023
   15  0.000  0.000  0.014  0.014
   16  0.003  0.000  0.020  0.023
   17  0.000  0.000  0.014  0.014
   18  0.000  0.000  0.014  0.014
   19  0.008  0.000  0.023  0.031
   20  0.000  0.001  0.070  0.071
   21  0.000  0.001  0.070  0.071
   22  0.010  0.000  0.019  0.029
   23  0.000  0.001  0.070  0.071
   24  0.010  0.000  0.019  0.029
   25  0.008  0.000  0.023  0.031
   26  0.008  0.000  0.023  0.031
   27  0.010  0.000  0.019  0.029
   28  0.000  0.000  0.011  0.011
   29  0.003  0.001  0.018  0.022
   30  0.003  0.001  0.018  0.022
   31  0.003  0.001  0.018  0.022
   32  0.003  0.001  0.018  0.022
   33  0.003  0.001  0.018  0.022
   34  0.003  0.001  0.018  0.022
   35  0.000  0.000  0.009  0.010
   36  0.048  0.000  0.001  0.049
   37  0.003  0.000  0.000  0.003
tot    0.149  0.007  0.669  0.824
 
band     4 # energy   -5.19791733 # occ.  2.00000000
 
ion      s      p      d    tot
    1  0.023  0.001  0.008  0.031
    2  0.009  0.000  0.017  0.026
    3  0.009  0.000  0.017  0.026
    4  0.009  0.000  0.017  0.026
    5  0.005  0.000  0.017  0.022
    6  0.009  0.000  0.017  0.026
    7  0.009  0.000  0.017  0.026
    8  0.009  0.000  0.017  0.026
    9  0.005  0.000  0.015  0.020
   10  0.002  0.000  0.034  0.036
   11  0.001  0.000  0.010  0.011
   12  0.002  0.000  0.034  0.036
   13  0.001  0.000  0.010  0.011
   14  0.001  0.000  0.010  0.011
   15  0.004  0.001  0.003  0.008
   16  0.002  0.000  0.034  0.036
   17  0.004  0.001  0.003  0.008
   18  0.004  0.001  0.003  0.008
   19  0.000  0.001  0.023  0.024
   20  0.002  0.000  0.065  0.068
   21  0.002  0.000  0.065  0.068
   22  0.012  0.000  0.001  0.013
   23  0.002  0.000  0.065  0.068
   24  0.012  0.000  0.001  0.013
   25  0.000  0.001  0.023  0.024
   26  0.000  0.001  0.023  0.024
   27  0.012  0.000  0.001  0.013
   28  0.004  0.000  0.000  0.004
   29  0.002  0.000  0.004  0.006
   30  0.002  0.000  0.004  0.006
   31  0.002  0.000  0.004  0.006
   32  0.002  0.000  0.004  0.006
   33  0.002  0.000  0.004  0.006
   34  0.002  0.000  0.004  0.006
   35  0.010  0.001  0.000  0.011
   36  0.006  0.001  0.012  0.019
   37  0.002  0.000  0.000  0.002
tot    0.181  0.013  0.585  0.780
 
band     5 # energy   -5.12939508 # occ.  2.00000000
 
ion      s      p      d    tot
    1  0.004  0.000  0.007  0.011
    2  0.006  0.000  0.016  0.022
    3  0.006  0.000  0.016  0.022
    4  0.006  0.000  0.016  0.022
    5  0.012  0.000  0.021  0.033
    6  0.006  0.000  0.016  0.022
    7  0.006  0.000  0.016  0.022
    8  0.006  0.000  0.016  0.022
    9  0.004  0.000  0.013  0.017
   10  0.001  0.001  0.001  0.003
   11  0.001  0.000  0.035  0.037
   12  0.001  0.001  0.001  0.003
   13  0.001  0.000  0.035  0.037
   14  0.001  0.000  0.035  0.037
   15  0.001  0.000  0.022  0.023
   16  0.001  0.001  0.001  0.003
   17  0.001  0.000  0.022  0.023
   18  0.001  0.000  0.022  0.022
   19  0.004  0.000  0.014  0.019
   20  0.002  0.000  0.078  0.081
   21  0.002  0.000  0.078  0.081
   22  0.003  0.000  0.014  0.017
   23  0.002  0.000  0.078  0.081
   24  0.003  0.000  0.014  0.017
   25  0.004  0.000  0.014  0.019
   26  0.004  0.000  0.014  0.019
   27  0.003  0.000  0.014  0.017
   28  0.000  0.000  0.001  0.001
   29  0.002  0.000  0.009  0.011
   30  0.002  0.000  0.009  0.011
   31  0.002  0.000  0.009  0.011
   32  0.002  0.000  0.009  0.011
   33  0.002  0.000  0.009  0.011
   34  0.002  0.000  0.009  0.011
   35  0.003  0.000  0.000  0.003
   36  0.005  0.000  0.012  0.018
   37  0.000  0.000  0.000  0.000
tot    0.109  0.008  0.700  0.818
 
band     6 # energy   -5.12143654 # occ.  2.00000000
 
ion      s      p      d    tot
    1  0.000  0.000  0.006  0.006
    2  0.000  0.000  0.003  0.003
    3  0.000  0.000  0.002  0.003
    4  0.000  0.000  0.003  0.003
    5  0.000  0.000  0.004  0.004
    6  0.000  0.000  0.003  0.003
    7  0.000  0.000  0.002  0.003
    8  0.000  0.000  0.003  0.003
    9  0.000  0.000  0.003  0.003
   10  0.000  0.001  0.022  0.023
   11  0.001  0.000  0.027  0.028
   12  0.004  0.001  0.024  0.029
   13  0.001  0.000  0.028  0.029
   14  0.000  0.000  0.049  0.049
   15  0.008  0.001  0.015  0.023
   16  0.004  0.001  0.024  0.029
   17  0.008  0.001  0.015  0.023
   18  0.000  0.000  0.020  0.020
   19  0.016  0.001  0.033  0.050
   20  0.000  0.000  0.149  0.149
   21  0.011  0.000  0.051  0.061
   22  0.001  0.001  0.032  0.033
   23  0.011  0.000  0.047  0.059
   24  0.000  0.001  0.029  0.030
   25  0.000  0.001  0.035  0.036
   26  0.016  0.001  0.033  0.050
   27  0.001  0.001  0.032  0.033
   28  0.000  0.000  0.005  0.005
   29  0.000  0.000  0.006  0.006
   30  0.000  0.000  0.003  0.003
   31  0.000  0.000  0.006  0.006
   32  0.000  0.000  0.004  0.004
   33  0.000  0.000  0.003  0.003
   34  0.000  0.000  0.004  0.004
   35  0.000  0.000  0.001  0.001
   36  0.000  0.001  0.005  0.006
   37  0.000  0.000  0.000  0.000
tot    0.082  0.013  0.729  0.824
 
band     7 # energy   -5.12137180 # occ.  2.00000000
 
ion      s      p      d    tot
    1  0.000  0.000  0.006  0.006
    2  0.000  0.000  0.003  0.003
    3  0.000  0.000  0.003  0.003
    4  0.000  0.000  0.003  0.003
    5  0.000  0.000  0.004  0.004
    6  0.000  0.000  0.002  0.003
    7  0.000  0.000  0.003  0.003
    8  0.000  0.000  0.002  0.003
    9  0.000  0.000  0.003  0.003
   10  0.006  0.001  0.025  0.031
   11  0.000  0.000  0.042  0.043
   12  0.002  0.001  0.023  0.025
   13  0.000  0.000  0.041  0.042
   14  0.001  0.000  0.020  0.021
   15  0.002  0.000  0.018  0.021
   16  0.001  0.001  0.023  0.025
   17  0.003  0.000  0.018  0.021
   18  0.010  0.001  0.014  0.025
   19  0.005  0.001  0.034  0.040
   20  0.014  0.000  0.016  0.030
   21  0.004  0.000  0.114  0.118
   22  0.000  0.001  0.030  0.032
   23  0.003  0.000  0.117  0.120
   24  0.001  0.000  0.033  0.034
   25  0.022  0.001  0.032  0.055
   26  0.006  0.001  0.034  0.041
   27  0.000  0.001  0.030  0.031
   28  0.000  0.000  0.005  0.005
   29  0.000  0.000  0.002  0.003
   30  0.000  0.000  0.005  0.006
   31  0.000  0.000  0.002  0.003
   32  0.000  0.000  0.005  0.005
   33  0.000  0.000  0.005  0.006
   34  0.000  0.000  0.005  0.005
   35  0.000  0.000  0.001  0.001
   36  0.000  0.001  0.005  0.006
   37  0.000  0.000  0.000  0.000
tot    0.083  0.013  0.729  0.824
 
band     8 # energy   -5.11604441 # occ.  2.00000000
 
ion      s      p      d    tot
    1  0.000  0.000  0.008  0.008
    2  0.000  0.000  0.003  0.003
    3  0.001  0.000  0.006  0.007
    4  0.000  0.000  0.002  0.003
    5  0.000  0.000  0.009  0.009
    6  0.002  0.001  0.005  0.008
    7  0.001  0.000  0.007  0.008
    8  0.002  0.001  0.006  0.009
    9  0.000  0.000  0.000  0.000
   10  0.014  0.001  0.011  0.026
   11  0.006  0.001  0.065  0.072
   12  0.005  0.000  0.069  0.074
   13  0.011  0.001  0.056  0.068
   14  0.032  0.001  0.020  0.053
   15  0.001  0.001  0.014  0.015
   16  0.002  0.000  0.084  0.086
   17  0.001  0.001  0.018  0.020
   18  0.003  0.000  0.034  0.038
   19  0.000  0.001  0.014  0.015
   20  0.021  0.001  0.031  0.052
   21  0.007  0.001  0.031  0.039
   22  0.003  0.000  0.025  0.028
   23  0.004  0.001  0.031  0.036
   24  0.009  0.001  0.006  0.016
   25  0.001  0.000  0.018  0.019
   26  0.000  0.001  0.015  0.016
   27  0.002  0.000  0.030  0.031
   28  0.000  0.000  0.000  0.001
   29  0.002  0.000  0.005  0.007
   30  0.001  0.000  0.004  0.005
   31  0.002  0.000  0.005  0.007
   32  0.000  0.000  0.003  0.003
   33  0.001  0.000  0.003  0.004
   34  0.000  0.000  0.002  0.002
   35  0.000  0.000  0.005  0.006
   36  0.000  0.001  0.005  0.006
   37  0.000  0.000  0.000  0.000
tot    0.133  0.018  0.649  0.800
 
band     9 # energy   -5.11603663 # occ.  2.00000000
 
ion      s      p      d    tot
    1  0.000  0.000  0.008  0.008
    2  0.002  0.001  0.007  0.010
    3  0.002  0.001  0.004  0.006
    4  0.002  0.001  0.007  0.009
    5  0.000  0.000  0.009  0.009
    6  0.000  0.000  0.004  0.005
    7  0.001  0.000  0.003  0.004
    8  0.000  0.000  0.004  0.004
    9  0.000  0.000  0.000  0.000
   10  0.000  0.000  0.098  0.098
   11  0.027  0.001  0.029  0.057
   12  0.010  0.001  0.040  0.050
   13  0.022  0.001  0.038  0.061
   14  0.000  0.001  0.074  0.075
   15  0.003  0.000  0.030  0.033
   16  0.012  0.001  0.025  0.038
   17  0.002  0.001  0.026  0.029
   18  0.000  0.001  0.010  0.011
   19  0.001  0.000  0.017  0.018
   20  0.000  0.001  0.031  0.033
   21  0.014  0.001  0.031  0.046
   22  0.006  0.001  0.015  0.022
   23  0.017  0.001  0.031  0.049
   24  0.000  0.000  0.035  0.035
   25  0.000  0.001  0.013  0.014
   26  0.000  0.000  0.016  0.017
   27  0.008  0.001  0.010  0.019
   28  0.000  0.000  0.000  0.001
   29  0.000  0.000  0.002  0.002
   30  0.001  0.000  0.004  0.004
   31  0.000  0.000  0.002  0.003
   32  0.002  0.000  0.004  0.007
   33  0.001  0.000  0.004  0.005
   34  0.002  0.000  0.005  0.007
   35  0.000  0.000  0.005  0.005
   36  0.000  0.001  0.005  0.006
   37  0.000  0.000  0.000  0.000
tot    0.133  0.018  0.649  0.800
 
band    10 # energy   -5.09766018 # occ.  2.00000000
 
ion      s      p      d    tot
    1  0.000  0.000  0.001  0.002
    2  0.000  0.000  0.006  0.007
    3  0.000  0.000  0.006  0.007
    4  0.000  0.000  0.006  0.007
    5  0.006  0.001  0.002  0.009
    6  0.000  0.000  0.006  0.007
    7  0.000  0.000  0.006  0.007
    8  0.000  0.000  0.006  0.007
    9  0.000  0.000  0.007  0.007
   10  0.009  0.001  0.005  0.015
   11  0.013  0.001  0.043  0.057
   12  0.009  0.001  0.005  0.015
   13  0.013  0.001  0.043  0.057
   14  0.013  0.001  0.043  0.057
   15  0.001  0.000  0.055  0.056
   16  0.009  0.001  0.005  0.015
   17  0.001  0.000  0.055  0.056
   18  0.001  0.000  0.055  0.056
   19  0.011  0.001  0.027  0.039
   20  0.005  0.001  0.017  0.024
   21  0.005  0.001  0.017  0.024
   22  0.000  0.000  0.042  0.042
   23  0.005  0.001  0.017  0.024
   24  0.000  0.000  0.042  0.042
   25  0.011  0.001  0.027  0.039
   26  0.011  0.001  0.027  0.039
   27  0.000  0.000  0.042  0.042
   28  0.003  0.001  0.005  0.008
   29  0.000  0.000  0.004  0.004
   30  0.000  0.000  0.004  0.004
   31  0.000  0.000  0.004  0.004
   32  0.000  0.000  0.004  0.004
   33  0.000  0.000  0.004  0.004
   34  0.000  0.000  0.004  0.004
   35  0.002  0.000  0.002  0.004
   36  0.000  0.000  0.000  0.001
   37  0.000  0.000  0.000  0.000
tot    0.132  0.018  0.647  0.797
 
band    11 # energy   -5.07356828 # occ.  2.00000000
 
ion      s      p      d    tot
    1  0.001  0.000  0.025  0.026
    2  0.001  0.000  0.008  0.010
    3  0.001  0.000  0.008  0.010
    4  0.001  0.000  0.008  0.010
    5  0.000  0.000  0.000  0.000
    6  0.001  0.000  0.008  0.010
    7  0.001  0.000  0.008  0.010
    8  0.001  0.000  0.008  0.010
    9  0.006  0.001  0.001  0.008
   10  0.003  0.000  0.091  0.094
   11  0.004  0.001  0.026  0.031
   12  0.003  0.000  0.091  0.094
   13  0.004  0.001  0.026  0.031
   14  0.004  0.001  0.026  0.031
   15  0.008  0.001  0.020  0.029
   16  0.003  0.000  0.091  0.094
   17  0.008  0.001  0.020  0.029
   18  0.008  0.001  0.020  0.029
   19  0.001  0.000  0.029  0.030
   20  0.001  0.001  0.006  0.008
   21  0.001  0.001  0.006  0.008
   22  0.000  0.000  0.021  0.021
   23  0.001  0.001  0.006  0.008
   24  0.000  0.000  0.021  0.022
   25  0.001  0.000  0.029  0.030
   26  0.001  0.000  0.029  0.030
   27  0.000  0.000  0.021  0.021
   28  0.007  0.000  0.010  0.017
   29  0.002  0.000  0.010  0.012
   30  0.002  0.000  0.010  0.012
   31  0.002  0.000  0.010  0.012
   32  0.002  0.000  0.010  0.012
   33  0.002  0.000  0.010  0.012
   34  0.002  0.000  0.010  0.012
   35  0.000  0.000  0.005  0.006
   36  0.002  0.000  0.000  0.002
   37  0.000  0.000  0.000  0.000
tot    0.088  0.009  0.730  0.827
 
band    12 # energy   -5.06372521 # occ.  2.00000000
 
ion      s      p      d    tot
    1  0.000  0.000  0.012  0.013
    2  0.001  0.001  0.011  0.013
    3  0.004  0.001  0.005  0.009
    4  0.002  0.001  0.010  0.013
    5  0.000  0.000  0.009  0.009
    6  0.001  0.000  0.008  0.009
    7  0.004  0.001  0.005  0.011
    8  0.000  0.000  0.009  0.010
    9  0.000  0.001  0.009  0.009
   10  0.016  0.000  0.030  0.046
   11  0.000  0.000  0.034  0.035
   12  0.002  0.001  0.043  0.046
   13  0.000  0.000  0.033  0.034
   14  0.000  0.000  0.038  0.039
   15  0.007  0.000  0.074  0.081
   16  0.006  0.000  0.039  0.046
   17  0.003  0.000  0.099  0.102
   18  0.019  0.000  0.005  0.025
   19  0.000  0.000  0.024  0.025
   20  0.004  0.000  0.014  0.018
   21  0.001  0.000  0.025  0.026
   22  0.001  0.000  0.026  0.028
   23  0.001  0.000  0.022  0.024
   24  0.007  0.000  0.016  0.023
   25  0.000  0.000  0.020  0.021
   26  0.000  0.000  0.026  0.026
   27  0.003  0.000  0.024  0.026
   28  0.000  0.000  0.011  0.011
   29  0.002  0.000  0.005  0.007
   30  0.000  0.000  0.004  0.005
   31  0.001  0.000  0.005  0.006
   32  0.003  0.000  0.004  0.007
   33  0.000  0.000  0.005  0.005
   34  0.003  0.001  0.004  0.008
   35  0.000  0.000  0.005  0.006
   36  0.000  0.001  0.002  0.002
   37  0.000  0.000  0.000  0.000
tot    0.094  0.012  0.716  0.822
 
band    13 # energy   -5.06370745 # occ.  2.00000000
 
ion      s      p      d    tot
    1  0.000  0.000  0.012  0.013
    2  0.003  0.001  0.005  0.009
    3  0.000  0.001  0.011  0.012
    4  0.002  0.000  0.006  0.008
    5  0.000  0.000  0.009  0.009
    6  0.003  0.001  0.008  0.013
    7  0.000  0.000  0.011  0.011
    8  0.004  0.001  0.007  0.012
    9  0.000  0.001  0.009  0.009
   10  0.000  0.001  0.044  0.045
   11  0.000  0.000  0.036  0.036
   12  0.014  0.000  0.032  0.046
   13  0.000  0.000  0.037  0.038
   14  0.000  0.000  0.032  0.033
   15  0.012  0.000  0.045  0.058
   16  0.010  0.000  0.035  0.046
   17  0.017  0.000  0.020  0.037
   18  0.000  0.000  0.113  0.114
   19  0.000  0.000  0.022  0.023
   20  0.000  0.000  0.027  0.027
   21  0.003  0.000  0.016  0.019
   22  0.006  0.000  0.018  0.024
   23  0.002  0.000  0.019  0.021
   24  0.000  0.000  0.028  0.028
   25  0.000  0.000  0.027  0.027
   26  0.000  0.000  0.021  0.021
   27  0.004  0.000  0.021  0.025
   28  0.000  0.000  0.011  0.011
   29  0.001  0.000  0.004  0.005
   30  0.003  0.001  0.004  0.008
   31  0.002  0.000  0.004  0.006
   32  0.001  0.000  0.005  0.006
   33  0.003  0.001  0.004  0.008
   34  0.000  0.000  0.005  0.005
   35  0.000  0.000  0.005  0.006
   36  0.000  0.001  0.002  0.002
   37  0.000  0.000  0.000  0.000
tot    0.095  0.012  0.716  0.822
 
band    14 # energy   -5.05625900 # occ.  2.00000000
 
ion      s      p      d    tot
    1  0.000  0.000  0.003  0.004
    2  0.001  0.000  0.011  0.012
    3  0.001  0.000  0.011  0.012
    4  0.001  0.000  0.011  0.012
    5  0.001  0.000  0.000  0.001
    6  0.001  0.000  0.011  0.012
    7  0.001  0.000  0.011  0.012
    8  0.001  0.000  0.011  0.012
    9  0.007  0.000  0.014  0.021
   10  0.002  0.000  0.015  0.017
   11  0.000  0.000  0.012  0.012
   12  0.002  0.000  0.014  0.016
   13  0.000  0.000  0.012  0.012
   14  0.000  0.000  0.012  0.012
   15  0.001  0.000  0.045  0.045
   16  0.002  0.000  0.014  0.016
   17  0.001  0.000  0.045  0.045
   18  0.001  0.000  0.044  0.045
   19  0.003  0.001  0.022  0.025
   20  0.004  0.000  0.026  0.030
   21  0.004  0.000  0.025  0.029
   22  0.001  0.000  0.064  0.065
   23  0.004  0.000  0.025  0.029
   24  0.001  0.000  0.065  0.066
   25  0.003  0.001  0.022  0.025
   26  0.003  0.001  0.022  0.025
   27  0.001  0.000  0.064  0.065
   28  0.008  0.001  0.000  0.009
   29  0.004  0.000  0.013  0.017
   30  0.004  0.000  0.013  0.017
   31  0.004  0.000  0.013  0.017
   32  0.004  0.000  0.013  0.017
   33  0.004  0.000  0.013  0.017
   34  0.004  0.000  0.013  0.017
   35  0.006  0.000  0.030  0.036
   36  0.000  0.001  0.002  0.003
   37  0.000  0.000  0.000  0.000
tot    0.084  0.008  0.736  0.827
 
band    15 # energy   -5.05222310 # occ.  2.00000000
 
ion      s      p      d    tot
    1  0.000  0.000  0.006  0.006
    2  0.002  0.000  0.006  0.009
    3  0.000  0.000  0.008  0.008
    4  0.002  0.000  0.007  0.009
    5  0.000  0.000  0.006  0.006
    6  0.001  0.000  0.005  0.007
    7  0.000  0.000  0.008  0.008
    8  0.002  0.000  0.005  0.007
    9  0.000  0.000  0.019  0.019
   10  0.001  0.000  0.030  0.031
   11  0.000  0.000  0.032  0.032
   12  0.000  0.000  0.014  0.014
   13  0.000  0.000  0.033  0.033
   14  0.002  0.000  0.008  0.011
   15  0.000  0.000  0.035  0.035
   16  0.000  0.000  0.014  0.014
   17  0.000  0.000  0.035  0.036
   18  0.000  0.000  0.031  0.032
   19  0.002  0.000  0.083  0.086
   20  0.000  0.000  0.056  0.057
   21  0.000  0.000  0.021  0.021
   22  0.004  0.000  0.063  0.066
   23  0.000  0.000  0.022  0.023
   24  0.016  0.000  0.027  0.042
   25  0.009  0.000  0.006  0.016
   26  0.002  0.000  0.086  0.088
   27  0.004  0.000  0.061  0.066
   28  0.000  0.000  0.005  0.005
   29  0.000  0.000  0.008  0.008
   30  0.002  0.000  0.003  0.005
   31  0.000  0.000  0.008  0.008
   32  0.001  0.001  0.008  0.009
   33  0.002  0.000  0.003  0.005
   34  0.001  0.001  0.008  0.009
   35  0.000  0.000  0.011  0.011
   36  0.000  0.000  0.002  0.002
   37  0.000  0.000  0.000  0.000
tot    0.055  0.007  0.783  0.845
 
band    16 # energy   -5.05214220 # occ.  2.00000000
 
ion      s      p      d    tot
    1  0.000  0.000  0.006  0.006
    2  0.000  0.000  0.006  0.007
    3  0.003  0.000  0.006  0.008
    4  0.000  0.000  0.006  0.007
    5  0.000  0.000  0.006  0.006
    6  0.001  0.000  0.008  0.009
    7  0.003  0.000  0.006  0.008
    8  0.001  0.000  0.008  0.009
    9  0.000  0.000  0.019  0.019
   10  0.000  0.000  0.008  0.008
   11  0.001  0.000  0.017  0.018
   12  0.001  0.000  0.026  0.026
   13  0.001  0.000  0.016  0.018
   14  0.000  0.000  0.040  0.040
   15  0.000  0.000  0.033  0.033
   16  0.001  0.000  0.025  0.025
   17  0.000  0.000  0.032  0.033
   18  0.000  0.000  0.037  0.037
   19  0.007  0.000  0.034  0.041
   20  0.000  0.001  0.009  0.010
   21  0.000  0.000  0.046  0.046
   22  0.012  0.000  0.038  0.050
   23  0.000  0.000  0.044  0.045
   24  0.000  0.000  0.073  0.074
   25  0.000  0.000  0.111  0.111
   26  0.007  0.000  0.031  0.038
   27  0.011  0.000  0.039  0.051
   28  0.000  0.000  0.005  0.005
   29  0.002  0.001  0.004  0.006
   30  0.000  0.000  0.010  0.010
   31  0.001  0.001  0.004  0.006
   32  0.001  0.000  0.004  0.006
   33  0.000  0.000  0.010  0.010
   34  0.001  0.000  0.004  0.005
   35  0.000  0.000  0.011  0.011
   36  0.000  0.000  0.002  0.002
   37  0.000  0.000  0.000  0.000
tot    0.055  0.007  0.783  0.845
 
band    17 # energy   -4.92422091 # occ.  2.00000000
 
ion      s      p      d    tot
    1  0.000  0.000  0.000  0.000
    2  0.000  0.000  0.005  0.005
    3  0.000  0.000  0.005  0.005
    4  0.000  0.000  0.005  0.005
    5  0.001  0.001  0.018  0.019
    6  0.000  0.000  0.005  0.005
    7  0.000  0.000  0.005  0.005
    8  0.000  0.000  0.005  0.005
    9  0.001  0.000  0.006  0.007
   10  0.000  0.000  0.008  0.008
   11  0.000  0.001  0.090  0.090
   12  0.000  0.000  0.008  0.008
   13  0.000  0.001  0.089  0.090
   14  0.000  0.001  0.089  0.090
   15  0.001  0.001  0.034  0.035
   16  0.000  0.000  0.008  0.008
   17  0.001  0.001  0.034  0.035
   18  0.001  0.001  0.034  0.035
   19  0.000  0.000  0.018  0.018
   20  0.002  0.000  0.066  0.069
   21  0.002  0.000  0.066  0.069
   22  0.003  0.000  0.014  0.017
   23  0.002  0.000  0.066  0.069
   24  0.003  0.000  0.014  0.017
   25  0.000  0.000  0.017  0.018
   26  0.000  0.000  0.018  0.018
   27  0.003  0.000  0.014  0.017
   28  0.007  0.001  0.000  0.008
   29  0.000  0.000  0.012  0.013
   30  0.000  0.000  0.012  0.012
   31  0.000  0.000  0.012  0.013
   32  0.000  0.000  0.012  0.012
   33  0.000  0.000  0.012  0.012
   34  0.000  0.000  0.012  0.012
   35  0.001  0.000  0.000  0.002
   36  0.001  0.000  0.006  0.007
   37  0.001  0.000  0.000  0.001
tot    0.034  0.013  0.814  0.861
 
band    18 # energy   -4.92076746 # occ.  2.00000000
 
ion      s      p      d    tot
    1  0.000  0.000  0.002  0.002
    2  0.001  0.000  0.007  0.007
    3  0.002  0.001  0.006  0.009
    4  0.001  0.000  0.007  0.008
    5  0.000  0.001  0.018  0.019
    6  0.000  0.000  0.009  0.009
    7  0.002  0.001  0.006  0.009
    8  0.000  0.000  0.009  0.009
    9  0.000  0.000  0.010  0.011
   10  0.000  0.000  0.013  0.013
   11  0.003  0.000  0.055  0.058
   12  0.000  0.001  0.023  0.024
   13  0.003  0.000  0.056  0.059
   14  0.000  0.000  0.084  0.084
   15  0.002  0.000  0.025  0.027
   16  0.000  0.001  0.023  0.024
   17  0.002  0.000  0.024  0.027
   18  0.000  0.000  0.012  0.012
   19  0.001  0.001  0.021  0.023
   20  0.000  0.000  0.106  0.106
   21  0.002  0.000  0.078  0.080
   22  0.000  0.001  0.025  0.026
   23  0.002  0.000  0.077  0.079
   24  0.000  0.000  0.038  0.038
   25  0.000  0.000  0.001  0.001
   26  0.001  0.001  0.021  0.022
   27  0.000  0.001  0.024  0.025
   28  0.000  0.000  0.004  0.004
   29  0.001  0.001  0.007  0.009
   30  0.001  0.001  0.005  0.007
   31  0.001  0.001  0.007  0.009
   32  0.000  0.000  0.006  0.007
   33  0.001  0.000  0.005  0.007
   34  0.000  0.000  0.006  0.007
   35  0.000  0.000  0.000  0.001
   36  0.000  0.002  0.007  0.009
   37  0.000  0.000  0.000  0.000
tot    0.024  0.016  0.828  0.868
 
band    19 # energy   -4.92073992 # occ.  2.00000000
 
ion      s      p      d    tot
    1  0.000  0.000  0.002  0.002
    2  0.001  0.001  0.008  0.010
    3  0.000  0.000  0.008  0.008
    4  0.001  0.001  0.008  0.010
    5  0.000  0.001  0.018  0.019
    6  0.002  0.001  0.006  0.008
    7  0.000  0.000  0.008  0.008
    8  0.002  0.001  0.006  0.008
    9  0.000  0.000  0.010  0.011
   10  0.000  0.001  0.026  0.028
   11  0.001  0.000  0.075  0.076
   12  0.000  0.000  0.016  0.017
   13  0.001  0.000  0.074  0.075
   14  0.003  0.000  0.046  0.050
   15  0.001  0.000  0.016  0.017
   16  0.000  0.000  0.016  0.016
   17  0.001  0.000  0.017  0.017
   18  0.003  0.000  0.029  0.032
   19  0.000  0.000  0.008  0.008
   20  0.002  0.000  0.069  0.071
   21  0.001  0.000  0.096  0.097
   22  0.000  0.000  0.034  0.034
   23  0.001  0.000  0.097  0.097
   24  0.000  0.001  0.020  0.021
   25  0.001  0.001  0.028  0.029
   26  0.000  0.000  0.008  0.008
   27  0.000  0.000  0.034  0.034
   28  0.000  0.000  0.004  0.004
   29  0.000  0.000  0.005  0.006
   30  0.000  0.000  0.007  0.008
   31  0.000  0.000  0.005  0.006
   32  0.001  0.001  0.006  0.008
   33  0.000  0.000  0.007  0.008
   34  0.001  0.001  0.006  0.008
   35  0.000  0.000  0.000  0.001
   36  0.000  0.002  0.007  0.009
   37  0.000  0.000  0.000  0.000
tot    0.024  0.016  0.828  0.868
 
band    20 # energy   -4.89561428 # occ.  2.00000000
 
ion      s      p      d    tot
    1  0.000  0.000  0.005  0.005
    2  0.000  0.001  0.014  0.014
    3  0.000  0.001  0.014  0.015
    4  0.000  0.001  0.014  0.014
    5  0.005  0.001  0.000  0.006
    6  0.000  0.001  0.014  0.015
    7  0.000  0.001  0.014  0.015
    8  0.000  0.001  0.014  0.015
    9  0.003  0.000  0.002  0.005
   10  0.002  0.001  0.044  0.046
   11  0.000  0.000  0.024  0.025
   12  0.002  0.001  0.044  0.046
   13  0.000  0.000  0.024  0.025
   14  0.000  0.000  0.024  0.025
   15  0.004  0.000  0.019  0.023
   16  0.002  0.001  0.044  0.046
   17  0.004  0.000  0.019  0.023
   18  0.004  0.000  0.019  0.023
   19  0.001  0.000  0.057  0.058
   20  0.001  0.000  0.010  0.010
   21  0.001  0.000  0.010  0.010
   22  0.001  0.001  0.039  0.040
   23  0.001  0.000  0.010  0.010
   24  0.001  0.001  0.039  0.041
   25  0.001  0.000  0.057  0.058
   26  0.001  0.000  0.057  0.058
   27  0.001  0.001  0.039  0.040
   28  0.002  0.000  0.026  0.028
   29  0.001  0.000  0.013  0.015
   30  0.001  0.000  0.013  0.015
   31  0.001  0.000  0.013  0.015
   32  0.001  0.000  0.013  0.015
   33  0.001  0.000  0.013  0.015
   34  0.001  0.000  0.013  0.015
   35  0.007  0.001  0.000  0.008
   36  0.003  0.001  0.000  0.004
   37  0.000  0.000  0.000  0.000
tot    0.053  0.018  0.771  0.841
 
band    21 # energy   -4.88041576 # occ.  2.00000000
 
ion      s      p      d    tot
    1  0.000  0.001  0.018  0.019
    2  0.000  0.000  0.009  0.009
    3  0.001  0.001  0.005  0.007
    4  0.000  0.000  0.007  0.008
    5  0.000  0.000  0.003  0.003
    6  0.001  0.001  0.010  0.012
    7  0.001  0.001  0.004  0.006
    8  0.001  0.001  0.011  0.012
    9  0.000  0.000  0.003  0.004
   10  0.001  0.000  0.059  0.060
   11  0.000  0.000  0.012  0.013
   12  0.000  0.000  0.071  0.071
   13  0.000  0.000  0.006  0.007
   14  0.000  0.001  0.037  0.038
   15  0.000  0.000  0.056  0.057
   16  0.001  0.000  0.069  0.069
   17  0.000  0.000  0.066  0.066
   18  0.000  0.001  0.021  0.021
   19  0.001  0.000  0.058  0.059
   20  0.000  0.001  0.037  0.038
   21  0.000  0.000  0.011  0.011
   22  0.001  0.000  0.028  0.029
   23  0.000  0.000  0.016  0.017
   24  0.003  0.001  0.037  0.041
   25  0.002  0.000  0.028  0.030
   26  0.000  0.000  0.066  0.066
   27  0.001  0.000  0.030  0.031
   28  0.000  0.001  0.011  0.011
   29  0.001  0.001  0.007  0.009
   30  0.001  0.000  0.003  0.004
   31  0.001  0.001  0.007  0.008
   32  0.000  0.000  0.005  0.006
   33  0.001  0.000  0.003  0.005
   34  0.000  0.000  0.006  0.006
   35  0.000  0.001  0.013  0.013
   36  0.000  0.000  0.001  0.001