PROCAR new format
# of k-points:   10         # of bands:  252         # of ions:   37

 k-point     1 :    0.00000000 0.00000000 0.00000000     weight = 0.01562500

band     1 # energy  -13.00710317 # occ.  2.00000000
 
ion      s      p      d    tot
    1  0.000  0.000  0.000  0.000
    2  0.000  0.000  0.000  0.000
    3  0.000  0.000  0.000  0.000
    4  0.000  0.000  0.000  0.000
    5  0.000  0.000  0.000  0.000
    6  0.000  0.000  0.000  0.000
    7  0.000  0.000  0.000  0.000
    8  0.000  0.000  0.000  0.000
    9  0.000  0.000  0.000  0.000
   10  0.000  0.000  0.000  0.000
   11  0.000  0.000  0.000  0.000
   12  0.000  0.000  0.000  0.000
   13  0.000  0.000  0.000  0.000
   14  0.000  0.000  0.000  0.000
   15  0.000  0.000  0.000  0.000
   16  0.000  0.000  0.000  0.000
   17  0.000  0.000  0.000  0.000
   18  0.000  0.000  0.000  0.000
   19  0.000  0.000  0.000  0.000
   20  0.001  0.000  0.000  0.001
   21  0.001  0.000  0.000  0.001
   22  0.000  0.000  0.000  0.000
   23  0.001  0.000  0.000  0.001
   24  0.000  0.000  0.000  0.000
   25  0.000  0.000  0.000  0.000
   26  0.000  0.000  0.000  0.000
   27  0.000  0.000  0.000  0.000
   28  0.000  0.000  0.000  0.000
   29  0.000  0.000  0.000  0.000
   30  0.000  0.000  0.000  0.000
   31  0.000  0.000  0.000  0.000
   32  0.000  0.000  0.000  0.000
   33  0.000  0.000  0.000  0.000
   34  0.000  0.000  0.000  0.000
   35  0.000  0.000  0.000  0.000
   36  0.088  0.060  0.161  0.309
   37  0.614  0.018  0.000  0.633
tot    0.706  0.080  0.162  0.949
 
band     2 # energy   -8.82469051 # occ.  2.00000000
 
ion      s      p      d    tot
    1  0.006  0.001  0.000  0.007
    2  0.006  0.001  0.000  0.007
    3  0.006  0.001  0.000  0.007
    4  0.006  0.001  0.000  0.007
    5  0.006  0.001  0.000  0.007
    6  0.006  0.001  0.000  0.007
    7  0.006  0.001  0.000  0.007
    8  0.006  0.001  0.000  0.007
    9  0.006  0.001  0.000  0.007
   10  0.024  0.000  0.000  0.024
   11  0.024  0.000  0.000  0.024
   12  0.024  0.000  0.000  0.024
   13  0.024  0.000  0.000  0.024
   14  0.024  0.000  0.000  0.024
   15  0.023  0.000  0.000  0.023
   16  0.024  0.000  0.000  0.024
   17  0.023  0.000  0.000  0.023
   18  0.023  0.000  0.000  0.023
   19  0.025  0.000  0.000  0.025
   20  0.027  0.000  0.000  0.027
   21  0.027  0.000  0.000  0.027
   22  0.024  0.000  0.000  0.024
   23  0.027  0.000  0.000  0.027
   24  0.024  0.000  0.000  0.024
   25  0.024  0.000  0.000  0.025
   26  0.025  0.000  0.000  0.025
   27  0.024  0.000  0.000  0.024
   28  0.007  0.001  0.000  0.008
   29  0.007  0.001  0.000  0.008
   30  0.007  0.001  0.000  0.008
   31  0.007  0.001  0.000  0.008
   32  0.007  0.001  0.000  0.008
   33  0.007  0.001  0.000  0.008
   34  0.007  0.001  0.000  0.008
   35  0.007  0.001  0.000  0.007
   36  0.011  0.004  0.001  0.016
   37  0.003  0.000  0.000  0.003
tot    0.565  0.019  0.002  0.587
 
band     3 # energy   -7.56235674 # occ.  2.00000000
 
ion      s      p      d    tot
    1  0.018  0.001  0.000  0.019
    2  0.017  0.001  0.000  0.019
    3  0.017  0.001  0.000  0.019
    4  0.017  0.001  0.000  0.019
    5  0.017  0.001  0.000  0.019
    6  0.017  0.001  0.000  0.019
    7  0.017  0.001  0.000  0.019
    8  0.017  0.001  0.000  0.019
    9  0.017  0.001  0.000  0.019
   10  0.011  0.002  0.001  0.014
   11  0.011  0.002  0.001  0.013
   12  0.011  0.002  0.001  0.014
   13  0.011  0.002  0.001  0.013
   14  0.011  0.002  0.001  0.013
   15  0.011  0.002  0.001  0.014
   16  0.011  0.002  0.001  0.014
   17  0.011  0.002  0.001  0.014
   18  0.011  0.002  0.001  0.014
   19  0.008  0.002  0.000  0.011
   20  0.009  0.003  0.000  0.012
   21  0.009  0.003  0.000  0.012
   22  0.009  0.002  0.000  0.011
   23  0.009  0.003  0.000  0.012
   24  0.009  0.002  0.000  0.011
   25  0.008  0.002  0.000  0.011
   26  0.008  0.002  0.000  0.011
   27  0.009  0.002  0.000  0.011
   28  0.018  0.001  0.001  0.019
   29  0.019  0.001  0.001  0.021
   30  0.019  0.001  0.001  0.021
   31  0.019  0.001  0.001  0.021
   32  0.019  0.001  0.001  0.021
   33  0.019  0.001  0.001  0.021
   34  0.019  0.001  0.001  0.021
   35  0.017  0.001  0.001  0.019
   36  0.028  0.003  0.008  0.039
   37  0.004  0.000  0.000  0.004
tot    0.513  0.056  0.027  0.596
 
band     4 # energy   -6.01078572 # occ.  2.00000000
 
ion      s      p      d    tot
    1  0.014  0.000  0.005  0.019
    2  0.014  0.000  0.004  0.019
    3  0.014  0.000  0.004  0.019
    4  0.014  0.000  0.004  0.019
    5  0.008  0.000  0.005  0.013
    6  0.014  0.000  0.004  0.019
    7  0.014  0.000  0.004  0.019
    8  0.014  0.000  0.004  0.019
    9  0.022  0.000  0.003  0.025
   10  0.002  0.004  0.001  0.007
   11  0.007  0.005  0.001  0.012
   12  0.002  0.004  0.001  0.007
   13  0.007  0.005  0.001  0.012
   14  0.007  0.005  0.001  0.012
   15  0.000  0.003  0.002  0.005
   16  0.002  0.004  0.001  0.007
   17  0.000  0.003  0.002  0.005
   18  0.000  0.003  0.002  0.005
   19  0.003  0.003  0.005  0.010
   20  0.019  0.004  0.007  0.030
   21  0.019  0.004  0.007  0.030
   22  0.001  0.003  0.004  0.008
   23  0.019  0.004  0.007  0.030
   24  0.001  0.003  0.004  0.008
   25  0.003  0.003  0.005  0.010
   26  0.003  0.003  0.005  0.010
   27  0.001  0.003  0.004  0.008
   28  0.017  0.000  0.006  0.023
   29  0.018  0.000  0.008  0.026
   30  0.018  0.000  0.008  0.026
   31  0.018  0.000  0.008  0.026
   32  0.018  0.000  0.008  0.026
   33  0.018  0.000  0.008  0.026
   34  0.018  0.000  0.008  0.026
   35  0.022  0.000  0.006  0.028
   36  0.008  0.002  0.040  0.050
   37  0.000  0.002  0.000  0.002
tot    0.379  0.066  0.202  0.648
 
band     5 # energy   -5.89076035 # occ.  2.00000000
 
ion      s      p      d    tot
    1  0.000  0.002  0.004  0.006
    2  0.007  0.002  0.002  0.011
    3  0.001  0.001  0.002  0.003
    4  0.008  0.002  0.002  0.011
    5  0.000  0.002  0.003  0.005
    6  0.004  0.001  0.002  0.007
    7  0.001  0.001  0.002  0.003
    8  0.003  0.001  0.002  0.006
    9  0.000  0.000  0.002  0.002
   10  0.050  0.005  0.003  0.058
   11  0.006  0.009  0.005  0.020
   12  0.015  0.002  0.010  0.027
   13  0.009  0.008  0.005  0.022
   14  0.030  0.001  0.006  0.036
   15  0.000  0.005  0.006  0.011
   16  0.010  0.002  0.011  0.023
   17  0.001  0.005  0.005  0.011
   18  0.002  0.002  0.003  0.007
   19  0.004  0.011  0.002  0.018
   20  0.074  0.003  0.008  0.085
   21  0.022  0.003  0.016  0.041
   22  0.003  0.004  0.009  0.016
   23  0.015  0.003  0.017  0.035
   24  0.011  0.003  0.003  0.017
   25  0.021  0.000  0.007  0.028
   26  0.006  0.010  0.003  0.019
   27  0.002  0.004  0.009  0.016
   28  0.000  0.002  0.003  0.006
   29  0.011  0.003  0.004  0.019
   30  0.004  0.001  0.003  0.008
   31  0.011  0.003  0.004  0.019
   32  0.003  0.002  0.004  0.009
   33  0.003  0.001  0.003  0.006
   34  0.002  0.001  0.004  0.007
   35  0.000  0.000  0.003  0.003
   36  0.000  0.007  0.024  0.031
   37  0.000  0.001  0.000  0.001
tot    0.339  0.113  0.201  0.653
 
band     6 # energy   -5.89055630 # occ.  2.00000000
 
ion      s      p      d    tot
    1  0.000  0.002  0.004  0.006
    2  0.000  0.001  0.002  0.003
    3  0.007  0.002  0.002  0.010
    4  0.000  0.001  0.002  0.002
    5  0.000  0.002  0.003  0.005
    6  0.004  0.001  0.002  0.007
    7  0.007  0.002  0.002  0.011
    8  0.005  0.001  0.002  0.008
    9  0.000  0.000  0.002  0.002
   10  0.000  0.001  0.013  0.014
   11  0.024  0.003  0.006  0.032
   12  0.035  0.004  0.006  0.045
   13  0.021  0.004  0.006  0.030
   14  0.000  0.011  0.004  0.016
   15  0.002  0.003  0.004  0.008
   16  0.040  0.004  0.005  0.049
   17  0.002  0.003  0.004  0.009
   18  0.000  0.006  0.006  0.012
   19  0.017  0.003  0.006  0.025
   20  0.000  0.003  0.019  0.023
   21  0.052  0.003  0.011  0.067
   22  0.008  0.004  0.005  0.017
   23  0.059  0.003  0.010  0.073
   24  0.000  0.004  0.011  0.015
   25  0.000  0.014  0.001  0.015
   26  0.015  0.004  0.005  0.024
   27  0.009  0.004  0.004  0.017
   28  0.000  0.002  0.003  0.006
   29  0.000  0.001  0.003  0.004
   30  0.007  0.003  0.005  0.015
   31  0.000  0.001  0.003  0.004
   32  0.008  0.002  0.003  0.014
   33  0.008  0.003  0.005  0.016
   34  0.009  0.003  0.004  0.015
   35  0.000  0.000  0.003  0.003
   36  0.000  0.007  0.024  0.031
   37  0.000  0.001  0.000  0.001
tot    0.339  0.113  0.201  0.653
 
band     7 # energy   -5.83927495 # occ.  2.00000000
 
ion      s      p      d    tot
    1  0.000  0.001  0.001  0.002
    2  0.001  0.001  0.004  0.007
    3  0.001  0.001  0.004  0.007
    4  0.001  0.001  0.004  0.007
    5  0.028  0.003  0.000  0.030
    6  0.001  0.001  0.004  0.007
    7  0.001  0.001  0.004  0.007
    8  0.001  0.001  0.004  0.007
    9  0.001  0.001  0.002  0.004
   10  0.006  0.006  0.005  0.017
   11  0.021  0.007  0.004  0.032
   12  0.006  0.006  0.005  0.017
   13  0.021  0.007  0.004  0.032
   14  0.021  0.007  0.004  0.032
   15  0.015  0.001  0.009  0.025
   16  0.006  0.006  0.005  0.017
   17  0.015  0.001  0.009  0.025
   18  0.015  0.001  0.009  0.025
   19  0.020  0.001  0.010  0.031
   20  0.022  0.009  0.004  0.035
   21  0.022  0.009  0.004  0.035
   22  0.005  0.005  0.006  0.016
   23  0.022  0.009  0.004  0.035
   24  0.005  0.005  0.006  0.016
   25  0.020  0.001  0.010  0.031
   26  0.020  0.001  0.010  0.031
   27  0.005  0.005  0.006  0.016
   28  0.003  0.001  0.002  0.007
   29  0.001  0.002  0.006  0.009
   30  0.001  0.002  0.006  0.009
   31  0.001  0.002  0.006  0.009
   32  0.001  0.002  0.006  0.009
   33  0.001  0.002  0.006  0.009
   34  0.001  0.002  0.006  0.009
   35  0.001  0.001  0.001  0.002
   36  0.046  0.009  0.000  0.055
   37  0.005  0.002  0.000  0.007
tot    0.365  0.120  0.181  0.666
 
band     8 # energy   -5.80946468 # occ.  2.00000000
 
ion      s      p      d    tot
    1  0.000  0.001  0.002  0.003
    2  0.008  0.002  0.002  0.012
    3  0.002  0.001  0.002  0.004
    4  0.009  0.002  0.002  0.013
    5  0.000  0.001  0.004  0.004
    6  0.005  0.002  0.002  0.008
    7  0.001  0.001  0.002  0.003
    8  0.003  0.001  0.002  0.006
    9  0.000  0.003  0.005  0.008
   10  0.000  0.012  0.002  0.014
   11  0.022  0.004  0.004  0.029
   12  0.003  0.004  0.004  0.012
   13  0.017  0.003  0.006  0.026
   14  0.000  0.001  0.013  0.014
   15  0.044  0.003  0.006  0.053
   16  0.004  0.002  0.005  0.011
   17  0.036  0.004  0.006  0.046
   18  0.000  0.006  0.010  0.016
   19  0.035  0.004  0.005  0.044
   20  0.000  0.013  0.002  0.015
   21  0.000  0.005  0.005  0.010
   22  0.035  0.004  0.006  0.046
   23  0.000  0.003  0.005  0.009
   24  0.000  0.009  0.007  0.017
   25  0.000  0.000  0.017  0.018
   26  0.028  0.003  0.007  0.039
   27  0.044  0.003  0.006  0.053
   28  0.000  0.002  0.006  0.007
   29  0.014  0.003  0.003  0.020
   30  0.004  0.002  0.004  0.009
   31  0.014  0.003  0.003  0.020
   32  0.006  0.001  0.003  0.010
   33  0.002  0.002  0.004  0.007
   34  0.003  0.001  0.003  0.008
   35  0.000  0.004  0.005  0.009
   36  0.000  0.001  0.011  0.012
   37  0.000  0.000  0.000  0.000
tot    0.341  0.115  0.181  0.637
 
band     9 # energy   -5.80924072 # occ.  2.00000000
 
ion      s      p      d    tot
    1  0.000  0.001  0.002  0.003
    2  0.001  0.001  0.002  0.003
    3  0.007  0.002  0.002  0.012
    4  0.000  0.001  0.002  0.003
    5  0.000  0.001  0.004  0.004
    6  0.004  0.001  0.002  0.008
    7  0.008  0.002  0.002  0.013
    8  0.006  0.002  0.002  0.010
    9  0.000  0.003  0.005  0.008
   10  0.005  0.000  0.005  0.011
   11  0.005  0.001  0.011  0.017
   12  0.002  0.008  0.003  0.013
   13  0.009  0.002  0.010  0.020
   14  0.026  0.004  0.002  0.032
   15  0.009  0.006  0.009  0.024
   16  0.001  0.010  0.003  0.013
   17  0.018  0.005  0.008  0.031
   18  0.053  0.003  0.005  0.061
   19  0.007  0.001  0.015  0.023
   20  0.001  0.001  0.006  0.008
   21  0.000  0.009  0.004  0.013
   22  0.018  0.007  0.006  0.031
   23  0.000  0.011  0.003  0.014
   24  0.053  0.002  0.005  0.060
   25  0.042  0.005  0.002  0.049
   26  0.014  0.002  0.012  0.028
   27  0.009  0.008  0.007  0.024
   28  0.000  0.002  0.006  0.007
   29  0.000  0.001  0.004  0.005
   30  0.010  0.002  0.003  0.015
   31  0.000  0.001  0.004  0.005
   32  0.008  0.003  0.004  0.014
   33  0.012  0.002  0.003  0.018
   34  0.011  0.003  0.004  0.017
   35  0.000  0.004  0.005  0.009
   36  0.000  0.001  0.011  0.012
   37  0.000  0.000  0.000  0.000
tot    0.341  0.115  0.181  0.637
 
band    10 # energy   -5.79146848 # occ.  2.00000000
 
ion      s      p      d    tot
    1  0.021  0.003  0.000  0.024
    2  0.000  0.002  0.004  0.006
    3  0.000  0.002  0.004  0.006
    4  0.000  0.002  0.004  0.006
    5  0.000  0.000  0.001  0.001
    6  0.000  0.002  0.004  0.006
    7  0.000  0.002  0.004  0.006
    8  0.000  0.002  0.004  0.006
    9  0.010  0.002  0.001  0.013
   10  0.024  0.004  0.008  0.036
   11  0.002  0.001  0.010  0.013
   12  0.024  0.004  0.008  0.036
   13  0.002  0.001  0.010  0.013
   14  0.002  0.001  0.010  0.013
   15  0.019  0.009  0.002  0.030
   16  0.024  0.004  0.008  0.036
   17  0.019  0.009  0.002  0.030
   18  0.019  0.009  0.002  0.030
   19  0.014  0.009  0.003  0.026
   20  0.001  0.001  0.014  0.016
   21  0.001  0.001  0.014  0.016
   22  0.031  0.004  0.007  0.042
   23  0.001  0.001  0.014  0.016
   24  0.031  0.004  0.007  0.042
   25  0.015  0.009  0.003  0.026
   26  0.014  0.009  0.003  0.026
   27  0.031  0.004  0.007  0.042
   28  0.018  0.002  0.000  0.020
   29  0.000  0.002  0.004  0.006
   30  0.000  0.002  0.004  0.006
   31  0.000  0.002  0.004  0.006
   32  0.000  0.002  0.004  0.006
   33  0.000  0.002  0.004  0.006
   34  0.000  0.002  0.004  0.006
   35  0.013  0.003  0.002  0.018
   36  0.001  0.000  0.000  0.001
   37  0.000  0.000  0.000  0.000
tot    0.343  0.112  0.185  0.640
 
band    11 # energy   -5.14872706 # occ.  2.00000000
 
ion      s      p      d    tot
    1  0.009  0.000  0.010  0.019
    2  0.006  0.001  0.011  0.018
    3  0.006  0.001  0.011  0.018
    4  0.006  0.001  0.011  0.018
    5  0.000  0.002  0.011  0.013
    6  0.006  0.001  0.011  0.018
    7  0.006  0.001  0.011  0.018
    8  0.006  0.001  0.011  0.018
    9  0.020  0.000  0.007  0.027
   10  0.007  0.000  0.025  0.033
   11  0.016  0.001  0.020  0.037
   12  0.007  0.000  0.025  0.032
   13  0.016  0.001  0.020  0.037
   14  0.016  0.001  0.020  0.037
   15  0.001  0.001  0.020  0.022
   16  0.007  0.000  0.025  0.032
   17  0.001  0.001  0.020  0.022
   18  0.001  0.001  0.020  0.022
   19  0.002  0.000  0.014  0.017
   20  0.009  0.002  0.033  0.044
   21  0.009  0.002  0.033  0.044
   22  0.002  0.000  0.015  0.017
   23  0.009  0.002  0.033  0.044
   24  0.002  0.000  0.015  0.017
   25  0.002  0.000  0.014  0.017
   26  0.002  0.000  0.014  0.017
   27  0.002  0.000  0.015  0.017
   28  0.002  0.000  0.004  0.006
   29  0.002  0.000  0.005  0.008
   30  0.002  0.000  0.005  0.008
   31  0.002  0.000  0.005  0.008
   32  0.002  0.000  0.005  0.008
   33  0.002  0.000  0.005  0.008
   34  0.002  0.000  0.005  0.008
   35  0.005  0.000  0.004  0.009
   36  0.001  0.004  0.025  0.030
   37  0.001  0.005  0.000  0.007
tot    0.207  0.030  0.537  0.773
 
band    12 # energy   -5.13901413 # occ.  2.00000000
 
ion      s      p      d    tot
    1  0.000  0.001  0.009  0.010
    2  0.018  0.003  0.004  0.025
    3  0.005  0.002  0.004  0.011
    4  0.018  0.003  0.004  0.025
    5  0.000  0.001  0.008  0.009
    6  0.006  0.002  0.004  0.012
    7  0.003  0.002  0.004  0.009
    8  0.003  0.002  0.004  0.010
    9  0.000  0.005  0.008  0.013
   10  0.000  0.005  0.011  0.016
   11  0.012  0.002  0.007  0.021
   12  0.001  0.002  0.008  0.011
   13  0.010  0.002  0.009  0.021
   14  0.000  0.001  0.017  0.018
   15  0.021  0.003  0.007  0.030
   16  0.001  0.001  0.007  0.010
   17  0.017  0.003  0.008  0.028
   18  0.000  0.002  0.018  0.020
   19  0.004  0.004  0.009  0.017
   20  0.000  0.003  0.038  0.041
   21  0.000  0.001  0.019  0.021
   22  0.008  0.004  0.011  0.023
   23  0.001  0.001  0.016  0.017
   24  0.000  0.001  0.025  0.025
   25  0.000  0.000  0.007  0.007
   26  0.004  0.003  0.009  0.015
   27  0.009  0.005  0.008  0.022
   28  0.000  0.002  0.009  0.011
   29  0.024  0.004  0.010  0.038
   30  0.004  0.003  0.012  0.019
   31  0.026  0.003  0.010  0.039
   32  0.013  0.001  0.010  0.024
   33  0.002  0.003  0.012  0.016
   34  0.009  0.001  0.010  0.020
   35  0.000  0.006  0.006  0.012
   36  0.000  0.002  0.045  0.047
   37  0.000  0.000  0.000  0.000
tot    0.219  0.089  0.406  0.714
 
band    13 # energy   -5.13888974 # occ.  2.00000000
 
ion      s      p      d    tot
    1  0.000  0.001  0.009  0.010
    2  0.000  0.001  0.004  0.006
    3  0.012  0.003  0.004  0.019
    4  0.000  0.001  0.004  0.005
    5  0.000  0.001  0.008  0.009
    6  0.012  0.003  0.004  0.018
    7  0.015  0.003  0.004  0.022
    8  0.014  0.003  0.004  0.021
    9  0.000  0.005  0.008  0.013
   10  0.002  0.000  0.007  0.009
   11  0.003  0.001  0.015  0.019
   12  0.001  0.003  0.009  0.013
   13  0.005  0.001  0.013  0.019
   14  0.014  0.003  0.005  0.022
   15  0.005  0.002  0.015  0.022
   16  0.000  0.004  0.010  0.014
   17  0.008  0.002  0.013  0.024
   18  0.025  0.003  0.004  0.032
   19  0.001  0.001  0.007  0.010
   20  0.001  0.000  0.011  0.012
   21  0.000  0.002  0.029  0.032
   22  0.004  0.002  0.018  0.024
   23  0.000  0.003  0.033  0.036
   24  0.011  0.006  0.004  0.021
   25  0.005  0.004  0.009  0.019
   26  0.002  0.002  0.008  0.011
   27  0.002  0.002  0.021  0.025
   28  0.000  0.002  0.009  0.011
   29  0.002  0.001  0.011  0.014
   30  0.022  0.002  0.009  0.033
   31  0.000  0.002  0.011  0.013
   32  0.013  0.004  0.011  0.028
   33  0.024  0.002  0.009  0.036
   34  0.017  0.004  0.011  0.032
   35  0.000  0.006  0.006  0.012
   36  0.000  0.002  0.045  0.047
   37  0.000  0.000  0.000  0.000
tot    0.219  0.089  0.406  0.714
 
band    14 # energy   -5.08712507 # occ.  2.00000000
 
ion      s      p      d    tot
    1  0.000  0.005  0.009  0.014
    2  0.023  0.004  0.006  0.033
    3  0.006  0.002  0.005  0.014
    4  0.023  0.004  0.006  0.033
    5  0.000  0.005  0.011  0.016
    6  0.007  0.003  0.006  0.015
    7  0.005  0.002  0.005  0.012
    8  0.005  0.002  0.006  0.013
    9  0.000  0.000  0.012  0.012
   10  0.028  0.005  0.007  0.040
   11  0.003  0.004  0.019  0.026
   12  0.008  0.002  0.019  0.029
   13  0.004  0.004  0.018  0.026
   14  0.014  0.002  0.006  0.022
   15  0.000  0.003  0.014  0.017
   16  0.006  0.001  0.020  0.028
   17  0.001  0.003  0.013  0.017
   18  0.002  0.001  0.009  0.012
   19  0.001  0.002  0.021  0.024
   20  0.016  0.007  0.006  0.029
   21  0.005  0.002  0.020  0.027
   22  0.000  0.001  0.011  0.013
   23  0.003  0.002  0.022  0.027
   24  0.001  0.001  0.009  0.012
   25  0.006  0.002  0.004  0.011
   26  0.002  0.002  0.020  0.023
   27  0.000  0.001  0.011  0.013
   28  0.000  0.004  0.008  0.012
   29  0.018  0.004  0.007  0.028
   30  0.005  0.002  0.005  0.012
   31  0.018  0.004  0.007  0.028
   32  0.005  0.002  0.007  0.014
   33  0.004  0.001  0.005  0.011
   34  0.004  0.002  0.007  0.012
   35  0.000  0.000  0.010  0.010
   36  0.000  0.007  0.020  0.027
   37  0.000  0.001  0.000  0.001
tot    0.223  0.097  0.392  0.711
 
band    15 # energy   -5.08700247 # occ.  2.00000000
 
ion      s      p      d    tot
    1  0.000  0.005  0.009  0.014
    2  0.000  0.002  0.005  0.007
    3  0.016  0.004  0.006  0.026
    4  0.000  0.002  0.005  0.007
    5  0.000  0.005  0.011  0.016
    6  0.016  0.003  0.005  0.025
    7  0.018  0.004  0.006  0.028
    8  0.018  0.004  0.006  0.027
    9  0.000  0.000  0.012  0.012
   10  0.000  0.000  0.024  0.024
   11  0.011  0.002  0.010  0.023
   12  0.020  0.004  0.012  0.035
   13  0.010  0.002  0.011  0.024
   14  0.000  0.004  0.023  0.027
   15  0.002  0.002  0.010  0.013
   16  0.022  0.004  0.010  0.037
   17  0.002  0.002  0.010  0.014
   18  0.000  0.003  0.015  0.018
   19  0.004  0.002  0.009  0.015
   20  0.000  0.000  0.026  0.026
   21  0.011  0.005  0.012  0.028
   22  0.001  0.001  0.010  0.012
   23  0.013  0.005  0.010  0.028
   24  0.000  0.001  0.011  0.013
   25  0.000  0.002  0.026  0.028
   26  0.004  0.002  0.010  0.016
   27  0.001  0.001  0.010  0.012
   28  0.000  0.004  0.008  0.012
   29  0.000  0.001  0.006  0.007
   30  0.012  0.003  0.008  0.023
   31  0.000  0.001  0.006  0.007
   32  0.013  0.003  0.006  0.021
   33  0.014  0.003  0.008  0.025
   34  0.014  0.003  0.006  0.023
   35  0.000  0.000  0.010  0.010
   36  0.000  0.007  0.020  0.027
   37  0.000  0.001  0.000  0.001
tot    0.223  0.097  0.392  0.711
 
band    16 # energy   -5.07541107 # occ.  2.00000000
 
ion      s      p      d    tot
    1  0.018  0.003  0.002  0.023
    2  0.000  0.003  0.009  0.013
    3  0.000  0.003  0.009  0.013
    4  0.000  0.003  0.009  0.013
    5  0.039  0.003  0.000  0.042
    6  0.000  0.003  0.009  0.013
    7  0.000  0.003  0.009  0.013
    8  0.000  0.003  0.009  0.013
    9  0.000  0.000  0.002  0.002
   10  0.008  0.003  0.016  0.026
   11  0.007  0.004  0.011  0.021
   12  0.008  0.003  0.016  0.026
   13  0.007  0.004  0.011  0.021
   14  0.007  0.004  0.011  0.021
   15  0.004  0.000  0.014  0.018
   16  0.008  0.003  0.016  0.026
   17  0.004  0.000  0.014  0.018
   18  0.004  0.000  0.014  0.018
   19  0.012  0.003  0.008  0.023
   20  0.002  0.003  0.028  0.033
   21  0.002  0.003  0.028  0.033
   22  0.000  0.000  0.014  0.014
   23  0.002  0.003  0.028  0.033
   24  0.000  0.000  0.014  0.014
   25  0.012  0.003  0.008  0.023
   26  0.012  0.003  0.008  0.023
   27  0.000  0.000  0.014  0.014
   28  0.020  0.003  0.001  0.025
   29  0.000  0.003  0.014  0.017
   30  0.000  0.003  0.014  0.017
   31  0.000  0.003  0.014  0.017
   32  0.000  0.003  0.014  0.017
   33  0.000  0.003  0.014  0.017
   34  0.000  0.003  0.014  0.017
   35  0.000  0.000  0.000  0.001
   36  0.057  0.007  0.002  0.066
   37  0.004  0.003  0.000  0.006
tot    0.240  0.092  0.418  0.749
 
band    17 # energy   -5.04063187 # occ.  2.00000000
 
ion      s      p      d    tot
    1  0.020  0.001  0.000  0.022
    2  0.000  0.003  0.010  0.013
    3  0.000  0.003  0.010  0.013
    4  0.000  0.003  0.010  0.013
    5  0.008  0.000  0.001  0.009
    6  0.000  0.003  0.010  0.013
    7  0.000  0.003  0.010  0.013
    8  0.000  0.003  0.010  0.013
    9  0.033  0.005  0.002  0.040
   10  0.004  0.002  0.010  0.017
   11  0.000  0.001  0.019  0.019
   12  0.004  0.002  0.010  0.017
   13  0.000  0.001  0.019  0.019
   14  0.000  0.001  0.019  0.019
   15  0.013  0.004  0.014  0.032
   16  0.004  0.002  0.010  0.017
   17  0.013  0.004  0.014  0.032
   18  0.013  0.004  0.014  0.032
   19  0.001  0.002  0.019  0.022
   20  0.001  0.000  0.013  0.014
   21  0.001  0.000  0.013  0.014
   22  0.013  0.004  0.013  0.030
   23  0.001  0.000  0.013  0.014
   24  0.013  0.004  0.013  0.030
   25  0.001  0.002  0.019  0.022
   26  0.001  0.002  0.019  0.022
   27  0.013  0.004  0.013  0.030
   28  0.023  0.001  0.000  0.025
   29  0.000  0.003  0.012  0.015
   30  0.000  0.003  0.012  0.015
   31  0.000  0.003  0.012  0.015
   32  0.000  0.003  0.012  0.015
   33  0.000  0.003  0.012  0.015
   34  0.000  0.003  0.012  0.015
   35  0.033  0.005  0.002  0.039
   36  0.007  0.001  0.000  0.008
   37  0.000  0.000  0.000  0.001
tot    0.227  0.088  0.398  0.712
 
band    18 # energy   -4.52465216 # occ.  2.00000000
 
ion      s      p      d    tot
    1  0.000  0.001  0.024  0.025
    2  0.016  0.002  0.007  0.024
    3  0.007  0.001  0.007  0.015
    4  0.015  0.002  0.007  0.024
    5  0.000  0.001  0.012  0.013
    6  0.003  0.001  0.007  0.011
    7  0.005  0.001  0.007  0.013
    8  0.002  0.001  0.007  0.009
    9  0.000  0.003  0.004  0.008
   10  0.000  0.000  0.055  0.055
   11  0.000  0.003  0.015  0.019
   12  0.000  0.000  0.020  0.020
   13  0.000  0.003  0.014  0.017
   14  0.000  0.000  0.003  0.003
   15  0.000  0.005  0.013  0.018
   16  0.000  0.000  0.016  0.016
   17  0.000  0.005  0.015  0.019
   18  0.000  0.000  0.027  0.027
   19  0.006  0.002  0.009  0.018
   20  0.000  0.000  0.074  0.074
   21  0.000  0.000  0.035  0.036
   22  0.004  0.001  0.015  0.020
   23  0.000  0.000  0.030  0.031
   24  0.000  0.000  0.010  0.011
   25  0.000  0.000  0.020  0.021
   26  0.005  0.002  0.011  0.018
   27  0.004  0.001  0.016  0.021
   28  0.000  0.001  0.002  0.003
   29  0.004  0.000  0.021  0.026
   30  0.001  0.001  0.018  0.020
   31  0.006  0.000  0.021  0.027
   32  0.011  0.000  0.019  0.031
   33  0.001  0.001  0.018  0.020
   34  0.010  0.001  0.019  0.030
   35  0.000  0.000  0.010  0.010
   36  0.000  0.000  0.060  0.060
   37  0.000  0.002  0.000  0.002
tot    0.100  0.045  0.669  0.814
 
band    19 # energy   -4.52454441 # occ.  2.00000000
 
ion      s      p      d    tot
    1  0.000  0.001  0.024  0.025
    2  0.000  0.001  0.007  0.008
    3  0.009  0.001  0.007  0.017
    4  0.001  0.001  0.007  0.008
    5  0.000  0.001  0.012  0.013
    6  0.013  0.002  0.007  0.022
    7  0.010  0.001  0.007  0.019
    8  0.014  0.002  0.007  0.023
    9  0.000  0.003  0.004  0.008
   10  0.000  0.000  0.005  0.006
   11  0.000  0.001  0.006  0.007
   12  0.000  0.000  0.041  0.041
   13  0.000  0.001  0.007  0.009
   14  0.000  0.004  0.018  0.023
   15  0.000  0.001  0.024  0.025
   16  0.000  0.000  0.045  0.045
   17  0.000  0.002  0.022  0.024
   18  0.000  0.006  0.009  0.016
   19  0.002  0.001  0.017  0.020
   20  0.000  0.000  0.019  0.020
   21  0.000  0.000  0.058  0.058
   22  0.002  0.001  0.012  0.014
   23  0.000  0.000  0.063  0.063
   24  0.005  0.001  0.017  0.024
   25  0.007  0.003  0.007  0.017
   26  0.002  0.001  0.016  0.019
   27  0.001  0.001  0.012  0.013
   28  0.000  0.001  0.002  0.003
   29  0.007  0.001  0.018  0.025
   30  0.010  0.000  0.021  0.032
   31  0.006  0.001  0.017  0.024
   32  0.000  0.001  0.019  0.020
   33  0.010  0.000  0.021  0.031
   34  0.001  0.001  0.020  0.021
   35  0.000  0.000  0.010  0.010
   36  0.000  0.000  0.060  0.060
   37  0.000  0.002  0.000  0.002
tot    0.100  0.045  0.669  0.814
 
band    20 # energy   -4.41004136 # occ.  2.00000000
 
ion      s      p      d    tot
    1  0.012  0.001  0.000  0.013
    2  0.000  0.001  0.013  0.014
    3  0.000  0.001  0.013  0.014
    4  0.000  0.001  0.013  0.014
    5  0.023  0.001  0.002  0.026
    6  0.000  0.001  0.013  0.014
    7  0.000  0.001  0.013  0.014
    8  0.000  0.001  0.013  0.014
    9  0.002  0.000  0.000  0.002
   10  0.000  0.001  0.014  0.014
   11  0.000  0.003  0.034  0.037
   12  0.000  0.001  0.014  0.015
   13  0.000  0.003  0.034  0.037
   14  0.000  0.003  0.034  0.037
   15  0.000  0.001  0.005  0.006
   16  0.000  0.001  0.014  0.015
   17  0.000  0.001  0.005  0.006
   18  0.000  0.001  0.005  0.006
   19  0.001  0.000  0.008  0.010
   20  0.001  0.003  0.040  0.044
   21  0.001  0.003  0.040  0.044
   22  0.000  0.002  0.027  0.029
   23  0.001  0.003  0.040  0.044
   24  0.000  0.002  0.027  0.029
   25  0.001  0.000  0.008  0.010
   26  0.001  0.000  0.008  0.010
   27  0.000  0.002  0.027  0.029
   28  0.000  0.000  0.003  0.003
   29  0.000  0.002  0.031  0.033
   30  0.000  0.002  0.031  0.033
   31  0.000  0.002  0.031  0.033
   32  0.000  0.002  0.031  0.033
   33  0.000  0.002  0.031  0.033
   34  0.000  0.002  0.031  0.033
   35  0.033  0.001  0.003  0.037
   36  0.022  0.001  0.017  0.039
   37  0.000  0.000  0.000  0.000
tot    0.101  0.050  0.671  0.822
 
band    21 # energy   -4.38682589 # occ.  2.00000000
 
ion      s      p      d    tot
    1  0.000  0.002  0.002  0.004
    2  0.013  0.001  0.007  0.021
    3  0.006  0.001  0.007  0.014
    4  0.012  0.001  0.007  0.021
    5  0.000  0.002  0.013  0.015
    6  0.002  0.001  0.007  0.010
    7  0.004  0.001  0.007  0.012
    8  0.001  0.001  0.007  0.009
    9  0.000  0.000  0.025  0.025
   10  0.000  0.006  0.020  0.026
   11  0.000  0.000  0.036  0.036
   12  0.000  0.002  0.008  0.010
   13  0.000  0.001  0.030  0.031
   14  0.000  0.003  0.004  0.007
   15  0.000  0.000  0.026  0.026
   16  0.000  0.001  0.005  0.007
   17  0.000  0.000  0.023  0.023
   18  0.000  0.001  0.007  0.008
   19  0.000  0.000  0.048  0.048
   20  0.003  0.004  0.032  0.039
   21  0.001  0.001  0.018  0.021
   22  0.000  0.001  0.018  0.019
   23  0.000  0.001  0.016  0.017
   24  0.000  0.003  0.013  0.016
   25  0.000  0.001  0.002  0.003
   26  0.000  0.000  0.040  0.041
   27  0.000  0.001  0.019  0.019
   28  0.000  0.002  0.042  0.044
   29  0.013  0.001  0.017  0.031
   30  0.000  0.001  0.014  0.015
   31  0.016  0.001  0.017  0.034
   32  0.017  0.001  0.016  0.033
   33  0.000  0.001  0.014  0.015
   34  0.014  0.001  0.015  0.030
   35  0.000  0.001  0.033  0.034
   36  0.000  0.007  0.012  0.019