PROCAR new format
# of k-points:   10         # of bands:  252         # of ions:   39

 k-point     1 :    0.00000000 0.00000000 0.00000000     weight = 0.01562500

band     1 # energy  -24.00823594 # occ.  2.00000000
 
ion      s      p      d    tot
    1  0.000  0.000  0.000  0.000
    2  0.000  0.000  0.000  0.000
    3  0.000  0.000  0.000  0.000
    4  0.000  0.000  0.000  0.000
    5  0.000  0.000  0.000  0.000
    6  0.000  0.000  0.000  0.000
    7  0.000  0.000  0.000  0.000
    8  0.000  0.000  0.000  0.000
    9  0.000  0.000  0.000  0.000
   10  0.000  0.000  0.000  0.000
   11  0.000  0.000  0.000  0.000
   12  0.000  0.000  0.000  0.000
   13  0.000  0.000  0.000  0.000
   14  0.000  0.000  0.000  0.000
   15  0.000  0.000  0.000  0.000
   16  0.000  0.000  0.000  0.000
   17  0.000  0.000  0.000  0.000
   18  0.000  0.000  0.000  0.000
   19  0.000  0.000  0.000  0.000
   20  0.000  0.000  0.000  0.000
   21  0.000  0.000  0.000  0.000
   22  0.000  0.000  0.000  0.000
   23  0.000  0.000  0.000  0.000
   24  0.000  0.000  0.000  0.000
   25  0.000  0.000  0.000  0.000
   26  0.000  0.000  0.000  0.000
   27  0.000  0.000  0.000  0.000
   28  0.000  0.000  0.000  0.000
   29  0.000  0.000  0.000  0.000
   30  0.000  0.000  0.000  0.000
   31  0.000  0.000  0.000  0.000
   32  0.000  0.000  0.000  0.000
   33  0.000  0.000  0.000  0.000
   34  0.000  0.000  0.000  0.000
   35  0.000  0.000  0.000  0.000
   36  0.000  0.000  0.000  0.000
   37  0.072  0.053  0.000  0.125
   38  0.727  0.005  0.000  0.732
   39  0.066  0.014  0.000  0.080
tot    0.865  0.072  0.000  0.938
 
band     2 # energy  -14.76430173 # occ.  2.00000000
 
ion      s      p      d    tot
    1  0.000  0.000  0.000  0.000
    2  0.000  0.000  0.000  0.000
    3  0.000  0.000  0.000  0.000
    4  0.000  0.000  0.000  0.000
    5  0.000  0.000  0.000  0.000
    6  0.000  0.000  0.000  0.000
    7  0.000  0.000  0.000  0.000
    8  0.000  0.000  0.000  0.000
    9  0.000  0.000  0.000  0.000
   10  0.000  0.000  0.000  0.000
   11  0.000  0.000  0.000  0.000
   12  0.000  0.000  0.000  0.000
   13  0.000  0.000  0.000  0.000
   14  0.000  0.000  0.000  0.000
   15  0.000  0.000  0.000  0.000
   16  0.000  0.000  0.000  0.000
   17  0.000  0.000  0.000  0.000
   18  0.000  0.000  0.000  0.000
   19  0.000  0.000  0.000  0.000
   20  0.000  0.000  0.000  0.000
   21  0.000  0.000  0.000  0.000
   22  0.000  0.000  0.000  0.000
   23  0.000  0.000  0.000  0.000
   24  0.000  0.000  0.000  0.000
   25  0.000  0.000  0.000  0.000
   26  0.000  0.000  0.000  0.000
   27  0.000  0.000  0.000  0.000
   28  0.000  0.000  0.000  0.000
   29  0.000  0.000  0.000  0.000
   30  0.000  0.000  0.000  0.000
   31  0.000  0.000  0.000  0.000
   32  0.000  0.000  0.000  0.000
   33  0.000  0.000  0.000  0.000
   34  0.000  0.000  0.000  0.000
   35  0.000  0.000  0.000  0.000
   36  0.002  0.003  0.002  0.007
   37  0.156  0.053  0.000  0.209
   38  0.014  0.524  0.000  0.538
   39  0.201  0.032  0.000  0.233
tot    0.374  0.612  0.002  0.987
 
band     3 # energy   -8.99626016 # occ.  2.00000000
 
ion      s      p      d    tot
    1  0.007  0.001  0.000  0.007
    2  0.006  0.001  0.000  0.007
    3  0.006  0.001  0.000  0.007
    4  0.006  0.001  0.000  0.007
    5  0.006  0.001  0.000  0.007
    6  0.006  0.001  0.000  0.007
    7  0.006  0.001  0.000  0.007
    8  0.006  0.001  0.000  0.007
    9  0.006  0.001  0.000  0.007
   10  0.024  0.000  0.000  0.025
   11  0.024  0.000  0.000  0.024
   12  0.024  0.000  0.000  0.025
   13  0.024  0.000  0.000  0.024
   14  0.024  0.000  0.000  0.024
   15  0.024  0.000  0.000  0.024
   16  0.024  0.000  0.000  0.025
   17  0.024  0.000  0.000  0.024
   18  0.024  0.000  0.000  0.024
   19  0.025  0.000  0.000  0.025
   20  0.025  0.000  0.000  0.025
   21  0.025  0.000  0.000  0.025
   22  0.024  0.000  0.000  0.024
   23  0.025  0.000  0.000  0.025
   24  0.024  0.000  0.000  0.024
   25  0.025  0.000  0.000  0.025
   26  0.025  0.000  0.000  0.025
   27  0.024  0.000  0.000  0.024
   28  0.007  0.001  0.000  0.008
   29  0.007  0.001  0.000  0.008
   30  0.007  0.001  0.000  0.008
   31  0.007  0.001  0.000  0.008
   32  0.007  0.001  0.000  0.008
   33  0.007  0.001  0.000  0.008
   34  0.007  0.001  0.000  0.008
   35  0.007  0.001  0.000  0.007
   36  0.013  0.000  0.001  0.015
   37  0.001  0.002  0.000  0.003
   38  0.000  0.001  0.000  0.001
   39  0.000  0.000  0.000  0.000
tot    0.567  0.017  0.002  0.586
 
band     4 # energy   -7.76418891 # occ.  2.00000000
 
ion      s      p      d    tot
    1  0.016  0.001  0.000  0.017
    2  0.016  0.001  0.000  0.017
    3  0.016  0.001  0.000  0.017
    4  0.016  0.001  0.000  0.017
    5  0.016  0.001  0.000  0.017
    6  0.016  0.001  0.000  0.017
    7  0.016  0.001  0.000  0.017
    8  0.016  0.001  0.000  0.017
    9  0.016  0.001  0.000  0.017
   10  0.010  0.002  0.000  0.013
   11  0.010  0.002  0.001  0.012
   12  0.010  0.002  0.000  0.013
   13  0.010  0.002  0.001  0.012
   14  0.010  0.002  0.001  0.012
   15  0.011  0.002  0.000  0.013
   16  0.010  0.002  0.000  0.013
   17  0.011  0.002  0.000  0.013
   18  0.011  0.002  0.000  0.013
   19  0.007  0.002  0.000  0.009
   20  0.008  0.002  0.000  0.011
   21  0.008  0.002  0.000  0.011
   22  0.007  0.002  0.000  0.010
   23  0.008  0.002  0.000  0.011
   24  0.007  0.002  0.000  0.010
   25  0.007  0.002  0.000  0.009
   26  0.007  0.002  0.000  0.009
   27  0.007  0.002  0.000  0.010
   28  0.016  0.001  0.001  0.017
   29  0.017  0.000  0.001  0.018
   30  0.017  0.000  0.001  0.018
   31  0.017  0.000  0.001  0.018
   32  0.017  0.000  0.001  0.018
   33  0.017  0.000  0.001  0.018
   34  0.017  0.000  0.001  0.018
   35  0.016  0.001  0.001  0.017
   36  0.053  0.003  0.008  0.064
   37  0.019  0.018  0.000  0.037
   38  0.002  0.006  0.000  0.008
   39  0.002  0.000  0.000  0.002
tot    0.517  0.074  0.024  0.615
 
band     5 # energy   -6.84313619 # occ.  2.00000000
 
ion      s      p      d    tot
    1  0.004  0.000  0.000  0.005
    2  0.004  0.000  0.001  0.005
    3  0.004  0.000  0.001  0.005
    4  0.004  0.000  0.001  0.005
    5  0.006  0.000  0.000  0.006
    6  0.004  0.000  0.001  0.005
    7  0.004  0.000  0.001  0.005
    8  0.004  0.000  0.001  0.005
    9  0.003  0.000  0.001  0.004
   10  0.000  0.001  0.000  0.001
   11  0.001  0.001  0.000  0.002
   12  0.000  0.001  0.000  0.001
   13  0.001  0.001  0.000  0.002
   14  0.001  0.001  0.000  0.002
   15  0.000  0.001  0.000  0.002
   16  0.000  0.001  0.000  0.001
   17  0.000  0.001  0.000  0.002
   18  0.000  0.001  0.000  0.002
   19  0.010  0.000  0.001  0.011
   20  0.000  0.002  0.004  0.005
   21  0.000  0.002  0.004  0.005
   22  0.008  0.000  0.001  0.009
   23  0.000  0.002  0.004  0.005
   24  0.008  0.000  0.001  0.009
   25  0.010  0.000  0.001  0.011
   26  0.010  0.000  0.001  0.011
   27  0.008  0.000  0.001  0.009
   28  0.003  0.001  0.000  0.004
   29  0.000  0.002  0.001  0.003
   30  0.000  0.002  0.001  0.003
   31  0.000  0.002  0.001  0.003
   32  0.000  0.002  0.001  0.003
   33  0.000  0.002  0.001  0.003
   34  0.000  0.002  0.001  0.003
   35  0.003  0.001  0.000  0.004
   36  0.111  0.068  0.133  0.313
   37  0.165  0.131  0.000  0.296
   38  0.013  0.040  0.000  0.053
   39  0.012  0.001  0.000  0.013
tot    0.403  0.270  0.163  0.836
 
band     6 # energy   -6.78486842 # occ.  2.00000000
 
ion      s      p      d    tot
    1  0.000  0.000  0.000  0.000
    2  0.000  0.000  0.000  0.000
    3  0.000  0.000  0.000  0.000
    4  0.000  0.000  0.000  0.000
    5  0.000  0.000  0.000  0.000
    6  0.000  0.000  0.000  0.000
    7  0.000  0.000  0.000  0.000
    8  0.000  0.000  0.000  0.000
    9  0.000  0.000  0.000  0.000
   10  0.000  0.000  0.000  0.000
   11  0.000  0.000  0.000  0.000
   12  0.000  0.000  0.000  0.000
   13  0.000  0.000  0.000  0.000
   14  0.000  0.000  0.000  0.000
   15  0.000  0.000  0.000  0.000
   16  0.000  0.000  0.000  0.000
   17  0.000  0.000  0.000  0.000
   18  0.000  0.000  0.000  0.000
   19  0.000  0.000  0.000  0.000
   20  0.000  0.000  0.000  0.000
   21  0.000  0.000  0.000  0.000
   22  0.000  0.000  0.000  0.000
   23  0.000  0.000  0.000  0.000
   24  0.000  0.000  0.000  0.000
   25  0.000  0.000  0.000  0.000
   26  0.000  0.000  0.000  0.000
   27  0.000  0.000  0.000  0.000
   28  0.000  0.000  0.000  0.000
   29  0.001  0.000  0.000  0.001
   30  0.000  0.000  0.000  0.000
   31  0.001  0.000  0.000  0.001
   32  0.001  0.000  0.000  0.001
   33  0.000  0.000  0.000  0.000
   34  0.001  0.000  0.000  0.001
   35  0.000  0.000  0.000  0.000
   36  0.000  0.003  0.010  0.013
   37  0.000  0.105  0.000  0.105
   38  0.000  0.545  0.000  0.545
   39  0.000  0.008  0.000  0.008
tot    0.003  0.663  0.012  0.677
 
band     7 # energy   -6.78474970 # occ.  2.00000000
 
ion      s      p      d    tot
    1  0.000  0.000  0.000  0.000
    2  0.000  0.000  0.000  0.000
    3  0.000  0.000  0.000  0.000
    4  0.000  0.000  0.000  0.000
    5  0.000  0.000  0.000  0.000
    6  0.000  0.000  0.000  0.000
    7  0.000  0.000  0.000  0.000
    8  0.000  0.000  0.000  0.000
    9  0.000  0.000  0.000  0.000
   10  0.000  0.000  0.000  0.000
   11  0.000  0.000  0.000  0.000
   12  0.000  0.000  0.000  0.000
   13  0.000  0.000  0.000  0.000
   14  0.000  0.000  0.000  0.000
   15  0.000  0.000  0.000  0.000
   16  0.000  0.000  0.000  0.000
   17  0.000  0.000  0.000  0.000
   18  0.000  0.000  0.000  0.000
   19  0.000  0.000  0.000  0.000
   20  0.000  0.000  0.000  0.000
   21  0.000  0.000  0.000  0.000
   22  0.000  0.000  0.000  0.000
   23  0.000  0.000  0.000  0.000
   24  0.000  0.000  0.000  0.000
   25  0.000  0.000  0.000  0.000
   26  0.000  0.000  0.000  0.000
   27  0.000  0.000  0.000  0.000
   28  0.000  0.000  0.000  0.000
   29  0.000  0.000  0.000  0.001
   30  0.001  0.000  0.000  0.001
   31  0.000  0.000  0.000  0.001
   32  0.000  0.000  0.000  0.001
   33  0.001  0.000  0.000  0.001
   34  0.000  0.000  0.000  0.001
   35  0.000  0.000  0.000  0.000
   36  0.000  0.003  0.010  0.013
   37  0.000  0.105  0.000  0.105
   38  0.000  0.545  0.000  0.545
   39  0.000  0.008  0.000  0.008
tot    0.003  0.663  0.012  0.677
 
band     8 # energy   -6.05503042 # occ.  2.00000000
 
ion      s      p      d    tot
    1  0.014  0.000  0.004  0.018
    2  0.010  0.001  0.005  0.016
    3  0.010  0.001  0.005  0.016
    4  0.010  0.001  0.005  0.016
    5  0.001  0.001  0.006  0.008
    6  0.010  0.001  0.005  0.016
    7  0.010  0.001  0.005  0.016
    8  0.010  0.001  0.005  0.016
    9  0.025  0.000  0.002  0.028
   10  0.002  0.003  0.004  0.009
   11  0.020  0.006  0.001  0.027
   12  0.002  0.003  0.004  0.009
   13  0.020  0.006  0.001  0.027
   14  0.020  0.006  0.001  0.027
   15  0.001  0.002  0.006  0.009
   16  0.002  0.003  0.004  0.009
   17  0.001  0.002  0.006  0.009
   18  0.001  0.002  0.006  0.009
   19  0.000  0.002  0.007  0.009
   20  0.026  0.006  0.002  0.034
   21  0.026  0.006  0.002  0.034
   22  0.000  0.005  0.004  0.009
   23  0.026  0.006  0.002  0.034
   24  0.000  0.005  0.004  0.009
   25  0.000  0.002  0.007  0.009
   26  0.000  0.002  0.007  0.009
   27  0.000  0.005  0.004  0.009
   28  0.022  0.000  0.003  0.025
   29  0.012  0.001  0.006  0.019
   30  0.012  0.001  0.006  0.019
   31  0.012  0.001  0.006  0.019
   32  0.012  0.001  0.006  0.019
   33  0.012  0.001  0.006  0.019
   34  0.012  0.001  0.006  0.019
   35  0.028  0.000  0.004  0.032
   36  0.001  0.001  0.017  0.019
   37  0.002  0.001  0.000  0.003
   38  0.000  0.000  0.000  0.000
   39  0.000  0.000  0.000  0.000
tot    0.373  0.083  0.179  0.636
 
band     9 # energy   -6.00570943 # occ.  2.00000000
 
ion      s      p      d    tot
    1  0.000  0.003  0.006  0.008
    2  0.010  0.002  0.002  0.014
    3  0.002  0.001  0.002  0.005
    4  0.010  0.002  0.002  0.014
    5  0.000  0.002  0.003  0.005
    6  0.003  0.001  0.002  0.006
    7  0.002  0.001  0.002  0.005
    8  0.003  0.001  0.002  0.006
    9  0.000  0.000  0.003  0.003
   10  0.060  0.004  0.004  0.068
   11  0.006  0.010  0.004  0.019
   12  0.015  0.003  0.012  0.030
   13  0.006  0.010  0.004  0.019
   14  0.023  0.000  0.007  0.030
   15  0.002  0.004  0.008  0.014
   16  0.015  0.003  0.012  0.030
   17  0.002  0.004  0.008  0.014
   18  0.009  0.003  0.003  0.014
   19  0.008  0.010  0.004  0.022
   20  0.061  0.005  0.004  0.070
   21  0.015  0.002  0.015  0.032
   22  0.001  0.005  0.007  0.014
   23  0.015  0.002  0.015  0.032
   24  0.004  0.002  0.004  0.010
   25  0.032  0.000  0.007  0.039
   26  0.008  0.010  0.004  0.022
   27  0.001  0.005  0.007  0.014
   28  0.000  0.003  0.004  0.007
   29  0.010  0.003  0.003  0.016
   30  0.004  0.002  0.003  0.008
   31  0.010  0.003  0.003  0.016
   32  0.001  0.001  0.003  0.005
   33  0.004  0.002  0.003  0.008
   34  0.001  0.001  0.003  0.005
   35  0.000  0.000  0.003  0.003
   36  0.000  0.005  0.006  0.011
   37  0.000  0.000  0.000  0.000
   38  0.000  0.000  0.000  0.000
   39  0.000  0.000  0.000  0.000
tot    0.345  0.117  0.181  0.643
 
band    10 # energy   -6.00567019 # occ.  2.00000000
 
ion      s      p      d    tot
    1  0.000  0.003  0.006  0.008
    2  0.000  0.001  0.002  0.003
    3  0.007  0.002  0.002  0.012
    4  0.000  0.001  0.002  0.003
    5  0.000  0.002  0.003  0.005
    6  0.007  0.002  0.002  0.011
    7  0.007  0.002  0.002  0.012
    8  0.007  0.002  0.002  0.011
    9  0.000  0.000  0.003  0.003
   10  0.000  0.002  0.015  0.017
   11  0.017  0.004  0.006  0.026
   12  0.045  0.004  0.007  0.056
   13  0.017  0.004  0.006  0.026
   14  0.000  0.013  0.002  0.016
   15  0.006  0.003  0.005  0.014
   16  0.045  0.004  0.007  0.056
   17  0.006  0.003  0.005  0.014
   18  0.000  0.004  0.010  0.014
   19  0.024  0.004  0.006  0.034
   20  0.000  0.001  0.018  0.020
   21  0.046  0.004  0.008  0.057
   22  0.003  0.003  0.005  0.011
   23  0.046  0.004  0.008  0.057
   24  0.000  0.006  0.008  0.015
   25  0.000  0.013  0.003  0.016
   26  0.024  0.004  0.006  0.034
   27  0.003  0.003  0.005  0.011
   28  0.000  0.003  0.004  0.007
   29  0.000  0.001  0.002  0.004
   30  0.006  0.002  0.003  0.011
   31  0.000  0.001  0.002  0.004
   32  0.009  0.002  0.003  0.015
   33  0.006  0.002  0.003  0.011
   34  0.009  0.002  0.003  0.015
   35  0.000  0.000  0.003  0.003
   36  0.000  0.005  0.006  0.011
   37  0.000  0.000  0.000  0.000
   38  0.000  0.000  0.000  0.000
   39  0.000  0.000  0.000  0.000
tot    0.345  0.117  0.181  0.643
 
band    11 # energy   -5.98686535 # occ.  2.00000000
 
ion      s      p      d    tot
    1  0.020  0.003  0.001  0.024
    2  0.000  0.002  0.004  0.006
    3  0.000  0.002  0.004  0.006
    4  0.000  0.002  0.004  0.006
    5  0.002  0.000  0.000  0.002
    6  0.000  0.002  0.004  0.006
    7  0.000  0.002  0.004  0.006
    8  0.000  0.002  0.004  0.006
    9  0.009  0.001  0.000  0.011
   10  0.031  0.006  0.006  0.042
   11  0.005  0.000  0.011  0.017
   12  0.030  0.006  0.006  0.042
   13  0.005  0.000  0.011  0.017
   14  0.005  0.000  0.011  0.017
   15  0.011  0.008  0.003  0.022
   16  0.030  0.006  0.006  0.042
   17  0.011  0.008  0.003  0.022
   18  0.011  0.008  0.004  0.023
   19  0.023  0.009  0.002  0.034
   20  0.000  0.003  0.011  0.014
   21  0.000  0.003  0.011  0.013
   22  0.024  0.002  0.009  0.035
   23  0.000  0.003  0.011  0.013
   24  0.024  0.002  0.009  0.035
   25  0.023  0.009  0.002  0.034
   26  0.023  0.009  0.002  0.034
   27  0.024  0.002  0.009  0.035
   28  0.018  0.003  0.001  0.021
   29  0.000  0.002  0.004  0.006
   30  0.000  0.002  0.004  0.006
   31  0.000  0.002  0.004  0.006
   32  0.000  0.002  0.004  0.006
   33  0.000  0.002  0.004  0.006
   34  0.000  0.002  0.004  0.006
   35  0.014  0.002  0.001  0.017
   36  0.000  0.000  0.000  0.000
   37  0.000  0.000  0.000  0.000
   38  0.000  0.000  0.000  0.000
   39  0.000  0.000  0.000  0.000
tot    0.344  0.114  0.181  0.640
 
band    12 # energy   -5.97901639 # occ.  2.00000000
 
ion      s      p      d    tot
    1  0.000  0.001  0.002  0.003
    2  0.010  0.002  0.002  0.015
    3  0.003  0.001  0.002  0.006
    4  0.010  0.002  0.002  0.015
    5  0.000  0.001  0.005  0.006
    6  0.003  0.001  0.002  0.006
    7  0.002  0.001  0.002  0.005
    8  0.003  0.001  0.002  0.006
    9  0.000  0.003  0.005  0.008
   10  0.000  0.011  0.003  0.014
   11  0.030  0.004  0.005  0.039
   12  0.001  0.004  0.005  0.009
   13  0.028  0.003  0.006  0.038
   14  0.000  0.000  0.016  0.016
   15  0.040  0.004  0.006  0.050
   16  0.001  0.003  0.005  0.009
   17  0.038  0.004  0.006  0.049
   18  0.000  0.009  0.008  0.017
   19  0.024  0.004  0.005  0.033
   20  0.000  0.013  0.002  0.015
   21  0.003  0.004  0.005  0.012
   22  0.043  0.004  0.007  0.054
   23  0.003  0.003  0.005  0.012
   24  0.000  0.007  0.010  0.017
   25  0.000  0.001  0.016  0.017
   26  0.023  0.004  0.006  0.033
   27  0.045  0.004  0.006  0.055
   28  0.000  0.001  0.005  0.006
   29  0.011  0.003  0.003  0.016
   30  0.004  0.002  0.003  0.009
   31  0.011  0.003  0.003  0.016
   32  0.002  0.001  0.002  0.005
   33  0.004  0.002  0.003  0.008
   34  0.002  0.001  0.002  0.005
   35  0.000  0.004  0.006  0.009
   36  0.000  0.002  0.003  0.005
   37  0.000  0.000  0.000  0.000
   38  0.000  0.000  0.000  0.000
   39  0.000  0.000  0.000  0.000
tot    0.344  0.117  0.178  0.639
 
band    13 # energy   -5.97898069 # occ.  2.00000000
 
ion      s      p      d    tot
    1  0.000  0.001  0.002  0.003
    2  0.000  0.001  0.002  0.003
    3  0.008  0.002  0.002  0.012
    4  0.000  0.001  0.002  0.003
    5  0.000  0.001  0.005  0.006
    6  0.007  0.002  0.002  0.011
    7  0.008  0.002  0.002  0.012
    8  0.008  0.002  0.002  0.012
    9  0.000  0.003  0.005  0.008
   10  0.001  0.001  0.005  0.007
   11  0.009  0.001  0.013  0.023
   12  0.000  0.008  0.004  0.013
   13  0.010  0.001  0.012  0.024
   14  0.039  0.005  0.002  0.046
   15  0.012  0.007  0.008  0.027
   16  0.000  0.009  0.004  0.013
   17  0.014  0.007  0.008  0.029
   18  0.052  0.002  0.006  0.060
   19  0.007  0.002  0.013  0.022
   20  0.004  0.000  0.006  0.011
   21  0.001  0.010  0.003  0.014
   22  0.015  0.006  0.009  0.030
   23  0.001  0.010  0.003  0.014
   24  0.059  0.003  0.005  0.067
   25  0.032  0.004  0.002  0.039
   26  0.008  0.002  0.012  0.022
   27  0.014  0.006  0.009  0.029
   28  0.000  0.001  0.005  0.006
   29  0.000  0.001  0.003  0.004
   30  0.007  0.002  0.002  0.011
   31  0.000  0.001  0.003  0.004
   32  0.009  0.002  0.003  0.015
   33  0.007  0.002  0.002  0.011
   34  0.009  0.003  0.003  0.015
   35  0.000  0.004  0.006  0.009
   36  0.000  0.002  0.003  0.005
   37  0.000  0.000  0.000  0.000
   38  0.000  0.000  0.000  0.000
   39  0.000  0.000  0.000  0.000
tot    0.344  0.117  0.178  0.639
 
band    14 # energy   -5.82027166 # occ.  2.00000000
 
ion      s      p      d    tot
    1  0.001  0.000  0.002  0.003
    2  0.004  0.002  0.007  0.013
    3  0.004  0.002  0.007  0.013
    4  0.004  0.002  0.007  0.013
    5  0.045  0.002  0.000  0.048
    6  0.004  0.002  0.007  0.013
    7  0.004  0.002  0.007  0.013
    8  0.004  0.002  0.007  0.013
    9  0.001  0.002  0.006  0.010
   10  0.005  0.004  0.008  0.017
   11  0.012  0.008  0.005  0.025
   12  0.005  0.004  0.008  0.017
   13  0.012  0.008  0.005  0.025
   14  0.012  0.008  0.005  0.025
   15  0.029  0.002  0.010  0.041
   16  0.005  0.004  0.008  0.017
   17  0.029  0.002  0.010  0.041
   18  0.029  0.002  0.010  0.041
   19  0.004  0.003  0.005  0.012
   20  0.009  0.002  0.008  0.019
   21  0.009  0.002  0.008  0.019
   22  0.005  0.006  0.004  0.015
   23  0.009  0.002  0.008  0.019
   24  0.005  0.006  0.004  0.015
   25  0.004  0.003  0.005  0.012
   26  0.004  0.003  0.005  0.012
   27  0.005  0.006  0.004  0.015
   28  0.006  0.000  0.004  0.010
   29  0.005  0.000  0.004  0.009
   30  0.005  0.000  0.004  0.009
   31  0.005  0.000  0.004  0.009
   32  0.005  0.000  0.004  0.009
   33  0.005  0.000  0.004  0.009
   34  0.005  0.000  0.004  0.009
   35  0.002  0.000  0.003  0.005
   36  0.000  0.016  0.024  0.040
   37  0.018  0.012  0.000  0.030
   38  0.001  0.003  0.000  0.004
   39  0.001  0.000  0.000  0.001
tot    0.327  0.121  0.228  0.676
 
band    15 # energy   -5.24712120 # occ.  2.00000000
 
ion      s      p      d    tot
    1  0.003  0.001  0.009  0.013
    2  0.004  0.001  0.009  0.014
    3  0.004  0.001  0.009  0.014
    4  0.004  0.001  0.009  0.014
    5  0.000  0.002  0.008  0.010
    6  0.004  0.001  0.009  0.014
    7  0.005  0.001  0.009  0.014
    8  0.004  0.001  0.009  0.014
    9  0.020  0.000  0.006  0.026
   10  0.009  0.000  0.024  0.033
   11  0.010  0.000  0.020  0.031
   12  0.009  0.000  0.024  0.033
   13  0.010  0.000  0.020  0.031
   14  0.010  0.000  0.020  0.031
   15  0.001  0.001  0.021  0.023
   16  0.009  0.000  0.024  0.033
   17  0.001  0.001  0.021  0.023
   18  0.001  0.001  0.021  0.023
   19  0.005  0.000  0.020  0.025
   20  0.011  0.001  0.026  0.038
   21  0.011  0.001  0.026  0.038
   22  0.002  0.000  0.021  0.023
   23  0.011  0.001  0.026  0.038
   24  0.002  0.000  0.021  0.023
   25  0.005  0.000  0.020  0.025
   26  0.005  0.000  0.020  0.025
   27  0.002  0.000  0.021  0.023
   28  0.002  0.001  0.007  0.009
   29  0.004  0.001  0.009  0.013
   30  0.004  0.001  0.009  0.013
   31  0.004  0.001  0.009  0.013
   32  0.004  0.001  0.009  0.013
   33  0.004  0.001  0.009  0.013
   34  0.004  0.001  0.009  0.013
   35  0.017  0.000  0.006  0.023
   36  0.000  0.002  0.008  0.010
   37  0.000  0.000  0.000  0.000
   38  0.000  0.000  0.000  0.000
   39  0.000  0.000  0.000  0.000
tot    0.203  0.021  0.549  0.773
 
band    16 # energy   -5.23043935 # occ.  2.00000000
 
ion      s      p      d    tot
    1  0.000  0.003  0.011  0.014
    2  0.020  0.004  0.005  0.029
    3  0.001  0.002  0.005  0.008
    4  0.019  0.004  0.005  0.028
    5  0.000  0.000  0.011  0.011
    6  0.010  0.003  0.005  0.018
    7  0.002  0.002  0.005  0.008
    8  0.011  0.003  0.005  0.019
    9  0.000  0.006  0.008  0.014
   10  0.000  0.004  0.022  0.026
   11  0.005  0.002  0.010  0.017
   12  0.004  0.001  0.010  0.016
   13  0.005  0.002  0.010  0.017
   14  0.000  0.002  0.014  0.016
   15  0.017  0.004  0.010  0.031
   16  0.004  0.002  0.011  0.016
   17  0.018  0.004  0.010  0.032
   18  0.000  0.001  0.024  0.024
   19  0.011  0.004  0.011  0.026
   20  0.000  0.003  0.019  0.023
   21  0.000  0.001  0.012  0.013
   22  0.011  0.003  0.010  0.024
   23  0.000  0.001  0.013  0.014
   24  0.000  0.002  0.028  0.030
   25  0.000  0.000  0.017  0.017
   26  0.012  0.004  0.010  0.026
   27  0.011  0.003  0.010  0.024
   28  0.000  0.003  0.009  0.013
   29  0.021  0.004  0.006  0.031
   30  0.001  0.002  0.007  0.009
   31  0.020  0.004  0.006  0.030
   32  0.012  0.003  0.006  0.021
   33  0.001  0.002  0.007  0.010
   34  0.013  0.003  0.006  0.022
   35  0.000  0.006  0.010  0.015
   36  0.000  0.001  0.011  0.012
   37  0.000  0.000  0.000  0.000
   38  0.000  0.000  0.000  0.000
   39  0.000  0.000  0.000  0.000
tot    0.228  0.094  0.380  0.702
 
band    17 # energy   -5.23043879 # occ.  2.00000000
 
ion      s      p      d    tot
    1  0.000  0.003  0.011  0.014
    2  0.001  0.002  0.005  0.008
    3  0.020  0.004  0.005  0.029
    4  0.002  0.002  0.005  0.009
    5  0.000  0.000  0.011  0.011
    6  0.011  0.003  0.005  0.019
    7  0.019  0.004  0.005  0.028
    8  0.010  0.002  0.005  0.018
    9  0.000  0.006  0.008  0.014
   10  0.006  0.001  0.006  0.013
   11  0.002  0.002  0.013  0.016
   12  0.001  0.003  0.018  0.023
   13  0.001  0.002  0.013  0.016
   14  0.006  0.002  0.009  0.017
   15  0.006  0.002  0.019  0.027
   16  0.001  0.003  0.018  0.022
   17  0.005  0.002  0.020  0.026
   18  0.024  0.005  0.005  0.034
   19  0.004  0.002  0.014  0.020
   20  0.000  0.000  0.011  0.011
   21  0.000  0.002  0.017  0.019
   22  0.003  0.002  0.022  0.028
   23  0.000  0.002  0.017  0.019
   24  0.014  0.003  0.004  0.021
   25  0.015  0.005  0.009  0.029
   26  0.004  0.001  0.015  0.020
   27  0.004  0.002  0.021  0.028
   28  0.000  0.003  0.009  0.013
   29  0.002  0.002  0.006  0.010
   30  0.022  0.004  0.006  0.032
   31  0.003  0.002  0.006  0.011
   32  0.011  0.003  0.007  0.020
   33  0.022  0.004  0.006  0.031
   34  0.010  0.003  0.007  0.019
   35  0.000  0.006  0.010  0.015
   36  0.000  0.001  0.011  0.012
   37  0.000  0.000  0.000  0.000
   38  0.000  0.000  0.000  0.000
   39  0.000  0.000  0.000  0.000
tot    0.228  0.094  0.380  0.702
 
band    18 # energy   -5.22724691 # occ.  2.00000000
 
ion      s      p      d    tot
    1  0.038  0.003  0.000  0.040
    2  0.000  0.003  0.010  0.013
    3  0.000  0.003  0.010  0.013
    4  0.000  0.003  0.010  0.013
    5  0.000  0.000  0.001  0.001
    6  0.000  0.003  0.010  0.013
    7  0.000  0.003  0.010  0.013
    8  0.000  0.003  0.010  0.013
    9  0.023  0.004  0.001  0.028
   10  0.006  0.003  0.011  0.021
   11  0.002  0.000  0.015  0.018
   12  0.007  0.003  0.011  0.021
   13  0.002  0.000  0.015  0.018
   14  0.002  0.000  0.016  0.018
   15  0.008  0.003  0.016  0.028
   16  0.007  0.003  0.011  0.021
   17  0.008  0.003  0.016  0.028
   18  0.008  0.003  0.017  0.028
   19  0.003  0.003  0.019  0.026
   20  0.000  0.000  0.015  0.016
   21  0.000  0.000  0.016  0.016
   22  0.012  0.003  0.010  0.025
   23  0.000  0.000  0.016  0.016
   24  0.013  0.003  0.010  0.026
   25  0.004  0.003  0.019  0.026
   26  0.003  0.003  0.019  0.026
   27  0.012  0.003  0.010  0.025
   28  0.040  0.003  0.000  0.043
   29  0.000  0.003  0.011  0.014
   30  0.000  0.003  0.011  0.014
   31  0.000  0.003  0.011  0.014
   32  0.000  0.003  0.011  0.014
   33  0.000  0.003  0.011  0.014
   34  0.000  0.003  0.011  0.014
   35  0.022  0.003  0.002  0.027
   36  0.000  0.000  0.000  0.000
   37  0.000  0.000  0.000  0.000
   38  0.000  0.000  0.000  0.000
   39  0.000  0.000  0.000  0.000
tot    0.225  0.088  0.395  0.708
 
band    19 # energy   -5.22483536 # occ.  2.00000000
 
ion      s      p      d    tot
    1  0.000  0.003  0.009  0.012
    2  0.020  0.004  0.005  0.029
    3  0.001  0.002  0.005  0.008
    4  0.020  0.004  0.005  0.029
    5  0.000  0.006  0.010  0.015
    6  0.010  0.003  0.005  0.018
    7  0.002  0.002  0.005  0.009
    8  0.011  0.003  0.005  0.019
    9  0.000  0.000  0.012  0.013
   10  0.018  0.005  0.008  0.031
   11  0.005  0.003  0.021  0.028
   12  0.004  0.001  0.017  0.022
   13  0.004  0.003  0.022  0.028
   14  0.017  0.003  0.005  0.025
   15  0.000  0.003  0.014  0.017
   16  0.005  0.001  0.016  0.022
   17  0.000  0.003  0.015  0.017
   18  0.000  0.000  0.009  0.009
   19  0.001  0.003  0.020  0.023
   20  0.021  0.006  0.006  0.032
   21  0.005  0.002  0.025  0.031
   22  0.001  0.002  0.012  0.015
   23  0.006  0.002  0.024  0.031
   24  0.006  0.003  0.010  0.019
   25  0.004  0.001  0.006  0.011
   26  0.001  0.003  0.021  0.024
   27  0.002  0.002  0.012  0.016
   28  0.000  0.003  0.012  0.015
   29  0.019  0.004  0.006  0.029
   30  0.001  0.002  0.006  0.008
   31  0.018  0.004  0.006  0.028
   32  0.011  0.003  0.006  0.020
   33  0.001  0.002  0.006  0.008
   34  0.012  0.003  0.006  0.021
   35  0.000  0.001  0.011  0.012
   36  0.000  0.010  0.006  0.016
   37  0.000  0.000  0.000  0.000
   38  0.000  0.001  0.000  0.001
   39  0.000  0.000  0.000  0.000
tot    0.224  0.098  0.390  0.712
 
band    20 # energy   -5.22481224 # occ.  2.00000000
 
ion      s      p      d    tot
    1  0.000  0.003  0.009  0.012
    2  0.001  0.002  0.005  0.008
    3  0.020  0.004  0.005  0.029
    4  0.001  0.002  0.005  0.008
    5  0.000  0.006  0.010  0.015
    6  0.012  0.003  0.005  0.020
    7  0.019  0.004  0.005  0.028
    8  0.011  0.003  0.005  0.018
    9  0.000  0.000  0.012  0.013
   10  0.000  0.000  0.019  0.020
   11  0.012  0.003  0.011  0.026
   12  0.014  0.004  0.010  0.028
   13  0.013  0.003  0.010  0.026
   14  0.000  0.002  0.027  0.029
   15  0.000  0.001  0.011  0.012
   16  0.013  0.004  0.011  0.028
   17  0.000  0.001  0.010  0.011
   18  0.000  0.003  0.016  0.020
   19  0.003  0.001  0.011  0.016
   20  0.000  0.001  0.030  0.031
   21  0.016  0.004  0.012  0.032
   22  0.005  0.002  0.011  0.018
   23  0.015  0.004  0.013  0.032
   24  0.000  0.001  0.013  0.014
   25  0.000  0.003  0.025  0.028
   26  0.003  0.001  0.011  0.015
   27  0.004  0.002  0.011  0.018
   28  0.000  0.003  0.012  0.015
   29  0.002  0.002  0.006  0.009
   30  0.020  0.004  0.006  0.030
   31  0.002  0.002  0.006  0.010
   32  0.010  0.003  0.006  0.018
   33  0.020  0.004  0.006  0.030
   34  0.009  0.002  0.006  0.017
   35  0.000  0.001  0.011  0.012
   36  0.000  0.010  0.006  0.016
   37  0.000  0.000  0.000  0.000
   38  0.000  0.001  0.000  0.001
   39  0.000  0.000  0.000  0.000