PROCAR new format
# of k-points:   10         # of bands:  252         # of ions:   39

 k-point     1 :    0.00000000 0.00000000 0.00000000     weight = 0.01562500

band     1 # energy  -23.92413870 # occ.  2.00000000
 
ion      s      p      d    tot
    1  0.000  0.000  0.000  0.000
    2  0.000  0.000  0.000  0.000
    3  0.000  0.000  0.000  0.000
    4  0.000  0.000  0.000  0.000
    5  0.000  0.000  0.000  0.000
    6  0.000  0.000  0.000  0.000
    7  0.000  0.000  0.000  0.000
    8  0.000  0.000  0.000  0.000
    9  0.000  0.000  0.000  0.000
   10  0.000  0.000  0.000  0.000
   11  0.000  0.000  0.000  0.000
   12  0.000  0.000  0.000  0.000
   13  0.000  0.000  0.000  0.000
   14  0.000  0.000  0.000  0.000
   15  0.000  0.000  0.000  0.000
   16  0.000  0.000  0.000  0.000
   17  0.000  0.000  0.000  0.000
   18  0.000  0.000  0.000  0.000
   19  0.000  0.000  0.000  0.000
   20  0.000  0.000  0.000  0.000
   21  0.000  0.000  0.000  0.000
   22  0.000  0.000  0.000  0.000
   23  0.000  0.000  0.000  0.000
   24  0.000  0.000  0.000  0.000
   25  0.000  0.000  0.000  0.000
   26  0.000  0.000  0.000  0.000
   27  0.000  0.000  0.000  0.000
   28  0.000  0.000  0.000  0.000
   29  0.000  0.000  0.000  0.000
   30  0.000  0.000  0.000  0.000
   31  0.000  0.000  0.000  0.000
   32  0.000  0.000  0.000  0.000
   33  0.000  0.000  0.000  0.000
   34  0.000  0.000  0.000  0.000
   35  0.000  0.000  0.000  0.000
   36  0.000  0.000  0.000  0.000
   37  0.079  0.059  0.000  0.138
   38  0.725  0.007  0.000  0.733
   39  0.061  0.013  0.000  0.075
tot    0.866  0.079  0.000  0.945
 
band     2 # energy  -14.60010463 # occ.  2.00000000
 
ion      s      p      d    tot
    1  0.000  0.000  0.000  0.000
    2  0.000  0.000  0.000  0.000
    3  0.000  0.000  0.000  0.000
    4  0.000  0.000  0.000  0.000
    5  0.000  0.000  0.000  0.000
    6  0.000  0.000  0.000  0.000
    7  0.000  0.000  0.000  0.000
    8  0.000  0.000  0.000  0.000
    9  0.000  0.000  0.000  0.000
   10  0.000  0.000  0.000  0.000
   11  0.000  0.000  0.000  0.000
   12  0.000  0.000  0.000  0.000
   13  0.000  0.000  0.000  0.000
   14  0.000  0.000  0.000  0.000
   15  0.000  0.000  0.000  0.000
   16  0.000  0.000  0.000  0.000
   17  0.000  0.000  0.000  0.000
   18  0.000  0.000  0.000  0.000
   19  0.000  0.000  0.000  0.000
   20  0.000  0.000  0.000  0.000
   21  0.000  0.000  0.000  0.000
   22  0.000  0.000  0.000  0.000
   23  0.000  0.000  0.000  0.000
   24  0.000  0.000  0.000  0.000
   25  0.000  0.000  0.000  0.000
   26  0.000  0.000  0.000  0.000
   27  0.000  0.000  0.000  0.000
   28  0.000  0.000  0.000  0.000
   29  0.000  0.000  0.000  0.000
   30  0.000  0.000  0.000  0.000
   31  0.000  0.000  0.000  0.000
   32  0.000  0.000  0.000  0.000
   33  0.000  0.000  0.000  0.000
   34  0.000  0.000  0.000  0.000
   35  0.000  0.000  0.000  0.000
   36  0.002  0.003  0.002  0.007
   37  0.156  0.052  0.000  0.208
   38  0.018  0.527  0.000  0.545
   39  0.204  0.033  0.000  0.237
tot    0.380  0.615  0.002  0.997
 
band     3 # energy   -8.60450469 # occ.  2.00000000
 
ion      s      p      d    tot
    1  0.006  0.001  0.000  0.007
    2  0.006  0.000  0.000  0.006
    3  0.006  0.000  0.000  0.006
    4  0.006  0.000  0.000  0.006
    5  0.006  0.000  0.000  0.006
    6  0.006  0.000  0.000  0.006
    7  0.006  0.000  0.000  0.006
    8  0.006  0.000  0.000  0.006
    9  0.006  0.000  0.000  0.006
   10  0.025  0.000  0.000  0.025
   11  0.026  0.000  0.000  0.026
   12  0.025  0.000  0.000  0.025
   13  0.026  0.000  0.000  0.026
   14  0.026  0.000  0.000  0.026
   15  0.025  0.000  0.000  0.025
   16  0.025  0.000  0.000  0.025
   17  0.025  0.000  0.000  0.025
   18  0.025  0.000  0.000  0.025
   19  0.023  0.000  0.000  0.024
   20  0.028  0.000  0.000  0.028
   21  0.028  0.000  0.000  0.028
   22  0.024  0.000  0.000  0.025
   23  0.028  0.000  0.000  0.028
   24  0.024  0.000  0.000  0.025
   25  0.023  0.000  0.000  0.024
   26  0.023  0.000  0.000  0.024
   27  0.024  0.000  0.000  0.025
   28  0.005  0.000  0.000  0.005
   29  0.006  0.000  0.000  0.006
   30  0.006  0.000  0.000  0.006
   31  0.006  0.000  0.000  0.006
   32  0.006  0.000  0.000  0.006
   33  0.006  0.000  0.000  0.006
   34  0.006  0.000  0.000  0.006
   35  0.005  0.000  0.000  0.005
   36  0.012  0.000  0.002  0.014
   37  0.003  0.003  0.000  0.006
   38  0.000  0.001  0.000  0.001
   39  0.000  0.000  0.000  0.000
tot    0.567  0.015  0.005  0.587
 
band     4 # energy   -7.55740980 # occ.  2.00000000
 
ion      s      p      d    tot
    1  0.012  0.000  0.001  0.013
    2  0.012  0.000  0.001  0.013
    3  0.012  0.000  0.001  0.013
    4  0.012  0.000  0.001  0.013
    5  0.012  0.000  0.001  0.013
    6  0.012  0.000  0.001  0.013
    7  0.012  0.000  0.001  0.013
    8  0.012  0.000  0.001  0.013
    9  0.013  0.000  0.000  0.013
   10  0.010  0.001  0.002  0.013
   11  0.010  0.001  0.002  0.013
   12  0.010  0.001  0.002  0.013
   13  0.010  0.001  0.002  0.013
   14  0.010  0.001  0.002  0.013
   15  0.012  0.001  0.002  0.014
   16  0.010  0.001  0.002  0.013
   17  0.012  0.001  0.002  0.014
   18  0.012  0.001  0.002  0.014
   19  0.005  0.001  0.002  0.007
   20  0.011  0.002  0.003  0.015
   21  0.011  0.002  0.003  0.015
   22  0.004  0.001  0.001  0.007
   23  0.011  0.002  0.003  0.015
   24  0.004  0.001  0.001  0.007
   25  0.005  0.001  0.002  0.007
   26  0.005  0.001  0.002  0.007
   27  0.004  0.001  0.001  0.007
   28  0.009  0.000  0.001  0.010
   29  0.014  0.000  0.002  0.016
   30  0.014  0.000  0.002  0.016
   31  0.014  0.000  0.002  0.016
   32  0.014  0.000  0.002  0.016
   33  0.014  0.000  0.002  0.016
   34  0.014  0.000  0.002  0.016
   35  0.008  0.000  0.001  0.009
   36  0.071  0.013  0.034  0.118
   37  0.047  0.045  0.000  0.092
   38  0.004  0.015  0.000  0.019
   39  0.004  0.000  0.000  0.004
tot    0.489  0.098  0.082  0.669
 
band     5 # energy   -6.99608187 # occ.  2.00000000
 
ion      s      p      d    tot
    1  0.010  0.000  0.001  0.011
    2  0.007  0.000  0.001  0.008
    3  0.007  0.000  0.001  0.008
    4  0.007  0.000  0.001  0.008
    5  0.007  0.000  0.001  0.008
    6  0.007  0.000  0.001  0.008
    7  0.007  0.000  0.001  0.008
    8  0.007  0.000  0.001  0.008
    9  0.005  0.000  0.002  0.007
   10  0.002  0.001  0.001  0.004
   11  0.001  0.001  0.001  0.003
   12  0.002  0.001  0.001  0.004
   13  0.001  0.001  0.001  0.003
   14  0.001  0.001  0.001  0.003
   15  0.000  0.001  0.001  0.003
   16  0.002  0.001  0.001  0.004
   17  0.000  0.001  0.001  0.003
   18  0.000  0.001  0.001  0.003
   19  0.013  0.000  0.006  0.019
   20  0.002  0.001  0.014  0.017
   21  0.002  0.001  0.014  0.017
   22  0.020  0.000  0.004  0.025
   23  0.002  0.001  0.014  0.017
   24  0.020  0.000  0.004  0.025
   25  0.013  0.000  0.006  0.019
   26  0.013  0.000  0.006  0.019
   27  0.020  0.000  0.004  0.025
   28  0.003  0.000  0.001  0.004
   29  0.000  0.001  0.005  0.006
   30  0.000  0.001  0.005  0.006
   31  0.000  0.001  0.005  0.006
   32  0.000  0.001  0.005  0.006
   33  0.000  0.001  0.005  0.006
   34  0.000  0.001  0.005  0.006
   35  0.003  0.001  0.001  0.005
   36  0.076  0.044  0.088  0.208
   37  0.105  0.092  0.000  0.197
   38  0.008  0.027  0.000  0.035
   39  0.008  0.001  0.000  0.008
tot    0.384  0.184  0.216  0.784
 
band     6 # energy   -6.70353220 # occ.  2.00000000
 
ion      s      p      d    tot
    1  0.000  0.000  0.000  0.000
    2  0.000  0.000  0.000  0.000
    3  0.000  0.000  0.000  0.000
    4  0.000  0.000  0.000  0.000
    5  0.000  0.000  0.000  0.000
    6  0.000  0.000  0.000  0.000
    7  0.000  0.000  0.000  0.000
    8  0.000  0.000  0.000  0.000
    9  0.000  0.000  0.000  0.000
   10  0.000  0.000  0.000  0.000
   11  0.000  0.000  0.000  0.000
   12  0.000  0.000  0.000  0.000
   13  0.000  0.000  0.000  0.000
   14  0.000  0.000  0.000  0.000
   15  0.000  0.000  0.000  0.000
   16  0.000  0.000  0.000  0.000
   17  0.000  0.000  0.000  0.000
   18  0.000  0.000  0.000  0.000
   19  0.000  0.000  0.001  0.001
   20  0.000  0.000  0.001  0.001
   21  0.000  0.000  0.000  0.000
   22  0.000  0.000  0.000  0.001
   23  0.000  0.000  0.000  0.000
   24  0.001  0.000  0.000  0.001
   25  0.000  0.000  0.000  0.000
   26  0.000  0.000  0.001  0.001
   27  0.000  0.000  0.000  0.001
   28  0.000  0.000  0.001  0.001
   29  0.002  0.000  0.001  0.004
   30  0.000  0.000  0.001  0.001
   31  0.002  0.000  0.001  0.004
   32  0.002  0.000  0.001  0.004
   33  0.000  0.000  0.001  0.001
   34  0.002  0.000  0.001  0.004
   35  0.000  0.000  0.001  0.001
   36  0.000  0.004  0.013  0.017
   37  0.000  0.113  0.000  0.113
   38  0.000  0.514  0.000  0.514
   39  0.000  0.007  0.000  0.007
tot    0.012  0.641  0.024  0.677
 
band     7 # energy   -6.70335117 # occ.  2.00000000
 
ion      s      p      d    tot
    1  0.000  0.000  0.000  0.000
    2  0.000  0.000  0.000  0.000
    3  0.000  0.000  0.000  0.000
    4  0.000  0.000  0.000  0.000
    5  0.000  0.000  0.000  0.000
    6  0.000  0.000  0.000  0.000
    7  0.000  0.000  0.000  0.000
    8  0.000  0.000  0.000  0.000
    9  0.000  0.000  0.000  0.000
   10  0.000  0.000  0.000  0.000
   11  0.000  0.000  0.000  0.000
   12  0.000  0.000  0.000  0.000
   13  0.000  0.000  0.000  0.000
   14  0.000  0.000  0.000  0.000
   15  0.000  0.000  0.000  0.000
   16  0.000  0.000  0.000  0.000
   17  0.000  0.000  0.000  0.000
   18  0.000  0.000  0.000  0.000
   19  0.000  0.000  0.000  0.000
   20  0.000  0.000  0.000  0.000
   21  0.000  0.000  0.000  0.001
   22  0.001  0.000  0.000  0.001
   23  0.000  0.000  0.000  0.001
   24  0.000  0.000  0.000  0.000
   25  0.000  0.000  0.001  0.001
   26  0.000  0.000  0.000  0.000
   27  0.001  0.000  0.000  0.001
   28  0.000  0.000  0.001  0.001
   29  0.001  0.000  0.001  0.002
   30  0.003  0.000  0.001  0.005
   31  0.001  0.000  0.001  0.002
   32  0.001  0.000  0.001  0.002
   33  0.003  0.000  0.001  0.005
   34  0.001  0.000  0.001  0.002
   35  0.000  0.000  0.001  0.001
   36  0.000  0.004  0.013  0.017
   37  0.000  0.113  0.000  0.113
   38  0.000  0.514  0.000  0.514
   39  0.000  0.007  0.000  0.007
tot    0.012  0.641  0.024  0.677
 
band     8 # energy   -6.45650232 # occ.  2.00000000
 
ion      s      p      d    tot
    1  0.004  0.000  0.017  0.022
    2  0.012  0.000  0.013  0.025
    3  0.012  0.000  0.013  0.025
    4  0.012  0.000  0.013  0.025
    5  0.005  0.000  0.010  0.016
    6  0.012  0.000  0.013  0.025
    7  0.012  0.000  0.013  0.025
    8  0.012  0.000  0.013  0.025
    9  0.035  0.001  0.006  0.041
   10  0.012  0.001  0.020  0.032
   11  0.018  0.002  0.011  0.031
   12  0.012  0.001  0.020  0.032
   13  0.018  0.002  0.011  0.031
   14  0.017  0.002  0.011  0.031
   15  0.003  0.001  0.020  0.024
   16  0.012  0.001  0.020  0.032
   17  0.003  0.001  0.020  0.024
   18  0.003  0.001  0.020  0.024
   19  0.000  0.001  0.011  0.012
   20  0.014  0.002  0.009  0.025
   21  0.014  0.002  0.009  0.025
   22  0.007  0.001  0.002  0.011
   23  0.014  0.002  0.009  0.025
   24  0.007  0.001  0.002  0.011
   25  0.000  0.001  0.011  0.012
   26  0.000  0.001  0.011  0.012
   27  0.007  0.001  0.002  0.011
   28  0.006  0.000  0.000  0.007
   29  0.003  0.000  0.004  0.008
   30  0.003  0.000  0.004  0.008
   31  0.003  0.000  0.004  0.008
   32  0.003  0.000  0.004  0.008
   33  0.003  0.000  0.004  0.008
   34  0.003  0.000  0.004  0.008
   35  0.010  0.000  0.001  0.011
   36  0.000  0.002  0.001  0.003
   37  0.000  0.000  0.000  0.000
   38  0.000  0.000  0.000  0.000
   39  0.000  0.000  0.000  0.000
tot    0.311  0.030  0.357  0.698
 
band     9 # energy   -6.43837130 # occ.  2.00000000
 
ion      s      p      d    tot
    1  0.000  0.000  0.007  0.008
    2  0.001  0.000  0.003  0.004
    3  0.001  0.000  0.003  0.004
    4  0.003  0.001  0.003  0.007
    5  0.000  0.001  0.007  0.009
    6  0.007  0.001  0.003  0.011
    7  0.002  0.001  0.003  0.006
    8  0.007  0.001  0.003  0.011
    9  0.000  0.000  0.001  0.001
   10  0.028  0.002  0.005  0.035
   11  0.007  0.003  0.026  0.036
   12  0.011  0.001  0.022  0.034
   13  0.022  0.002  0.021  0.045
   14  0.053  0.001  0.010  0.065
   15  0.001  0.003  0.004  0.008
   16  0.004  0.000  0.030  0.034
   17  0.002  0.002  0.007  0.011
   18  0.004  0.000  0.013  0.017
   19  0.001  0.003  0.004  0.008
   20  0.058  0.001  0.011  0.070
   21  0.024  0.002  0.024  0.049
   22  0.009  0.001  0.021  0.031
   23  0.008  0.003  0.030  0.040
   24  0.022  0.002  0.005  0.029
   25  0.006  0.000  0.013  0.019
   26  0.002  0.002  0.007  0.012
   27  0.003  0.000  0.028  0.032
   28  0.000  0.000  0.001  0.001
   29  0.006  0.001  0.004  0.012
   30  0.002  0.001  0.003  0.006
   31  0.007  0.001  0.004  0.012
   32  0.003  0.001  0.003  0.007
   33  0.000  0.000  0.003  0.004
   34  0.001  0.000  0.002  0.004
   35  0.000  0.000  0.005  0.005
   36  0.000  0.002  0.004  0.006
   37  0.000  0.000  0.000  0.000
   38  0.000  0.003  0.000  0.003
   39  0.000  0.000  0.000  0.000
tot    0.306  0.046  0.343  0.695
 
band    10 # energy   -6.43837023 # occ.  2.00000000
 
ion      s      p      d    tot
    1  0.000  0.000  0.007  0.008
    2  0.006  0.001  0.004  0.010
    3  0.006  0.001  0.003  0.011
    4  0.004  0.001  0.004  0.008
    5  0.000  0.001  0.007  0.009
    6  0.000  0.000  0.003  0.003
    7  0.005  0.001  0.003  0.008
    8  0.000  0.000  0.003  0.003
    9  0.000  0.000  0.001  0.001
   10  0.001  0.000  0.033  0.033
   11  0.048  0.001  0.012  0.061
   12  0.017  0.001  0.016  0.035
   13  0.033  0.002  0.017  0.052
   14  0.001  0.003  0.028  0.032
   15  0.004  0.001  0.012  0.016
   16  0.025  0.002  0.008  0.035
   17  0.002  0.002  0.009  0.013
   18  0.000  0.004  0.003  0.007
   19  0.005  0.001  0.012  0.018
   20  0.001  0.003  0.032  0.036
   21  0.036  0.002  0.019  0.057
   22  0.014  0.001  0.015  0.030
   23  0.052  0.001  0.013  0.066
   24  0.001  0.000  0.031  0.032
   25  0.000  0.004  0.003  0.007
   26  0.004  0.002  0.009  0.014
   27  0.020  0.002  0.008  0.029
   28  0.000  0.000  0.001  0.001
   29  0.000  0.000  0.002  0.003
   30  0.005  0.001  0.003  0.008
   31  0.000  0.000  0.003  0.003
   32  0.003  0.001  0.004  0.008
   33  0.006  0.001  0.003  0.011
   34  0.005  0.001  0.004  0.011
   35  0.000  0.000  0.005  0.005
   36  0.000  0.002  0.004  0.006
   37  0.000  0.000  0.000  0.000
   38  0.000  0.003  0.000  0.003
   39  0.000  0.000  0.000  0.000
tot    0.306  0.046  0.343  0.695
 
band    11 # energy   -6.42301302 # occ.  2.00000000
 
ion      s      p      d    tot
    1  0.014  0.000  0.006  0.020
    2  0.008  0.000  0.011  0.019
    3  0.008  0.000  0.011  0.019
    4  0.008  0.000  0.011  0.019
    5  0.017  0.000  0.008  0.026
    6  0.008  0.000  0.011  0.019
    7  0.008  0.000  0.011  0.019
    8  0.008  0.000  0.011  0.019
    9  0.000  0.001  0.014  0.016
   10  0.002  0.000  0.030  0.032
   11  0.000  0.001  0.023  0.024
   12  0.002  0.000  0.030  0.032
   13  0.000  0.001  0.023  0.024
   14  0.000  0.001  0.023  0.024
   15  0.029  0.001  0.015  0.044
   16  0.002  0.000  0.030  0.032
   17  0.029  0.001  0.015  0.044
   18  0.029  0.001  0.015  0.044
   19  0.000  0.000  0.021  0.021
   20  0.021  0.001  0.011  0.032
   21  0.021  0.001  0.011  0.032
   22  0.001  0.001  0.014  0.016
   23  0.021  0.001  0.011  0.032
   24  0.001  0.001  0.014  0.016
   25  0.000  0.000  0.020  0.021
   26  0.000  0.000  0.021  0.021
   27  0.001  0.001  0.014  0.016
   28  0.003  0.000  0.000  0.003
   29  0.001  0.000  0.004  0.005
   30  0.001  0.000  0.004  0.005
   31  0.001  0.000  0.004  0.005
   32  0.001  0.000  0.004  0.005
   33  0.001  0.000  0.004  0.005
   34  0.001  0.000  0.004  0.005
   35  0.004  0.000  0.002  0.006
   36  0.000  0.005  0.000  0.005
   37  0.002  0.002  0.000  0.004
   38  0.000  0.001  0.000  0.001
   39  0.000  0.000  0.000  0.000
tot    0.252  0.023  0.461  0.736
 
band    12 # energy   -6.41200261 # occ.  2.00000000
 
ion      s      p      d    tot
    1  0.012  0.001  0.000  0.014
    2  0.000  0.001  0.006  0.006
    3  0.000  0.001  0.006  0.006
    4  0.000  0.001  0.006  0.006
    5  0.011  0.002  0.002  0.015
    6  0.000  0.001  0.006  0.006
    7  0.000  0.001  0.006  0.006
    8  0.000  0.001  0.006  0.006
    9  0.000  0.000  0.000  0.000
   10  0.024  0.003  0.004  0.030
   11  0.021  0.000  0.021  0.042
   12  0.024  0.003  0.004  0.030
   13  0.021  0.000  0.021  0.042
   14  0.021  0.000  0.021  0.042
   15  0.001  0.001  0.021  0.023
   16  0.024  0.003  0.004  0.030
   17  0.001  0.001  0.021  0.023
   18  0.001  0.001  0.021  0.023
   19  0.030  0.003  0.002  0.035
   20  0.002  0.002  0.021  0.025
   21  0.002  0.002  0.021  0.025
   22  0.010  0.000  0.027  0.037
   23  0.002  0.002  0.021  0.025
   24  0.010  0.000  0.027  0.037
   25  0.030  0.003  0.002  0.035
   26  0.030  0.003  0.002  0.035
   27  0.010  0.000  0.027  0.037
   28  0.008  0.001  0.002  0.011
   29  0.000  0.000  0.004  0.005
   30  0.000  0.000  0.004  0.005
   31  0.000  0.000  0.004  0.005
   32  0.000  0.000  0.004  0.005
   33  0.000  0.000  0.004  0.005
   34  0.000  0.000  0.004  0.005
   35  0.008  0.001  0.001  0.010
   36  0.001  0.000  0.000  0.001
   37  0.000  0.000  0.000  0.001
   38  0.000  0.000  0.000  0.000
   39  0.000  0.000  0.000  0.000
tot    0.300  0.041  0.354  0.695
 
band    13 # energy   -6.38541418 # occ.  2.00000000
 
ion      s      p      d    tot
    1  0.000  0.001  0.004  0.005
    2  0.005  0.001  0.004  0.010
    3  0.007  0.001  0.004  0.012
    4  0.006  0.001  0.004  0.011
    5  0.000  0.000  0.003  0.003
    6  0.000  0.000  0.003  0.004
    7  0.007  0.001  0.004  0.012
    8  0.000  0.000  0.003  0.004
    9  0.000  0.001  0.011  0.012
   10  0.033  0.000  0.016  0.049
   11  0.001  0.002  0.016  0.019
   12  0.007  0.004  0.009  0.020
   13  0.001  0.002  0.017  0.019
   14  0.004  0.001  0.009  0.014
   15  0.017  0.001  0.034  0.051
   16  0.009  0.003  0.010  0.022
   17  0.013  0.001  0.036  0.050
   18  0.059  0.002  0.004  0.066
   19  0.013  0.001  0.027  0.041
   20  0.002  0.001  0.011  0.014
   21  0.000  0.001  0.014  0.016
   22  0.007  0.003  0.012  0.022
   23  0.001  0.001  0.013  0.016
   24  0.030  0.000  0.013  0.044
   25  0.045  0.002  0.003  0.050
   26  0.010  0.001  0.029  0.040
   27  0.008  0.003  0.012  0.024
   28  0.000  0.001  0.006  0.007
   29  0.000  0.000  0.002  0.002
   30  0.003  0.001  0.002  0.005
   31  0.000  0.000  0.002  0.002
   32  0.003  0.001  0.003  0.007
   33  0.003  0.001  0.002  0.005
   34  0.003  0.001  0.003  0.007
   35  0.000  0.001  0.003  0.004
   36  0.000  0.000  0.000  0.000
   37  0.000  0.001  0.000  0.001
   38  0.000  0.005  0.000  0.005
   39  0.000  0.000  0.000  0.000
tot    0.297  0.047  0.349  0.694
 
band    14 # energy   -6.38540545 # occ.  2.00000000
 
ion      s      p      d    tot
    1  0.000  0.001  0.004  0.005
    2  0.003  0.001  0.003  0.007
    3  0.002  0.001  0.004  0.006
    4  0.003  0.001  0.003  0.007
    5  0.000  0.000  0.003  0.003
    6  0.008  0.001  0.004  0.014
    7  0.001  0.000  0.004  0.005
    8  0.008  0.001  0.004  0.014
    9  0.000  0.001  0.011  0.012
   10  0.000  0.005  0.007  0.012
   11  0.003  0.001  0.012  0.016
   12  0.026  0.001  0.014  0.041
   13  0.003  0.001  0.011  0.015
   14  0.000  0.002  0.019  0.021
   15  0.043  0.001  0.016  0.060
   16  0.024  0.001  0.013  0.039
   17  0.046  0.002  0.013  0.061
   18  0.000  0.001  0.045  0.046
   19  0.032  0.002  0.013  0.046
   20  0.000  0.002  0.015  0.016
   21  0.002  0.001  0.012  0.014
   22  0.023  0.001  0.013  0.038
   23  0.002  0.001  0.012  0.014
   24  0.000  0.004  0.012  0.016
   25  0.000  0.000  0.036  0.037
   26  0.035  0.002  0.011  0.047
   27  0.022  0.001  0.013  0.036
   28  0.000  0.001  0.006  0.007
   29  0.004  0.001  0.002  0.007
   30  0.001  0.000  0.003  0.004
   31  0.004  0.001  0.002  0.007
   32  0.001  0.000  0.002  0.003
   33  0.001  0.000  0.003  0.004
   34  0.001  0.000  0.002  0.003
   35  0.000  0.001  0.003  0.004
   36  0.000  0.000  0.000  0.000
   37  0.000  0.001  0.000  0.001
   38  0.000  0.005  0.000  0.005
   39  0.000  0.000  0.000  0.000
tot    0.297  0.047  0.349  0.694
 
band    15 # energy   -6.19744159 # occ.  2.00000000
 
ion      s      p      d    tot
    1  0.002  0.000  0.000  0.002
    2  0.001  0.000  0.002  0.003
    3  0.001  0.000  0.002  0.003
    4  0.001  0.000  0.002  0.003
    5  0.005  0.000  0.000  0.005
    6  0.001  0.000  0.002  0.003
    7  0.001  0.000  0.002  0.003
    8  0.001  0.000  0.002  0.003
    9  0.002  0.001  0.002  0.005
   10  0.001  0.000  0.010  0.011
   11  0.002  0.001  0.001  0.005
   12  0.001  0.000  0.010  0.011
   13  0.002  0.001  0.001  0.005
   14  0.002  0.001  0.001  0.005
   15  0.010  0.001  0.005  0.016
   16  0.001  0.000  0.010  0.011
   17  0.010  0.001  0.005  0.016
   18  0.010  0.001  0.005  0.016
   19  0.000  0.002  0.009  0.011
   20  0.001  0.000  0.026  0.027
   21  0.001  0.000  0.026  0.027
   22  0.008  0.002  0.017  0.027
   23  0.001  0.000  0.026  0.027
   24  0.008  0.002  0.017  0.027
   25  0.000  0.002  0.009  0.011
   26  0.000  0.002  0.009  0.011
   27  0.008  0.002  0.017  0.027
   28  0.033  0.000  0.015  0.048
   29  0.019  0.000  0.020  0.039
   30  0.019  0.000  0.020  0.039
   31  0.019  0.000  0.020  0.039
   32  0.019  0.000  0.020  0.039
   33  0.019  0.000  0.020  0.039
   34  0.019  0.000  0.020  0.039
   35  0.025  0.000  0.019  0.044
   36  0.003  0.005  0.042  0.050
   37  0.020  0.016  0.000  0.036
   38  0.001  0.003  0.000  0.005
   39  0.001  0.000  0.000  0.001
tot    0.274  0.046  0.417  0.737
 
band    16 # energy   -5.96192683 # occ.  2.00000000
 
ion      s      p      d    tot
    1  0.015  0.002  0.002  0.019
    2  0.000  0.001  0.008  0.009
    3  0.000  0.001  0.008  0.009
    4  0.000  0.001  0.008  0.009
    5  0.000  0.000  0.002  0.002
    6  0.000  0.001  0.008  0.009
    7  0.000  0.001  0.008  0.009
    8  0.000  0.001  0.008  0.009
    9  0.017  0.002  0.000  0.019
   10  0.011  0.001  0.014  0.027
   11  0.002  0.000  0.044  0.046
   12  0.011  0.001  0.014  0.027
   13  0.002  0.000  0.044  0.046
   14  0.002  0.000  0.044  0.046
   15  0.004  0.001  0.022  0.027
   16  0.011  0.001  0.014  0.027
   17  0.004  0.001  0.022  0.027
   18  0.004  0.001  0.022  0.027
   19  0.004  0.001  0.013  0.018
   20  0.001  0.000  0.051  0.052
   21  0.001  0.000  0.051  0.052
   22  0.010  0.001  0.018  0.030
   23  0.001  0.000  0.051  0.052
   24  0.010  0.001  0.018  0.030
   25  0.004  0.001  0.013  0.018
   26  0.004  0.001  0.013  0.018
   27  0.010  0.001  0.018  0.030
   28  0.009  0.001  0.001  0.011
   29  0.000  0.000  0.005  0.006
   30  0.000  0.000  0.005  0.006
   31  0.000  0.000  0.005  0.006
   32  0.000  0.000  0.005  0.006
   33  0.000  0.000  0.005  0.006
   34  0.000  0.000  0.005  0.006
   35  0.008  0.001  0.002  0.012
   36  0.000  0.000  0.001  0.002
   37  0.000  0.000  0.000  0.000
   38  0.000  0.000  0.000  0.000
   39  0.000  0.000  0.000  0.000
tot    0.149  0.028  0.578  0.755
 
band    17 # energy   -5.95368442 # occ.  2.00000000
 
ion      s      p      d    tot
    1  0.000  0.001  0.004  0.005
    2  0.001  0.001  0.005  0.006
    3  0.009  0.001  0.005  0.015
    4  0.001  0.001  0.005  0.006
    5  0.000  0.001  0.011  0.012
    6  0.005  0.001  0.004  0.009
    7  0.009  0.001  0.005  0.015
    8  0.005  0.001  0.004  0.010
    9  0.000  0.000  0.008  0.008
   10  0.000  0.001  0.052  0.053
   11  0.017  0.001  0.020  0.038
   12  0.008  0.002  0.019  0.028
   13  0.017  0.001  0.020  0.038
   14  0.000  0.000  0.049  0.049
   15  0.002  0.001  0.019  0.022
   16  0.008  0.002  0.019  0.028
   17  0.002  0.001  0.019  0.022
   18  0.000  0.002  0.010  0.012
   19  0.006  0.000  0.018  0.025
   20  0.000  0.000  0.074  0.074
   21  0.016  0.001  0.023  0.040
   22  0.002  0.001  0.019  0.022
   23  0.016  0.001  0.023  0.040
   24  0.000  0.001  0.031  0.032
   25  0.000  0.001  0.013  0.014
   26  0.006  0.000  0.018  0.025
   27  0.002  0.001  0.019  0.022
   28  0.000  0.000  0.008  0.009
   29  0.002  0.001  0.004  0.007
   30  0.010  0.001  0.004  0.015
   31  0.002  0.001  0.004  0.007
   32  0.003  0.001  0.004  0.008
   33  0.010  0.001  0.004  0.015
   34  0.003  0.001  0.004  0.008
   35  0.000  0.000  0.003  0.003
   36  0.000  0.003  0.003  0.006
   37  0.000  0.000  0.000  0.000
   38  0.000  0.001  0.000  0.001
   39  0.000  0.000  0.000  0.000
tot    0.160  0.033  0.555  0.748
 
band    18 # energy   -5.95367533 # occ.  2.00000000
 
ion      s      p      d    tot
    1  0.000  0.001  0.004  0.005
    2  0.009  0.001  0.004  0.014
    3  0.001  0.000  0.004  0.005
    4  0.009  0.001  0.004  0.014
    5  0.000  0.001  0.011  0.012
    6  0.005  0.001  0.005  0.011
    7  0.001  0.000  0.004  0.005
    8  0.005  0.001  0.005  0.011
    9  0.000  0.000  0.008  0.008
   10  0.010  0.002  0.008  0.020
   11  0.006  0.000  0.039  0.045
   12  0.003  0.001  0.041  0.044
   13  0.006  0.000  0.039  0.045
   14  0.022  0.001  0.011  0.034
   15  0.001  0.001  0.013  0.015
   16  0.003  0.001  0.041  0.044
   17  0.001  0.001  0.013  0.015
   18  0.002  0.000  0.023  0.025
   19  0.002  0.001  0.015  0.018
   20  0.022  0.002  0.006  0.029
   21  0.005  0.000  0.057  0.063
   22  0.001  0.001  0.027  0.028
   23  0.005  0.000  0.057  0.063
   24  0.003  0.001  0.015  0.019
   25  0.008  0.000  0.020  0.028
   26  0.002  0.001  0.015  0.018
   27  0.001  0.001  0.027  0.029
   28  0.000  0.000  0.008  0.009
   29  0.008  0.001  0.004  0.013
   30  0.000  0.000  0.004  0.005
   31  0.008  0.001  0.004  0.013
   32  0.007  0.001  0.004  0.012
   33  0.000  0.000  0.004  0.005
   34  0.007  0.001  0.004  0.012
   35  0.000  0.000  0.003  0.003
   36  0.000  0.003  0.003  0.006
   37  0.000  0.000  0.000  0.000
   38  0.000  0.001  0.000  0.001
   39  0.000  0.000  0.000  0.000
tot    0.160  0.033  0.555  0.748
 
band    19 # energy   -5.89617276 # occ.  2.00000000
 
ion      s      p      d    tot
    1  0.000  0.001  0.015  0.015
    2  0.001  0.001  0.006  0.007
    3  0.007  0.001  0.005  0.014
    4  0.000  0.000  0.005  0.006
    5  0.000  0.000  0.005  0.005
    6  0.005  0.001  0.005  0.011
    7  0.009  0.001  0.005  0.016
    8  0.008  0.001  0.005  0.014
    9  0.000  0.001  0.007  0.009
   10  0.009  0.000  0.021  0.030
   11  0.000  0.001  0.020  0.021
   12  0.004  0.001  0.025  0.029
   13  0.000  0.001  0.020  0.021
   14  0.001  0.001  0.020  0.022
   15  0.002  0.000  0.056  0.059
   16  0.001  0.001  0.027  0.029
   17  0.006  0.001  0.042  0.049
   18  0.015  0.002  0.007  0.024
   19  0.002  0.000  0.057  0.060
   20  0.000  0.000  0.024  0.024
   21  0.000  0.001  0.021  0.022
   22  0.009  0.001  0.027  0.037
   23  0.000  0.001  0.020  0.021
   24  0.023  0.001  0.016  0.040
   25  0.016  0.001  0.006  0.023
   26  0.006  0.001  0.042  0.049
   27  0.003  0.000  0.032  0.035
   28  0.000  0.001  0.004  0.005
   29  0.001  0.000  0.003  0.004
   30  0.005  0.001  0.002  0.009
   31  0.000  0.000  0.004  0.004
   32  0.002  0.001  0.005  0.007
   33  0.006  0.001  0.003  0.010
   34  0.004  0.001  0.005  0.009
   35  0.000  0.001  0.008  0.008
   36  0.000  0.000  0.001  0.001
   37  0.000  0.000  0.000  0.000
   38  0.000  0.000  0.000  0.000
   39  0.000  0.000  0.000  0.000
tot    0.149  0.029  0.574  0.751
 
band    20 # energy   -5.89617240 # occ.  2.00000000
 
ion      s      p      d    tot
    1  0.000  0.001  0.015  0.015
    2  0.010  0.001  0.005  0.015
    3  0.003  0.000  0.005  0.009
    4  0.010  0.001  0.005  0.016
    5  0.000  0.000  0.005  0.005
    6  0.005  0.001  0.005  0.011
    7  0.001  0.000  0.005  0.006
    8  0.002  0.001  0.006  0.008
    9  0.000  0.001  0.007  0.009
   10  0.000  0.001  0.028  0.029
   11  0.001  0.001  0.020  0.022
   12  0.006  0.000  0.023  0.030
   13  0.001  0.001  0.020  0.021
   14  0.000  0.001  0.020  0.021
   15  0.013  0.002  0.014  0.029
   16  0.008  0.000  0.021  0.030
   17  0.009  0.001  0.028  0.039
   18  0.000  0.000  0.063  0.064
   19  0.014  0.001  0.013  0.028
   20  0.000  0.002  0.019  0.021
   21  0.000  0.001  0.022  0.023
   22  0.015  0.001  0.023  0.038
   23  0.000  0.000  0.023  0.024
   24  0.000  0.000  0.034  0.035
   25  0.000  0.000  0.064  0.065
   26  0.010  0.001  0.028  0.039
   27  0.020  0.001  0.018  0.040
   28  0.000  0.001  0.004  0.005
   29  0.005  0.001  0.004  0.010
   30  0.001  0.001  0.005  0.006
   31  0.006  0.001  0.003  0.010
   32  0.004  0.001  0.002  0.007
   33  0.000  0.000  0.004  0.005
   34  0.003  0.001  0.002  0.005
   35  0.000  0.001  0.008  0.008
   36  0.000  0.000  0.001  0.001
   37  0.000  0.000  0.000  0.000
   38  0.000  0.000  0.000  0.000
   39  0.000  0.000  0.000  0.000