PROCAR new format
# of k-points:   10         # of bands:  252         # of ions:   37

 k-point     1 :    0.00000000 0.00000000 0.00000000     weight = 0.01562500

band     1 # energy  -17.56453855 # occ.  2.00000000
 
ion      s      p      d    tot
    1  0.000  0.000  0.000  0.000
    2  0.000  0.000  0.000  0.000
    3  0.000  0.000  0.000  0.000
    4  0.000  0.000  0.000  0.000
    5  0.000  0.000  0.000  0.000
    6  0.000  0.000  0.000  0.000
    7  0.000  0.000  0.000  0.000
    8  0.000  0.000  0.000  0.000
    9  0.000  0.000  0.000  0.000
   10  0.000  0.000  0.000  0.000
   11  0.000  0.000  0.000  0.000
   12  0.000  0.000  0.000  0.000
   13  0.000  0.000  0.000  0.000
   14  0.000  0.000  0.000  0.000
   15  0.000  0.000  0.000  0.000
   16  0.000  0.000  0.000  0.000
   17  0.000  0.000  0.000  0.000
   18  0.000  0.000  0.000  0.000
   19  0.000  0.000  0.000  0.000
   20  0.000  0.000  0.000  0.000
   21  0.000  0.000  0.000  0.000
   22  0.000  0.000  0.000  0.000
   23  0.000  0.000  0.000  0.000
   24  0.000  0.000  0.000  0.000
   25  0.000  0.000  0.000  0.000
   26  0.000  0.000  0.000  0.000
   27  0.000  0.000  0.000  0.000
   28  0.000  0.000  0.000  0.000
   29  0.000  0.000  0.000  0.000
   30  0.000  0.000  0.000  0.000
   31  0.000  0.000  0.000  0.000
   32  0.000  0.000  0.000  0.000
   33  0.000  0.000  0.000  0.000
   34  0.000  0.000  0.000  0.000
   35  0.000  0.000  0.000  0.000
   36  0.040  0.043  0.080  0.164
   37  0.758  0.016  0.000  0.774
tot    0.799  0.059  0.080  0.938
 
band     2 # energy   -6.38322377 # occ.  2.00000000
 
ion      s      p      d    tot
    1  0.005  0.001  0.000  0.006
    2  0.005  0.001  0.000  0.006
    3  0.005  0.001  0.000  0.006
    4  0.005  0.001  0.000  0.006
    5  0.005  0.000  0.000  0.005
    6  0.005  0.001  0.000  0.006
    7  0.005  0.001  0.000  0.006
    8  0.005  0.001  0.000  0.006
    9  0.005  0.000  0.000  0.006
   10  0.021  0.000  0.000  0.021
   11  0.021  0.000  0.000  0.022
   12  0.021  0.000  0.000  0.021
   13  0.021  0.000  0.000  0.022
   14  0.021  0.000  0.000  0.022
   15  0.021  0.000  0.000  0.021
   16  0.021  0.000  0.000  0.021
   17  0.021  0.000  0.000  0.021
   18  0.021  0.000  0.000  0.021
   19  0.022  0.000  0.001  0.023
   20  0.028  0.000  0.001  0.029
   21  0.028  0.000  0.001  0.029
   22  0.023  0.000  0.000  0.023
   23  0.028  0.000  0.001  0.029
   24  0.023  0.000  0.000  0.023
   25  0.022  0.000  0.001  0.023
   26  0.022  0.000  0.001  0.023
   27  0.023  0.000  0.000  0.023
   28  0.006  0.001  0.000  0.006
   29  0.007  0.001  0.000  0.008
   30  0.007  0.001  0.000  0.008
   31  0.007  0.001  0.000  0.008
   32  0.007  0.001  0.000  0.008
   33  0.007  0.001  0.000  0.008
   34  0.007  0.001  0.000  0.008
   35  0.006  0.001  0.000  0.007
   36  0.021  0.002  0.000  0.023
   37  0.002  0.003  0.000  0.004
tot    0.529  0.016  0.008  0.553
 
band     3 # energy   -5.53820060 # occ.  2.00000000
 
ion      s      p      d    tot
    1  0.008  0.000  0.001  0.009
    2  0.010  0.000  0.001  0.011
    3  0.010  0.000  0.001  0.011
    4  0.010  0.000  0.001  0.011
    5  0.010  0.001  0.000  0.011
    6  0.010  0.000  0.001  0.011
    7  0.010  0.000  0.001  0.011
    8  0.010  0.000  0.001  0.011
    9  0.011  0.001  0.000  0.012
   10  0.011  0.001  0.013  0.026
   11  0.013  0.001  0.010  0.023
   12  0.011  0.001  0.013  0.026
   13  0.013  0.001  0.010  0.023
   14  0.013  0.001  0.010  0.023
   15  0.016  0.001  0.009  0.025
   16  0.011  0.001  0.013  0.026
   17  0.016  0.001  0.009  0.025
   18  0.016  0.001  0.009  0.025
   19  0.005  0.001  0.010  0.016
   20  0.014  0.002  0.013  0.029
   21  0.014  0.002  0.013  0.029
   22  0.004  0.001  0.009  0.014
   23  0.014  0.002  0.013  0.029
   24  0.004  0.001  0.009  0.014
   25  0.005  0.001  0.010  0.016
   26  0.005  0.001  0.010  0.016
   27  0.004  0.001  0.009  0.014
   28  0.005  0.000  0.001  0.007
   29  0.008  0.000  0.003  0.011
   30  0.008  0.000  0.003  0.011
   31  0.008  0.000  0.003  0.011
   32  0.008  0.000  0.003  0.011
   33  0.008  0.000  0.003  0.011
   34  0.008  0.000  0.003  0.011
   35  0.005  0.000  0.001  0.006
   36  0.048  0.002  0.003  0.052
   37  0.004  0.016  0.000  0.020
tot    0.384  0.045  0.219  0.649
 
band     4 # energy   -5.26257831 # occ.  2.00000000
 
ion      s      p      d    tot
    1  0.000  0.000  0.008  0.009
    2  0.002  0.000  0.004  0.006
    3  0.002  0.000  0.004  0.006
    4  0.002  0.000  0.004  0.006
    5  0.002  0.000  0.003  0.005
    6  0.002  0.000  0.004  0.006
    7  0.002  0.000  0.004  0.006
    8  0.002  0.000  0.004  0.006
    9  0.004  0.000  0.003  0.007
   10  0.003  0.000  0.016  0.019
   11  0.001  0.000  0.019  0.020
   12  0.003  0.000  0.016  0.019
   13  0.001  0.000  0.019  0.020
   14  0.001  0.000  0.019  0.020
   15  0.000  0.000  0.018  0.018
   16  0.003  0.000  0.016  0.019
   17  0.000  0.000  0.018  0.018
   18  0.000  0.000  0.018  0.018
   19  0.007  0.000  0.027  0.034
   20  0.000  0.001  0.055  0.056
   21  0.000  0.001  0.055  0.056
   22  0.009  0.000  0.023  0.032
   23  0.000  0.001  0.055  0.056
   24  0.009  0.000  0.023  0.032
   25  0.007  0.000  0.027  0.034
   26  0.007  0.000  0.027  0.034
   27  0.009  0.000  0.023  0.032
   28  0.001  0.000  0.015  0.016
   29  0.004  0.000  0.018  0.023
   30  0.004  0.000  0.018  0.023
   31  0.004  0.000  0.018  0.023
   32  0.004  0.000  0.018  0.023
   33  0.004  0.000  0.018  0.023
   34  0.004  0.000  0.018  0.023
   35  0.001  0.000  0.011  0.012
   36  0.051  0.001  0.001  0.053
   37  0.003  0.009  0.000  0.011
tot    0.154  0.017  0.648  0.819
 
band     5 # energy   -5.22569833 # occ.  2.00000000
 
ion      s      p      d    tot
    1  0.010  0.001  0.001  0.012
    2  0.003  0.000  0.005  0.008
    3  0.003  0.000  0.005  0.008
    4  0.003  0.000  0.005  0.008
    5  0.001  0.000  0.004  0.005
    6  0.003  0.000  0.005  0.008
    7  0.003  0.000  0.005  0.008
    8  0.003  0.000  0.005  0.008
    9  0.001  0.000  0.004  0.005
   10  0.003  0.000  0.016  0.019
   11  0.000  0.000  0.003  0.004
   12  0.003  0.000  0.016  0.019
   13  0.000  0.000  0.003  0.004
   14  0.000  0.000  0.003  0.003
   15  0.001  0.001  0.000  0.002
   16  0.003  0.000  0.016  0.019
   17  0.001  0.001  0.000  0.002
   18  0.001  0.001  0.000  0.002
   19  0.000  0.001  0.025  0.026
   20  0.005  0.001  0.075  0.081
   21  0.005  0.001  0.075  0.081
   22  0.008  0.000  0.001  0.010
   23  0.005  0.001  0.075  0.081
   24  0.008  0.000  0.001  0.010
   25  0.000  0.001  0.025  0.026
   26  0.000  0.001  0.025  0.026
   27  0.008  0.000  0.001  0.010
   28  0.009  0.000  0.001  0.010
   29  0.008  0.000  0.007  0.015
   30  0.008  0.000  0.007  0.015
   31  0.008  0.000  0.007  0.015
   32  0.008  0.000  0.007  0.015
   33  0.008  0.000  0.007  0.015
   34  0.008  0.000  0.007  0.015
   35  0.016  0.001  0.003  0.019
   36  0.005  0.000  0.115  0.121
   37  0.007  0.063  0.000  0.070
tot    0.162  0.075  0.562  0.799
 
band     6 # energy   -5.08433029 # occ.  2.00000000
 
ion      s      p      d    tot
    1  0.013  0.000  0.014  0.027
    2  0.011  0.000  0.024  0.035
    3  0.011  0.000  0.024  0.035
    4  0.011  0.000  0.024  0.035
    5  0.016  0.000  0.028  0.045
    6  0.011  0.000  0.024  0.035
    7  0.011  0.000  0.024  0.035
    8  0.011  0.000  0.024  0.035
    9  0.006  0.000  0.029  0.035
   10  0.001  0.001  0.012  0.014
   11  0.000  0.000  0.028  0.029
   12  0.001  0.001  0.012  0.014
   13  0.000  0.000  0.028  0.029
   14  0.000  0.000  0.027  0.028
   15  0.004  0.000  0.018  0.021
   16  0.001  0.001  0.012  0.014
   17  0.004  0.000  0.018  0.021
   18  0.004  0.000  0.018  0.022
   19  0.007  0.000  0.002  0.010
   20  0.000  0.000  0.026  0.026
   21  0.000  0.000  0.026  0.026
   22  0.000  0.000  0.017  0.017
   23  0.000  0.000  0.026  0.026
   24  0.000  0.000  0.016  0.016
   25  0.008  0.000  0.002  0.010
   26  0.007  0.000  0.002  0.010
   27  0.000  0.000  0.017  0.017
   28  0.000  0.001  0.005  0.006
   29  0.001  0.000  0.011  0.013
   30  0.001  0.000  0.011  0.013
   31  0.001  0.000  0.011  0.013
   32  0.001  0.000  0.011  0.013
   33  0.001  0.000  0.011  0.013
   34  0.001  0.000  0.011  0.013
   35  0.001  0.000  0.000  0.001
   36  0.010  0.000  0.024  0.034
   37  0.000  0.003  0.000  0.003
tot    0.159  0.013  0.618  0.789
 
band     7 # energy   -5.08160799 # occ.  2.00000000
 
ion      s      p      d    tot
    1  0.000  0.000  0.008  0.008
    2  0.000  0.000  0.003  0.003
    3  0.000  0.000  0.002  0.003
    4  0.000  0.000  0.003  0.003
    5  0.000  0.000  0.005  0.005
    6  0.001  0.000  0.003  0.004
    7  0.000  0.000  0.002  0.003
    8  0.001  0.000  0.003  0.004
    9  0.000  0.000  0.001  0.001
   10  0.015  0.001  0.010  0.026
   11  0.002  0.001  0.023  0.027
   12  0.004  0.001  0.026  0.030
   13  0.002  0.001  0.023  0.027
   14  0.008  0.000  0.022  0.030
   15  0.000  0.000  0.020  0.021
   16  0.004  0.000  0.026  0.030
   17  0.000  0.000  0.020  0.021
   18  0.001  0.000  0.013  0.014
   19  0.003  0.001  0.014  0.019
   20  0.037  0.001  0.010  0.047
   21  0.009  0.001  0.077  0.087
   22  0.001  0.000  0.063  0.065
   23  0.009  0.001  0.077  0.087
   24  0.005  0.000  0.015  0.020
   25  0.012  0.000  0.040  0.052
   26  0.003  0.001  0.015  0.019
   27  0.001  0.000  0.063  0.065
   28  0.000  0.000  0.002  0.002
   29  0.001  0.001  0.007  0.009
   30  0.001  0.000  0.006  0.008
   31  0.001  0.001  0.007  0.009
   32  0.000  0.000  0.006  0.006
   33  0.001  0.000  0.006  0.008
   34  0.000  0.000  0.006  0.006
   35  0.000  0.000  0.003  0.003
   36  0.000  0.001  0.024  0.025
   37  0.000  0.005  0.000  0.005
tot    0.125  0.022  0.654  0.801
 
band     8 # energy   -5.08157791 # occ.  2.00000000
 
ion      s      p      d    tot
    1  0.000  0.000  0.008  0.008
    2  0.001  0.000  0.003  0.004
    3  0.001  0.000  0.003  0.004
    4  0.001  0.000  0.003  0.004
    5  0.000  0.000  0.005  0.005
    6  0.000  0.000  0.002  0.002
    7  0.001  0.000  0.003  0.004
    8  0.000  0.000  0.002  0.002
    9  0.000  0.000  0.001  0.001
   10  0.000  0.000  0.031  0.031
   11  0.006  0.001  0.022  0.029
   12  0.011  0.001  0.015  0.027
   13  0.006  0.001  0.022  0.029
   14  0.000  0.001  0.024  0.026
   15  0.001  0.000  0.016  0.017
   16  0.011  0.001  0.015  0.027
   17  0.001  0.000  0.016  0.017
   18  0.000  0.000  0.022  0.023
   19  0.009  0.001  0.031  0.041
   20  0.000  0.001  0.100  0.100
   21  0.028  0.001  0.032  0.061
   22  0.003  0.000  0.031  0.035
   23  0.028  0.001  0.032  0.060
   24  0.000  0.000  0.079  0.079
   25  0.000  0.002  0.006  0.008
   26  0.009  0.001  0.031  0.041
   27  0.003  0.000  0.031  0.035
   28  0.000  0.000  0.002  0.002
   29  0.000  0.000  0.006  0.006
   30  0.001  0.000  0.006  0.007
   31  0.000  0.000  0.006  0.006
   32  0.001  0.001  0.007  0.009
   33  0.001  0.000  0.006  0.007
   34  0.001  0.001  0.007  0.009
   35  0.000  0.000  0.003  0.003
   36  0.000  0.001  0.024  0.025
   37  0.000  0.005  0.000  0.005
tot    0.125  0.022  0.654  0.801
 
band     9 # energy   -5.06136214 # occ.  2.00000000
 
ion      s      p      d    tot
    1  0.000  0.000  0.001  0.001
    2  0.001  0.000  0.004  0.005
    3  0.000  0.000  0.002  0.002
    4  0.001  0.000  0.004  0.005
    5  0.000  0.000  0.005  0.005
    6  0.001  0.000  0.004  0.006
    7  0.000  0.000  0.002  0.002
    8  0.001  0.000  0.004  0.006
    9  0.000  0.000  0.008  0.008
   10  0.000  0.001  0.029  0.030
   11  0.011  0.001  0.023  0.035
   12  0.000  0.000  0.029  0.029
   13  0.011  0.001  0.021  0.033
   14  0.000  0.000  0.073  0.073
   15  0.016  0.001  0.025  0.041
   16  0.000  0.000  0.029  0.029
   17  0.016  0.001  0.025  0.042
   18  0.000  0.001  0.026  0.028
   19  0.010  0.001  0.027  0.038
   20  0.000  0.001  0.030  0.031
   21  0.001  0.000  0.033  0.034
   22  0.018  0.001  0.027  0.045
   23  0.001  0.000  0.033  0.034
   24  0.000  0.001  0.036  0.037
   25  0.000  0.000  0.082  0.082
   26  0.011  0.001  0.024  0.036
   27  0.017  0.001  0.027  0.045
   28  0.000  0.000  0.006  0.006
   29  0.001  0.000  0.003  0.004
   30  0.001  0.000  0.005  0.006
   31  0.001  0.000  0.004  0.005
   32  0.000  0.000  0.002  0.003
   33  0.001  0.000  0.005  0.007
   34  0.000  0.000  0.002  0.003
   35  0.000  0.000  0.008  0.008
   36  0.000  0.000  0.001  0.001
   37  0.000  0.000  0.000  0.000
tot    0.120  0.016  0.669  0.805
 
band    10 # energy   -5.06135833 # occ.  2.00000000
 
ion      s      p      d    tot
    1  0.000  0.000  0.001  0.001
    2  0.001  0.000  0.003  0.004
    3  0.001  0.000  0.004  0.006
    4  0.001  0.000  0.003  0.004
    5  0.000  0.000  0.005  0.005
    6  0.000  0.000  0.003  0.003
    7  0.001  0.000  0.005  0.006
    8  0.000  0.000  0.002  0.003
    9  0.000  0.000  0.008  0.008
   10  0.001  0.000  0.029  0.029
   11  0.004  0.000  0.055  0.059
   12  0.000  0.001  0.029  0.030
   13  0.003  0.000  0.057  0.061
   14  0.015  0.001  0.005  0.021
   15  0.006  0.001  0.026  0.033
   16  0.000  0.001  0.029  0.030
   17  0.005  0.001  0.026  0.032
   18  0.021  0.001  0.024  0.046
   19  0.004  0.000  0.062  0.066
   20  0.001  0.000  0.034  0.035
   21  0.000  0.001  0.031  0.032
   22  0.005  0.001  0.033  0.040
   23  0.000  0.001  0.031  0.032
   24  0.023  0.001  0.024  0.047
   25  0.014  0.001  0.007  0.022
   26  0.003  0.000  0.064  0.068
   27  0.006  0.001  0.033  0.040
   28  0.000  0.000  0.006  0.006
   29  0.001  0.000  0.004  0.005
   30  0.000  0.000  0.002  0.003
   31  0.001  0.000  0.004  0.005
   32  0.001  0.000  0.005  0.006
   33  0.000  0.000  0.002  0.003
   34  0.001  0.000  0.005  0.006
   35  0.000  0.000  0.008  0.008
   36  0.000  0.000  0.001  0.001
   37  0.000  0.000  0.000  0.000
tot    0.120  0.016  0.668  0.805
 
band    11 # energy   -5.05468312 # occ.  2.00000000
 
ion      s      p      d    tot
    1  0.003  0.000  0.001  0.004
    2  0.001  0.000  0.007  0.008
    3  0.001  0.000  0.007  0.008
    4  0.001  0.000  0.007  0.008
    5  0.001  0.001  0.010  0.012
    6  0.001  0.000  0.007  0.008
    7  0.001  0.000  0.007  0.008
    8  0.001  0.000  0.007  0.008
    9  0.005  0.000  0.000  0.006
   10  0.004  0.001  0.004  0.009
   11  0.012  0.001  0.027  0.040
   12  0.004  0.001  0.004  0.009
   13  0.012  0.001  0.027  0.040
   14  0.012  0.001  0.027  0.040
   15  0.000  0.000  0.043  0.043
   16  0.004  0.001  0.004  0.009
   17  0.000  0.000  0.043  0.043
   18  0.000  0.000  0.042  0.043
   19  0.010  0.000  0.027  0.038
   20  0.006  0.001  0.016  0.023
   21  0.006  0.001  0.016  0.023
   22  0.003  0.000  0.066  0.069
   23  0.006  0.001  0.016  0.023
   24  0.003  0.000  0.066  0.069
   25  0.010  0.000  0.028  0.038
   26  0.010  0.000  0.027  0.038
   27  0.003  0.000  0.066  0.069
   28  0.008  0.001  0.001  0.010
   29  0.001  0.000  0.005  0.006
   30  0.001  0.000  0.005  0.006
   31  0.001  0.000  0.005  0.006
   32  0.001  0.000  0.005  0.006
   33  0.001  0.000  0.005  0.006
   34  0.001  0.000  0.005  0.006
   35  0.000  0.001  0.018  0.020
   36  0.000  0.000  0.001  0.002
   37  0.000  0.000  0.000  0.000
tot    0.135  0.015  0.651  0.801
 
band    12 # energy   -5.03684470 # occ.  2.00000000
 
ion      s      p      d    tot
    1  0.000  0.000  0.001  0.001
    2  0.001  0.000  0.007  0.008
    3  0.001  0.000  0.007  0.008
    4  0.001  0.000  0.007  0.008
    5  0.002  0.000  0.001  0.003
    6  0.001  0.000  0.007  0.008
    7  0.001  0.000  0.007  0.008
    8  0.001  0.000  0.007  0.008
    9  0.002  0.000  0.016  0.018
   10  0.002  0.000  0.021  0.024
   11  0.005  0.001  0.022  0.027
   12  0.002  0.000  0.021  0.024
   13  0.005  0.001  0.022  0.027
   14  0.005  0.001  0.022  0.027
   15  0.004  0.000  0.074  0.078
   16  0.002  0.000  0.021  0.024
   17  0.004  0.000  0.074  0.078
   18  0.004  0.000  0.074  0.078
   19  0.001  0.001  0.004  0.005
   20  0.000  0.000  0.038  0.038
   21  0.000  0.000  0.038  0.038
   22  0.003  0.000  0.049  0.052
   23  0.000  0.000  0.038  0.038
   24  0.003  0.000  0.049  0.052
   25  0.001  0.001  0.004  0.005
   26  0.001  0.001  0.004  0.005
   27  0.003  0.000  0.049  0.052
   28  0.002  0.000  0.000  0.002
   29  0.001  0.000  0.009  0.011
   30  0.001  0.000  0.009  0.011
   31  0.001  0.000  0.009  0.011
   32  0.001  0.000  0.009  0.011
   33  0.001  0.000  0.009  0.011
   34  0.001  0.000  0.009  0.011
   35  0.003  0.000  0.014  0.018
   36  0.000  0.000  0.002  0.002
   37  0.000  0.001  0.000  0.001
tot    0.063  0.010  0.760  0.833
 
band    13 # energy   -5.02591624 # occ.  2.00000000
 
ion      s      p      d    tot
    1  0.000  0.000  0.026  0.027
    2  0.001  0.000  0.008  0.009
    3  0.001  0.000  0.008  0.009
    4  0.001  0.000  0.008  0.009
    5  0.000  0.000  0.000  0.000
    6  0.001  0.000  0.008  0.009
    7  0.001  0.000  0.008  0.009
    8  0.001  0.000  0.008  0.009
    9  0.006  0.001  0.000  0.007
   10  0.006  0.000  0.083  0.089
   11  0.002  0.000  0.040  0.043
   12  0.005  0.000  0.084  0.089
   13  0.002  0.000  0.040  0.043
   14  0.002  0.000  0.039  0.042
   15  0.006  0.001  0.007  0.014
   16  0.005  0.000  0.084  0.089
   17  0.006  0.001  0.007  0.014
   18  0.007  0.001  0.008  0.015
   19  0.000  0.000  0.028  0.029
   20  0.000  0.001  0.015  0.016
   21  0.000  0.001  0.015  0.016
   22  0.000  0.000  0.023  0.024
   23  0.000  0.001  0.015  0.016
   24  0.000  0.000  0.023  0.023
   25  0.000  0.000  0.028  0.029
   26  0.000  0.000  0.028  0.029
   27  0.000  0.000  0.023  0.024
   28  0.007  0.000  0.010  0.017
   29  0.002  0.000  0.011  0.013
   30  0.002  0.000  0.011  0.013
   31  0.002  0.000  0.011  0.013
   32  0.001  0.000  0.011  0.013
   33  0.002  0.000  0.011  0.013
   34  0.001  0.000  0.011  0.013
   35  0.001  0.000  0.007  0.008
   36  0.000  0.000  0.001  0.001
   37  0.000  0.001  0.000  0.001
tot    0.075  0.009  0.751  0.835
 
band    14 # energy   -5.02114643 # occ.  2.00000000
 
ion      s      p      d    tot
    1  0.000  0.000  0.015  0.015
    2  0.002  0.000  0.005  0.007
    3  0.000  0.000  0.010  0.010
    4  0.002  0.000  0.005  0.007
    5  0.000  0.000  0.004  0.004
    6  0.002  0.001  0.007  0.009
    7  0.000  0.000  0.010  0.010
    8  0.002  0.001  0.007  0.009
    9  0.000  0.000  0.008  0.008
   10  0.000  0.000  0.053  0.054
   11  0.000  0.000  0.034  0.035
   12  0.009  0.000  0.040  0.050
   13  0.000  0.000  0.035  0.035
   14  0.000  0.000  0.020  0.021
   15  0.009  0.000  0.035  0.044
   16  0.009  0.000  0.041  0.050
   17  0.009  0.000  0.033  0.043
   18  0.000  0.000  0.120  0.120
   19  0.001  0.000  0.028  0.029
   20  0.000  0.000  0.037  0.037
   21  0.001  0.000  0.015  0.017
   22  0.000  0.000  0.030  0.030
   23  0.001  0.000  0.016  0.018
   24  0.000  0.000  0.010  0.010
   25  0.000  0.000  0.046  0.046
   26  0.001  0.000  0.028  0.029
   27  0.000  0.000  0.030  0.030
   28  0.000  0.000  0.015  0.015
   29  0.000  0.000  0.006  0.007
   30  0.002  0.000  0.005  0.008
   31  0.001  0.000  0.006  0.007
   32  0.001  0.000  0.004  0.005
   33  0.002  0.000  0.005  0.008
   34  0.001  0.000  0.004  0.005
   35  0.000  0.000  0.007  0.007
   36  0.000  0.000  0.003  0.003
   37  0.000  0.000  0.000  0.000
tot    0.057  0.008  0.777  0.842
 
band    15 # energy   -5.02110720 # occ.  2.00000000
 
ion      s      p      d    tot
    1  0.000  0.000  0.014  0.015
    2  0.000  0.000  0.010  0.011
    3  0.002  0.001  0.005  0.007
    4  0.000  0.000  0.010  0.011
    5  0.000  0.000  0.004  0.004
    6  0.001  0.000  0.007  0.008
    7  0.002  0.001  0.005  0.007
    8  0.001  0.000  0.008  0.008
    9  0.000  0.000  0.008  0.008
   10  0.012  0.000  0.037  0.049
   11  0.000  0.000  0.025  0.025
   12  0.003  0.000  0.048  0.052
   13  0.000  0.000  0.025  0.025
   14  0.000  0.000  0.040  0.040
   15  0.003  0.000  0.090  0.094
   16  0.003  0.000  0.048  0.052
   17  0.003  0.000  0.092  0.095
   18  0.012  0.000  0.005  0.018
   19  0.000  0.000  0.040  0.041
   20  0.002  0.000  0.009  0.011
   21  0.000  0.000  0.030  0.031
   22  0.000  0.000  0.016  0.016
   23  0.000  0.000  0.030  0.030
   24  0.000  0.000  0.038  0.038
   25  0.001  0.000  0.021  0.023
   26  0.000  0.000  0.041  0.041
   27  0.000  0.000  0.017  0.017
   28  0.000  0.000  0.015  0.015
   29  0.002  0.000  0.004  0.007
   30  0.000  0.000  0.005  0.005
   31  0.002  0.000  0.004  0.007
   32  0.002  0.000  0.006  0.008
   33  0.000  0.000  0.005  0.005
   34  0.002  0.000  0.006  0.008
   35  0.000  0.000  0.007  0.007
   36  0.000  0.000  0.003  0.003
   37  0.000  0.000  0.000  0.000
tot    0.056  0.008  0.778  0.842
 
band    16 # energy   -5.01643552 # occ.  2.00000000
 
ion      s      p      d    tot
    1  0.000  0.000  0.006  0.007
    2  0.003  0.000  0.005  0.009
    3  0.000  0.000  0.009  0.010
    4  0.003  0.000  0.005  0.009
    5  0.000  0.000  0.011  0.011
    6  0.002  0.001  0.007  0.010
    7  0.000  0.000  0.009  0.010
    8  0.002  0.001  0.008  0.010
    9  0.000  0.000  0.014  0.014
   10  0.008  0.000  0.012  0.021
   11  0.003  0.000  0.054  0.058
   12  0.002  0.000  0.051  0.053
   13  0.003  0.000  0.054  0.057
   14  0.012  0.000  0.015  0.027
   15  0.000  0.000  0.020  0.021
   16  0.002  0.000  0.051  0.053
   17  0.000  0.000  0.021  0.021
   18  0.000  0.000  0.044  0.045
   19  0.001  0.000  0.041  0.043
   20  0.000  0.000  0.045  0.045
   21  0.000  0.000  0.028  0.028
   22  0.002  0.000  0.046  0.048
   23  0.000  0.000  0.028  0.028
   24  0.008  0.000  0.016  0.024
   25  0.006  0.000  0.012  0.017
   26  0.001  0.000  0.041  0.043
   27  0.002  0.000  0.046  0.049
   28  0.000  0.000  0.004  0.004
   29  0.000  0.000  0.009  0.009
   30  0.003  0.000  0.003  0.006
   31  0.000  0.000  0.009  0.009
   32  0.001  0.001  0.008  0.009
   33  0.003  0.000  0.003  0.006
   34  0.001  0.001  0.008  0.009
   35  0.000  0.000  0.009  0.010
   36  0.000  0.000  0.007  0.007
   37  0.000  0.000  0.000  0.000
tot    0.070  0.008  0.759  0.838
 
band    17 # energy   -5.01640478 # occ.  2.00000000
 
ion      s      p      d    tot
    1  0.000  0.000  0.006  0.007
    2  0.000  0.000  0.010  0.010
    3  0.003  0.001  0.005  0.009
    4  0.000  0.000  0.010  0.010
    5  0.000  0.000  0.011  0.011
    6  0.002  0.000  0.007  0.009
    7  0.003  0.001  0.005  0.009
    8  0.002  0.000  0.007  0.009
    9  0.000  0.000  0.014  0.014
   10  0.000  0.000  0.063  0.063
   11  0.009  0.000  0.028  0.037
   12  0.006  0.000  0.025  0.032
   13  0.009  0.000  0.028  0.037
   14  0.000  0.000  0.068  0.068
   15  0.000  0.000  0.037  0.037
   16  0.006  0.000  0.025  0.031
   17  0.000  0.000  0.036  0.037
   18  0.000  0.000  0.012  0.013
   19  0.004  0.000  0.021  0.026
   20  0.000  0.000  0.022  0.022
   21  0.000  0.000  0.039  0.039
   22  0.006  0.000  0.026  0.032
   23  0.000  0.000  0.039  0.040
   24  0.000  0.000  0.057  0.057
   25  0.000  0.000  0.051  0.051
   26  0.004  0.000  0.022  0.026
   27  0.006  0.000  0.026  0.032
   28  0.000  0.000  0.004  0.004
   29  0.003  0.001  0.004  0.007
   30  0.000  0.000  0.010  0.010
   31  0.003  0.001  0.004  0.007
   32  0.002  0.000  0.006  0.007
   33  0.000  0.000  0.010  0.010
   34  0.001  0.000  0.006  0.007
   35  0.000  0.000  0.010  0.010
   36  0.000  0.000  0.007  0.007
   37  0.000  0.000  0.000  0.000
tot    0.070  0.008  0.760  0.838
 
band    18 # energy   -4.90659594 # occ.  2.00000000
 
ion      s      p      d    tot
    1  0.000  0.000  0.000  0.000
    2  0.000  0.000  0.006  0.007
    3  0.000  0.000  0.006  0.007
    4  0.000  0.000  0.006  0.007
    5  0.001  0.000  0.008  0.009
    6  0.000  0.000  0.006  0.007
    7  0.000  0.000  0.006  0.007
    8  0.000  0.000  0.006  0.007
    9  0.000  0.000  0.010  0.010
   10  0.001  0.000  0.001  0.002
   11  0.000  0.001  0.059  0.060
   12  0.001  0.000  0.001  0.002
   13  0.000  0.001  0.059  0.060
   14  0.000  0.001  0.059  0.060
   15  0.002  0.001  0.040  0.043
   16  0.001  0.000  0.001  0.002
   17  0.002  0.001  0.040  0.043
   18  0.002  0.001  0.040  0.043
   19  0.001  0.000  0.026  0.027
   20  0.004  0.001  0.046  0.051
   21  0.004  0.001  0.046  0.050
   22  0.005  0.001  0.024  0.030
   23  0.004  0.001  0.046  0.050
   24  0.005  0.001  0.024  0.030
   25  0.001  0.000  0.026  0.027
   26  0.001  0.000  0.026  0.027
   27  0.005  0.001  0.024  0.030
   28  0.004  0.000  0.003  0.008
   29  0.000  0.001  0.016  0.016
   30  0.000  0.001  0.016  0.016
   31  0.000  0.001  0.016  0.016
   32  0.000  0.001  0.016  0.016
   33  0.000  0.001  0.016  0.016
   34  0.000  0.001  0.016  0.016
   35  0.002  0.000  0.002  0.004
   36  0.004  0.000  0.020  0.024
   37  0.002  0.019  0.000  0.021
tot    0.052  0.033  0.768  0.853
 
band    19 # energy   -4.88087254 # occ.  2.00000000
 
ion      s      p      d    tot
    1  0.000  0.000  0.003  0.003
    2  0.001  0.001  0.008  0.009
    3  0.000  0.000  0.006  0.007
    4  0.001  0.001  0.008  0.009
    5  0.000  0.000  0.009  0.009
    6  0.002  0.001  0.004  0.007
    7  0.000  0.000  0.006  0.007
    8  0.002  0.001  0.004  0.007
    9  0.000  0.001  0.013  0.013
   10  0.000  0.001  0.028  0.029
   11  0.000  0.000  0.051  0.052
   12  0.000  0.000  0.007  0.007
   13  0.000  0.000  0.051  0.052
   14  0.001  0.000  0.033  0.035
   15  0.000  0.000  0.042  0.042
   16  0.000  0.000  0.007  0.007
   17  0.000  0.000  0.042  0.042
   18  0.002  0.000  0.036  0.038
   19  0.000  0.000  0.009  0.009
   20  0.002  0.000  0.065  0.067
   21  0.000  0.000  0.068  0.069
   22  0.000  0.000  0.059  0.059
   23  0.000  0.000  0.068  0.069
   24  0.000  0.000  0.025  0.026
   25  0.000  0.001  0.027  0.028
   26  0.000  0.000  0.009  0.009
   27  0.000  0.000  0.059  0.059
   28  0.000  0.000  0.001  0.001
   29  0.000  0.000  0.009  0.009
   30  0.001  0.001  0.009  0.011
   31  0.000  0.000  0.009  0.009
   32  0.001  0.001  0.008  0.009
   33  0.001  0.001  0.009  0.011
   34  0.001  0.001  0.008  0.009
   35  0.000  0.000  0.004  0.005
   36  0.000  0.001  0.028  0.029
   37  0.000  0.007  0.000  0.007
tot    0.020  0.020  0.831  0.870
 
band    20 # energy   -4.88083338 # occ.  2.00000000
 
ion      s      p      d    tot
    1  0.000  0.000  0.003  0.003
    2  0.001  0.000  0.004  0.006
    3  0.002  0.001  0.006  0.009
    4  0.001  0.000  0.004  0.006
    5  0.000  0.000  0.009  0.009
    6  0.000  0.000  0.008  0.008
    7  0.002  0.001  0.006  0.009
    8  0.000  0.000  0.008  0.008
    9  0.000  0.001  0.013  0.013
   10  0.000  0.000  0.000  0.000
   11  0.001  0.000  0.039  0.040
   12  0.000  0.001  0.021  0.022
   13  0.001  0.000  0.039  0.041
   14  0.000  0.000  0.057  0.057
   15  0.001  0.000  0.038  0.039
   16  0.000  0.001  0.021  0.022
   17  0.001  0.000  0.038  0.039
   18  0.000  0.000  0.044  0.044
   19  0.000  0.001  0.021  0.022
   20  0.000  0.000  0.070  0.070
   21  0.001  0.000  0.066  0.067
   22  0.000  0.000  0.037  0.037
   23  0.001  0.000  0.066  0.067
   24  0.000  0.000  0.070  0.070
   25  0.000  0.000  0.003  0.003
   26  0.000  0.001  0.021  0.021
   27  0.000  0.000  0.036  0.037
   28  0.000  0.000  0.001  0.001
   29  0.001  0.001  0.009  0.011
   30  0.000  0.000  0.008  0.008
   31  0.001  0.001  0.009  0.011
   32  0.000  0.000  0.010  0.010
   33  0.000  0.000  0.008  0.008
   34  0.000  0.000  0.010  0.010
   35  0.000  0.000  0.004  0.005
   36  0.000  0.001  0.028  0.029
   37  0.000  0.007  0.000  0.007
tot    0.020  0.020  0.831  0.870
 
band    21 # energy   -4.85673182 # occ.  2.00000000
 
ion      s      p      d    tot
    1  0.000  0.000  0.005  0.005
    2  0.000  0.001  0.012  0.012
    3  0.000  0.001  0.012  0.012
    4  0.000  0.001  0.012  0.012
    5  0.004  0.001  0.000  0.005
    6  0.000  0.001  0.012  0.012
    7  0.000  0.001  0.012  0.012
    8  0.000  0.001  0.012  0.012
    9  0.003  0.001  0.001  0.004
   10  0.002  0.001  0.038  0.041
   11  0.000  0.000  0.039  0.039
   12  0.002  0.001  0.038  0.041
   13  0.000  0.000  0.039  0.039
   14  0.000  0.000  0.038  0.039
   15  0.003  0.000  0.014  0.017
   16  0.002  0.001  0.038  0.041
   17  0.003  0.000  0.014  0.017
   18  0.003  0.000  0.014  0.017
   19  0.001  0.000  0.054  0.056
   20  0.001  0.000  0.016  0.018
   21  0.001  0.000  0.016  0.017
   22  0.000  0.001  0.041  0.042
   23  0.001  0.000  0.016  0.017
   24  0.000  0.001  0.041  0.042
   25  0.001  0.000  0.054  0.056
   26  0.001  0.000  0.054  0.056
   27  0.000  0.001  0.041  0.042
   28  0.000  0.000  0.018  0.019
   29  0.000  0.001  0.013  0.014
   30  0.000  0.001  0.013  0.014
   31  0.000  0.001  0.013  0.014
   32  0.000  0.001  0.013  0.014
   33  0.000  0.001  0.013  0.014
   34  0.000  0.001  0.013  0.014
   35  0.009  0.001  0.000  0.011
   36  0.002  0.000  0.003  0.005