PROCAR new format
# of k-points:   10         # of bands:  252         # of ions:   37

 k-point     1 :    0.00000000 0.00000000 0.00000000     weight = 0.01562500

band     1 # energy  -47.99549055 # occ.  2.00000000
 
ion      s      p      d    tot
    1  0.000  0.000  0.000  0.000
    2  0.000  0.000  0.000  0.000
    3  0.000  0.000  0.000  0.000
    4  0.000  0.000  0.000  0.000
    5  0.000  0.000  0.000  0.000
    6  0.000  0.000  0.000  0.000
    7  0.000  0.000  0.000  0.000
    8  0.000  0.000  0.000  0.000
    9  0.000  0.000  0.000  0.000
   10  0.000  0.000  0.000  0.000
   11  0.000  0.000  0.000  0.000
   12  0.000  0.000  0.000  0.000
   13  0.000  0.000  0.000  0.000
   14  0.000  0.000  0.000  0.000
   15  0.000  0.000  0.000  0.000
   16  0.000  0.000  0.000  0.000
   17  0.000  0.000  0.000  0.000
   18  0.000  0.000  0.000  0.000
   19  0.000  0.000  0.000  0.000
   20  0.000  0.000  0.000  0.000
   21  0.000  0.000  0.000  0.000
   22  0.000  0.000  0.000  0.000
   23  0.000  0.000  0.000  0.000
   24  0.000  0.000  0.000  0.000
   25  0.000  0.000  0.000  0.000
   26  0.000  0.000  0.000  0.000
   27  0.000  0.000  0.000  0.000
   28  0.000  0.000  0.000  0.000
   29  0.000  0.000  0.000  0.000
   30  0.000  0.000  0.000  0.000
   31  0.000  0.000  0.000  0.000
   32  0.000  0.000  0.000  0.000
   33  0.000  0.000  0.000  0.000
   34  0.000  0.000  0.000  0.000
   35  0.000  0.000  0.000  0.000
   36  0.991  0.000  0.000  0.991
   37  0.001  0.001  0.000  0.003
tot    0.993  0.001  0.000  0.994
 
band     2 # energy  -26.56715783 # occ.  2.00000000
 
ion      s      p      d    tot
    1  0.000  0.000  0.000  0.000
    2  0.000  0.000  0.000  0.000
    3  0.000  0.000  0.000  0.000
    4  0.000  0.000  0.000  0.000
    5  0.000  0.000  0.000  0.000
    6  0.000  0.000  0.000  0.000
    7  0.000  0.000  0.000  0.000
    8  0.000  0.000  0.000  0.000
    9  0.000  0.000  0.000  0.000
   10  0.000  0.000  0.000  0.000
   11  0.000  0.000  0.000  0.000
   12  0.000  0.000  0.000  0.000
   13  0.000  0.000  0.000  0.000
   14  0.000  0.000  0.000  0.000
   15  0.000  0.000  0.000  0.000
   16  0.000  0.000  0.000  0.000
   17  0.000  0.000  0.000  0.000
   18  0.000  0.000  0.000  0.000
   19  0.000  0.000  0.000  0.000
   20  0.000  0.000  0.000  0.001
   21  0.000  0.000  0.000  0.001
   22  0.000  0.000  0.000  0.000
   23  0.000  0.000  0.000  0.001
   24  0.000  0.000  0.000  0.000
   25  0.000  0.000  0.000  0.000
   26  0.000  0.000  0.000  0.000
   27  0.000  0.000  0.000  0.000
   28  0.000  0.000  0.000  0.000
   29  0.000  0.000  0.000  0.000
   30  0.000  0.000  0.000  0.000
   31  0.000  0.000  0.000  0.000
   32  0.000  0.000  0.000  0.000
   33  0.000  0.000  0.000  0.000
   34  0.000  0.000  0.000  0.000
   35  0.000  0.000  0.000  0.000
   36  0.000  0.908  0.002  0.911
   37  0.049  0.017  0.000  0.065
tot    0.049  0.925  0.003  0.978
 
band     3 # energy  -26.15455614 # occ.  2.00000000
 
ion      s      p      d    tot
    1  0.000  0.000  0.000  0.000
    2  0.000  0.000  0.000  0.000
    3  0.000  0.000  0.000  0.000
    4  0.000  0.000  0.000  0.000
    5  0.000  0.000  0.000  0.000
    6  0.000  0.000  0.000  0.000
    7  0.000  0.000  0.000  0.000
    8  0.000  0.000  0.000  0.000
    9  0.000  0.000  0.000  0.000
   10  0.000  0.000  0.000  0.000
   11  0.000  0.000  0.000  0.000
   12  0.000  0.000  0.000  0.000
   13  0.000  0.000  0.000  0.000
   14  0.000  0.000  0.000  0.000
   15  0.000  0.000  0.000  0.000
   16  0.000  0.000  0.000  0.000
   17  0.000  0.000  0.000  0.000
   18  0.000  0.000  0.000  0.000
   19  0.000  0.000  0.000  0.000
   20  0.000  0.000  0.000  0.000
   21  0.000  0.000  0.000  0.000
   22  0.000  0.000  0.000  0.000
   23  0.000  0.000  0.000  0.000
   24  0.000  0.000  0.000  0.000
   25  0.000  0.000  0.000  0.000
   26  0.000  0.000  0.000  0.000
   27  0.000  0.000  0.000  0.000
   28  0.000  0.000  0.000  0.000
   29  0.000  0.000  0.000  0.000
   30  0.000  0.000  0.000  0.001
   31  0.000  0.000  0.000  0.000
   32  0.000  0.000  0.000  0.000
   33  0.000  0.000  0.000  0.001
   34  0.000  0.000  0.000  0.000
   35  0.000  0.000  0.000  0.000
   36  0.000  0.968  0.000  0.968
   37  0.000  0.001  0.000  0.001
tot    0.001  0.970  0.001  0.972
 
band     4 # energy  -26.15454378 # occ.  2.00000000
 
ion      s      p      d    tot
    1  0.000  0.000  0.000  0.000
    2  0.000  0.000  0.000  0.000
    3  0.000  0.000  0.000  0.000
    4  0.000  0.000  0.000  0.000
    5  0.000  0.000  0.000  0.000
    6  0.000  0.000  0.000  0.000
    7  0.000  0.000  0.000  0.000
    8  0.000  0.000  0.000  0.000
    9  0.000  0.000  0.000  0.000
   10  0.000  0.000  0.000  0.000
   11  0.000  0.000  0.000  0.000
   12  0.000  0.000  0.000  0.000
   13  0.000  0.000  0.000  0.000
   14  0.000  0.000  0.000  0.000
   15  0.000  0.000  0.000  0.000
   16  0.000  0.000  0.000  0.000
   17  0.000  0.000  0.000  0.000
   18  0.000  0.000  0.000  0.000
   19  0.000  0.000  0.000  0.000
   20  0.000  0.000  0.000  0.000
   21  0.000  0.000  0.000  0.000
   22  0.000  0.000  0.000  0.000
   23  0.000  0.000  0.000  0.000
   24  0.000  0.000  0.000  0.000
   25  0.000  0.000  0.000  0.000
   26  0.000  0.000  0.000  0.000
   27  0.000  0.000  0.000  0.000
   28  0.000  0.000  0.000  0.000
   29  0.000  0.000  0.000  0.001
   30  0.000  0.000  0.000  0.000
   31  0.000  0.000  0.000  0.001
   32  0.000  0.000  0.000  0.001
   33  0.000  0.000  0.000  0.000
   34  0.000  0.000  0.000  0.001
   35  0.000  0.000  0.000  0.000
   36  0.000  0.968  0.000  0.968
   37  0.000  0.001  0.000  0.001
tot    0.001  0.970  0.001  0.972
 
band     5 # energy  -15.30629305 # occ.  2.00000000
 
ion      s      p      d    tot
    1  0.000  0.000  0.000  0.000
    2  0.000  0.000  0.000  0.000
    3  0.000  0.000  0.000  0.000
    4  0.000  0.000  0.000  0.000
    5  0.000  0.000  0.000  0.000
    6  0.000  0.000  0.000  0.000
    7  0.000  0.000  0.000  0.000
    8  0.000  0.000  0.000  0.000
    9  0.000  0.000  0.000  0.000
   10  0.000  0.000  0.000  0.000
   11  0.000  0.000  0.000  0.000
   12  0.000  0.000  0.000  0.000
   13  0.000  0.000  0.000  0.000
   14  0.000  0.000  0.000  0.000
   15  0.000  0.000  0.000  0.000
   16  0.000  0.000  0.000  0.000
   17  0.000  0.000  0.000  0.000
   18  0.000  0.000  0.000  0.000
   19  0.000  0.000  0.000  0.000
   20  0.000  0.000  0.000  0.001
   21  0.000  0.000  0.000  0.001
   22  0.000  0.000  0.000  0.000
   23  0.000  0.000  0.000  0.001
   24  0.000  0.000  0.000  0.000
   25  0.000  0.000  0.000  0.000
   26  0.000  0.000  0.000  0.000
   27  0.000  0.000  0.000  0.000
   28  0.000  0.000  0.000  0.000
   29  0.000  0.000  0.000  0.000
   30  0.000  0.000  0.000  0.000
   31  0.000  0.000  0.000  0.000
   32  0.000  0.000  0.000  0.000
   33  0.000  0.000  0.000  0.000
   34  0.000  0.000  0.000  0.000
   35  0.000  0.000  0.000  0.000
   36  0.016  0.067  0.053  0.135
   37  0.736  0.003  0.000  0.739
tot    0.753  0.070  0.053  0.876
 
band     6 # energy   -8.14070462 # occ.  2.00000000
 
ion      s      p      d    tot
    1  0.007  0.001  0.000  0.007
    2  0.007  0.001  0.000  0.007
    3  0.007  0.001  0.000  0.007
    4  0.007  0.001  0.000  0.007
    5  0.007  0.001  0.000  0.007
    6  0.007  0.001  0.000  0.007
    7  0.007  0.001  0.000  0.007
    8  0.007  0.001  0.000  0.007
    9  0.007  0.001  0.000  0.007
   10  0.027  0.000  0.000  0.027
   11  0.028  0.000  0.000  0.028
   12  0.027  0.000  0.000  0.027
   13  0.028  0.000  0.000  0.028
   14  0.028  0.000  0.000  0.028
   15  0.026  0.000  0.000  0.027
   16  0.027  0.000  0.000  0.027
   17  0.026  0.000  0.000  0.027
   18  0.026  0.000  0.000  0.027
   19  0.023  0.000  0.000  0.024
   20  0.026  0.000  0.000  0.026
   21  0.026  0.000  0.000  0.026
   22  0.024  0.000  0.000  0.024
   23  0.026  0.000  0.000  0.026
   24  0.024  0.000  0.000  0.024
   25  0.023  0.000  0.000  0.024
   26  0.023  0.000  0.000  0.024
   27  0.024  0.000  0.000  0.024
   28  0.005  0.000  0.000  0.005
   29  0.004  0.000  0.000  0.005
   30  0.004  0.000  0.000  0.005
   31  0.004  0.000  0.000  0.005
   32  0.004  0.000  0.000  0.005
   33  0.004  0.000  0.000  0.005
   34  0.004  0.000  0.000  0.005
   35  0.005  0.000  0.000  0.005
   36  0.002  0.001  0.000  0.002
   37  0.000  0.000  0.000  0.000
tot    0.562  0.012  0.004  0.577
 
band     7 # energy   -6.96645528 # occ.  2.00000000
 
ion      s      p      d    tot
    1  0.017  0.000  0.001  0.018
    2  0.016  0.000  0.001  0.018
    3  0.016  0.000  0.001  0.018
    4  0.016  0.000  0.001  0.018
    5  0.016  0.000  0.001  0.018
    6  0.016  0.000  0.001  0.018
    7  0.016  0.000  0.001  0.018
    8  0.016  0.000  0.001  0.018
    9  0.016  0.000  0.001  0.018
   10  0.010  0.001  0.002  0.014
   11  0.010  0.002  0.003  0.014
   12  0.010  0.001  0.002  0.014
   13  0.010  0.002  0.003  0.014
   14  0.010  0.002  0.003  0.014
   15  0.010  0.001  0.002  0.014
   16  0.010  0.001  0.002  0.014
   17  0.010  0.001  0.002  0.014
   18  0.010  0.001  0.002  0.014
   19  0.014  0.001  0.003  0.018
   20  0.015  0.001  0.004  0.020
   21  0.015  0.001  0.004  0.020
   22  0.015  0.001  0.003  0.019
   23  0.015  0.001  0.004  0.020
   24  0.015  0.001  0.003  0.019
   25  0.014  0.001  0.003  0.018
   26  0.014  0.001  0.003  0.018
   27  0.015  0.001  0.003  0.019
   28  0.016  0.000  0.001  0.017
   29  0.014  0.001  0.001  0.016
   30  0.014  0.001  0.001  0.016
   31  0.014  0.001  0.001  0.016
   32  0.014  0.001  0.001  0.016
   33  0.014  0.001  0.001  0.016
   34  0.014  0.001  0.001  0.016
   35  0.016  0.000  0.001  0.017
   36  0.004  0.001  0.000  0.005
   37  0.000  0.000  0.000  0.001
tot    0.489  0.031  0.073  0.593
 
band     8 # energy   -6.05526463 # occ.  2.00000000
 
ion      s      p      d    tot
    1  0.002  0.000  0.010  0.012
    2  0.008  0.000  0.007  0.016
    3  0.008  0.000  0.007  0.016
    4  0.008  0.000  0.007  0.016
    5  0.005  0.000  0.006  0.010
    6  0.008  0.000  0.007  0.016
    7  0.008  0.000  0.007  0.016
    8  0.008  0.000  0.007  0.016
    9  0.023  0.000  0.003  0.027
   10  0.007  0.001  0.009  0.016
   11  0.008  0.002  0.005  0.014
   12  0.007  0.001  0.009  0.016
   13  0.008  0.002  0.005  0.014
   14  0.008  0.002  0.005  0.014
   15  0.003  0.001  0.007  0.011
   16  0.007  0.001  0.009  0.016
   17  0.003  0.001  0.007  0.011
   18  0.003  0.001  0.007  0.011
   19  0.001  0.001  0.015  0.017
   20  0.021  0.002  0.013  0.035
   21  0.021  0.002  0.013  0.035
   22  0.001  0.001  0.007  0.010
   23  0.021  0.002  0.013  0.035
   24  0.001  0.001  0.007  0.010
   25  0.001  0.001  0.015  0.017
   26  0.001  0.001  0.015  0.017
   27  0.001  0.001  0.007  0.010
   28  0.019  0.000  0.006  0.025
   29  0.015  0.000  0.012  0.026
   30  0.015  0.000  0.012  0.026
   31  0.015  0.000  0.012  0.026
   32  0.015  0.000  0.012  0.026
   33  0.015  0.000  0.012  0.026
   34  0.015  0.000  0.012  0.026
   35  0.028  0.000  0.008  0.036
   36  0.000  0.001  0.008  0.009
   37  0.000  0.001  0.000  0.001
tot    0.335  0.027  0.319  0.682
 
band     9 # energy   -6.01701737 # occ.  2.00000000
 
ion      s      p      d    tot
    1  0.000  0.000  0.008  0.009
    2  0.004  0.001  0.004  0.008
    3  0.006  0.001  0.003  0.011
    4  0.004  0.001  0.004  0.008
    5  0.000  0.001  0.007  0.008
    6  0.000  0.000  0.003  0.003
    7  0.006  0.001  0.003  0.011
    8  0.000  0.000  0.003  0.003
    9  0.000  0.000  0.001  0.001
   10  0.000  0.000  0.036  0.036
   11  0.037  0.001  0.015  0.054
   12  0.028  0.002  0.012  0.042
   13  0.038  0.001  0.015  0.054
   14  0.000  0.004  0.022  0.026
   15  0.001  0.001  0.010  0.012
   16  0.028  0.002  0.012  0.042
   17  0.001  0.001  0.010  0.012
   18  0.000  0.003  0.005  0.009
   19  0.009  0.001  0.011  0.021
   20  0.000  0.002  0.040  0.042
   21  0.047  0.002  0.017  0.065
   22  0.011  0.001  0.011  0.023
   23  0.046  0.002  0.017  0.065
   24  0.000  0.001  0.026  0.026
   25  0.000  0.004  0.003  0.008
   26  0.009  0.001  0.011  0.021
   27  0.011  0.001  0.011  0.023
   28  0.000  0.000  0.001  0.002
   29  0.000  0.000  0.002  0.003
   30  0.004  0.001  0.003  0.008
   31  0.000  0.000  0.002  0.003
   32  0.005  0.001  0.004  0.009
   33  0.004  0.001  0.003  0.008
   34  0.005  0.001  0.004  0.009
   35  0.000  0.000  0.004  0.004
   36  0.000  0.001  0.004  0.005
   37  0.000  0.000  0.000  0.000
tot    0.303  0.042  0.345  0.690
 
band    10 # energy   -6.01697818 # occ.  2.00000000
 
ion      s      p      d    tot
    1  0.000  0.000  0.008  0.009
    2  0.003  0.001  0.003  0.007
    3  0.001  0.000  0.003  0.004
    4  0.003  0.001  0.003  0.007
    5  0.000  0.001  0.007  0.008
    6  0.007  0.001  0.004  0.011
    7  0.000  0.000  0.003  0.004
    8  0.007  0.001  0.004  0.011
    9  0.000  0.000  0.001  0.001
   10  0.038  0.002  0.004  0.044
   11  0.013  0.003  0.020  0.035
   12  0.009  0.001  0.028  0.038
   13  0.012  0.003  0.020  0.035
   14  0.050  0.001  0.012  0.063
   15  0.000  0.003  0.007  0.010
   16  0.010  0.001  0.028  0.038
   17  0.000  0.003  0.007  0.010
   18  0.001  0.000  0.012  0.013
   19  0.003  0.003  0.006  0.012
   20  0.062  0.001  0.009  0.072
   21  0.015  0.002  0.032  0.050
   22  0.004  0.001  0.021  0.025
   23  0.016  0.002  0.032  0.050
   24  0.015  0.002  0.006  0.022
   25  0.012  0.000  0.013  0.025
   26  0.003  0.003  0.006  0.012
   27  0.004  0.001  0.021  0.025
   28  0.000  0.000  0.001  0.002
   29  0.006  0.001  0.004  0.010
   30  0.002  0.000  0.003  0.005
   31  0.006  0.001  0.004  0.010
   32  0.001  0.000  0.002  0.004
   33  0.002  0.000  0.003  0.005
   34  0.001  0.000  0.002  0.004
   35  0.000  0.000  0.004  0.004
   36  0.000  0.001  0.004  0.005
   37  0.000  0.000  0.000  0.000
tot    0.303  0.042  0.345  0.690
 
band    11 # energy   -6.01001512 # occ.  2.00000000
 
ion      s      p      d    tot
    1  0.020  0.000  0.012  0.032
    2  0.014  0.000  0.015  0.029
    3  0.014  0.000  0.015  0.029
    4  0.014  0.000  0.015  0.029
    5  0.017  0.000  0.015  0.033
    6  0.014  0.000  0.015  0.029
    7  0.014  0.000  0.015  0.029
    8  0.014  0.000  0.015  0.029
    9  0.006  0.000  0.018  0.024
   10  0.003  0.000  0.030  0.034
   11  0.003  0.000  0.026  0.029
   12  0.003  0.000  0.030  0.034
   13  0.003  0.000  0.026  0.029
   14  0.003  0.000  0.026  0.029
   15  0.020  0.001  0.019  0.039
   16  0.003  0.000  0.030  0.034
   17  0.020  0.001  0.019  0.039
   18  0.020  0.001  0.019  0.039
   19  0.001  0.000  0.013  0.015
   20  0.010  0.000  0.014  0.024
   21  0.010  0.000  0.014  0.024
   22  0.000  0.001  0.011  0.011
   23  0.010  0.000  0.014  0.024
   24  0.000  0.001  0.011  0.011
   25  0.001  0.000  0.013  0.015
   26  0.001  0.000  0.013  0.015
   27  0.000  0.001  0.011  0.011
   28  0.001  0.000  0.001  0.001
   29  0.001  0.000  0.002  0.003
   30  0.001  0.000  0.002  0.003
   31  0.001  0.000  0.002  0.003
   32  0.001  0.000  0.002  0.003
   33  0.001  0.000  0.002  0.003
   34  0.001  0.000  0.002  0.003
   35  0.003  0.000  0.001  0.004
   36  0.000  0.000  0.002  0.002
   37  0.000  0.000  0.000  0.001
tot    0.243  0.009  0.491  0.743
 
band    12 # energy   -5.98623461 # occ.  2.00000000
 
ion      s      p      d    tot
    1  0.011  0.001  0.000  0.013
    2  0.000  0.001  0.006  0.006
    3  0.000  0.001  0.006  0.006
    4  0.000  0.001  0.006  0.006
    5  0.013  0.002  0.002  0.016
    6  0.000  0.001  0.006  0.006
    7  0.000  0.001  0.006  0.006
    8  0.000  0.001  0.006  0.006
    9  0.000  0.000  0.001  0.001
   10  0.025  0.003  0.002  0.030
   11  0.021  0.001  0.022  0.044
   12  0.025  0.003  0.002  0.030
   13  0.021  0.001  0.022  0.044
   14  0.021  0.001  0.022  0.044
   15  0.000  0.001  0.021  0.023
   16  0.025  0.003  0.002  0.030
   17  0.000  0.001  0.021  0.023
   18  0.000  0.001  0.021  0.023
   19  0.025  0.003  0.004  0.031
   20  0.003  0.002  0.022  0.028
   21  0.004  0.002  0.022  0.028
   22  0.012  0.000  0.025  0.036
   23  0.004  0.002  0.022  0.028
   24  0.012  0.000  0.025  0.037
   25  0.025  0.003  0.004  0.031
   26  0.025  0.003  0.004  0.031
   27  0.012  0.000  0.025  0.036
   28  0.013  0.001  0.000  0.014
   29  0.000  0.000  0.004  0.005
   30  0.000  0.000  0.004  0.005
   31  0.000  0.000  0.004  0.005
   32  0.000  0.000  0.004  0.005
   33  0.000  0.000  0.004  0.005
   34  0.000  0.000  0.004  0.005
   35  0.004  0.001  0.003  0.008
   36  0.000  0.000  0.000  0.000
   37  0.000  0.000  0.000  0.000
tot    0.297  0.040  0.357  0.695
 
band    13 # energy   -5.95556862 # occ.  2.00000000
 
ion      s      p      d    tot
    1  0.000  0.001  0.003  0.004
    2  0.004  0.001  0.004  0.009
    3  0.008  0.001  0.004  0.013
    4  0.004  0.001  0.004  0.009
    5  0.000  0.000  0.005  0.005
    6  0.001  0.000  0.003  0.004
    7  0.008  0.001  0.004  0.013
    8  0.001  0.000  0.003  0.004
    9  0.000  0.001  0.011  0.012
   10  0.023  0.000  0.017  0.040
   11  0.003  0.001  0.022  0.025
   12  0.006  0.004  0.007  0.016
   13  0.002  0.001  0.022  0.025
   14  0.010  0.001  0.007  0.019
   15  0.016  0.001  0.032  0.049
   16  0.006  0.004  0.007  0.017
   17  0.015  0.001  0.032  0.049
   18  0.063  0.002  0.006  0.070
   19  0.010  0.001  0.028  0.039
   20  0.000  0.001  0.014  0.015
   21  0.000  0.002  0.011  0.013
   22  0.009  0.003  0.015  0.027
   23  0.000  0.002  0.011  0.013
   24  0.037  0.001  0.011  0.048
   25  0.040  0.002  0.003  0.045
   26  0.010  0.001  0.028  0.039
   27  0.009  0.003  0.015  0.027
   28  0.000  0.000  0.007  0.007
   29  0.000  0.000  0.002  0.002
   30  0.002  0.001  0.002  0.005
   31  0.000  0.000  0.002  0.002
   32  0.004  0.001  0.003  0.008
   33  0.002  0.001  0.002  0.005
   34  0.004  0.001  0.003  0.008
   35  0.000  0.001  0.004  0.005
   36  0.000  0.000  0.000  0.000
   37  0.000  0.000  0.000  0.000
tot    0.298  0.041  0.353  0.692
 
band    14 # energy   -5.95552671 # occ.  2.00000000
 
ion      s      p      d    tot
    1  0.000  0.001  0.003  0.004
    2  0.004  0.001  0.003  0.008
    3  0.001  0.000  0.004  0.005
    4  0.004  0.001  0.003  0.008
    5  0.000  0.000  0.005  0.005
    6  0.008  0.001  0.004  0.013
    7  0.000  0.000  0.004  0.005
    8  0.008  0.001  0.004  0.013
    9  0.000  0.001  0.011  0.012
   10  0.000  0.005  0.004  0.008
   11  0.007  0.001  0.012  0.021
   12  0.018  0.001  0.014  0.032
   13  0.008  0.001  0.012  0.021
   14  0.000  0.001  0.026  0.028
   15  0.047  0.001  0.015  0.063
   16  0.017  0.001  0.013  0.032
   17  0.047  0.001  0.014  0.063
   18  0.000  0.001  0.041  0.042
   19  0.030  0.002  0.012  0.043
   20  0.000  0.002  0.011  0.013
   21  0.000  0.001  0.013  0.014
   22  0.028  0.001  0.012  0.042
   23  0.000  0.001  0.013  0.014
   24  0.000  0.004  0.016  0.020
   25  0.000  0.000  0.036  0.037
   26  0.030  0.002  0.011  0.043
   27  0.027  0.001  0.012  0.041
   28  0.000  0.000  0.007  0.007
   29  0.004  0.001  0.002  0.007
   30  0.002  0.000  0.002  0.005
   31  0.004  0.001  0.002  0.007
   32  0.000  0.000  0.002  0.002
   33  0.002  0.000  0.003  0.005
   34  0.000  0.000  0.002  0.002
   35  0.000  0.001  0.004  0.005
   36  0.000  0.000  0.000  0.000
   37  0.000  0.000  0.000  0.000
tot    0.298  0.041  0.353  0.692
 
band    15 # energy   -5.94202922 # occ.  2.00000000
 
ion      s      p      d    tot
    1  0.003  0.000  0.001  0.004
    2  0.000  0.000  0.004  0.004
    3  0.000  0.000  0.004  0.004
    4  0.000  0.000  0.004  0.004
    5  0.004  0.000  0.000  0.005
    6  0.000  0.000  0.004  0.004
    7  0.000  0.000  0.004  0.004
    8  0.000  0.000  0.004  0.004
    9  0.008  0.001  0.001  0.010
   10  0.003  0.000  0.019  0.022
   11  0.009  0.002  0.005  0.016
   12  0.003  0.000  0.019  0.022
   13  0.009  0.002  0.005  0.016
   14  0.009  0.002  0.005  0.016
   15  0.018  0.001  0.011  0.030
   16  0.003  0.000  0.019  0.022
   17  0.018  0.001  0.011  0.030
   18  0.017  0.001  0.011  0.030
   19  0.005  0.001  0.018  0.024
   20  0.003  0.000  0.028  0.031
   21  0.003  0.000  0.028  0.031
   22  0.020  0.002  0.011  0.034
   23  0.003  0.000  0.028  0.031
   24  0.020  0.002  0.011  0.034
   25  0.005  0.001  0.018  0.024
   26  0.005  0.001  0.018  0.024
   27  0.020  0.002  0.011  0.034
   28  0.009  0.000  0.015  0.024
   29  0.012  0.000  0.011  0.024
   30  0.012  0.000  0.011  0.024
   31  0.012  0.000  0.011  0.024
   32  0.012  0.000  0.011  0.024
   33  0.012  0.000  0.011  0.024
   34  0.012  0.000  0.011  0.024
   35  0.006  0.000  0.012  0.018
   36  0.007  0.000  0.002  0.010
   37  0.000  0.000  0.000  0.000
tot    0.282  0.027  0.399  0.709
 
band    16 # energy   -5.53752824 # occ.  2.00000000
 
ion      s      p      d    tot
    1  0.011  0.002  0.002  0.015
    2  0.000  0.001  0.008  0.008
    3  0.000  0.001  0.008  0.009
    4  0.000  0.001  0.008  0.008
    5  0.001  0.000  0.002  0.002
    6  0.000  0.001  0.008  0.008
    7  0.000  0.001  0.008  0.009
    8  0.000  0.001  0.008  0.008
    9  0.017  0.002  0.000  0.019
   10  0.010  0.001  0.016  0.027
   11  0.002  0.000  0.046  0.047
   12  0.011  0.001  0.016  0.028
   13  0.002  0.000  0.046  0.047
   14  0.001  0.000  0.047  0.048
   15  0.005  0.001  0.016  0.022
   16  0.011  0.001  0.016  0.028
   17  0.005  0.001  0.016  0.022
   18  0.005  0.001  0.018  0.024
   19  0.002  0.001  0.016  0.019
   20  0.002  0.000  0.055  0.057
   21  0.002  0.000  0.055  0.057
   22  0.011  0.001  0.014  0.027
   23  0.002  0.000  0.055  0.057
   24  0.011  0.001  0.014  0.025
   25  0.002  0.001  0.018  0.021
   26  0.002  0.001  0.016  0.019
   27  0.011  0.001  0.014  0.027
   28  0.012  0.001  0.000  0.013
   29  0.000  0.000  0.006  0.006
   30  0.000  0.000  0.006  0.007
   31  0.000  0.000  0.006  0.006
   32  0.000  0.000  0.006  0.007
   33  0.000  0.000  0.006  0.007
   34  0.000  0.000  0.006  0.007
   35  0.008  0.001  0.002  0.012
   36  0.000  0.000  0.001  0.001
   37  0.000  0.000  0.000  0.000
tot    0.146  0.027  0.583  0.756
 
band    17 # energy   -5.53668460 # occ.  2.00000000
 
ion      s      p      d    tot
    1  0.000  0.001  0.004  0.004
    2  0.001  0.001  0.005  0.006
    3  0.009  0.001  0.004  0.014
    4  0.001  0.001  0.005  0.006
    5  0.000  0.001  0.010  0.012
    6  0.005  0.001  0.004  0.009
    7  0.009  0.001  0.004  0.014
    8  0.005  0.001  0.004  0.009
    9  0.000  0.000  0.008  0.008
   10  0.000  0.001  0.050  0.050
   11  0.016  0.001  0.021  0.037
   12  0.007  0.001  0.018  0.027
   13  0.016  0.001  0.021  0.037
   14  0.000  0.000  0.048  0.049
   15  0.001  0.000  0.019  0.021
   16  0.007  0.001  0.018  0.027
   17  0.001  0.000  0.019  0.021
   18  0.000  0.001  0.011  0.012
   19  0.005  0.000  0.019  0.024
   20  0.000  0.000  0.082  0.082
   21  0.016  0.001  0.026  0.044
   22  0.003  0.001  0.019  0.023
   23  0.016  0.001  0.026  0.044
   24  0.000  0.001  0.034  0.035
   25  0.000  0.001  0.011  0.012
   26  0.005  0.000  0.019  0.024
   27  0.003  0.001  0.019  0.023
   28  0.000  0.000  0.008  0.009
   29  0.003  0.001  0.005  0.008
   30  0.008  0.001  0.005  0.014
   31  0.003  0.001  0.005  0.008
   32  0.002  0.001  0.004  0.006
   33  0.008  0.001  0.005  0.014
   34  0.002  0.001  0.004  0.006
   35  0.000  0.000  0.003  0.003
   36  0.000  0.001  0.003  0.004
   37  0.000  0.000  0.000  0.000
tot    0.150  0.028  0.572  0.750
 
band    18 # energy   -5.53668227 # occ.  2.00000000
 
ion      s      p      d    tot
    1  0.000  0.001  0.004  0.004
    2  0.009  0.001  0.004  0.014
    3  0.001  0.000  0.004  0.005
    4  0.009  0.001  0.004  0.014
    5  0.000  0.001  0.010  0.012
    6  0.004  0.001  0.005  0.010
    7  0.001  0.000  0.004  0.005
    8  0.004  0.001  0.005  0.010
    9  0.000  0.000  0.008  0.008
   10  0.010  0.002  0.008  0.020
   11  0.005  0.000  0.040  0.045
   12  0.002  0.001  0.039  0.042
   13  0.005  0.000  0.040  0.045
   14  0.021  0.001  0.011  0.033
   15  0.001  0.001  0.014  0.016
   16  0.002  0.001  0.039  0.042
   17  0.001  0.001  0.014  0.016
   18  0.002  0.000  0.021  0.022
   19  0.002  0.001  0.014  0.017
   20  0.022  0.001  0.007  0.031
   21  0.005  0.000  0.064  0.070
   22  0.001  0.001  0.029  0.031
   23  0.005  0.000  0.064  0.070
   24  0.005  0.001  0.014  0.020
   25  0.006  0.000  0.021  0.027
   26  0.002  0.001  0.014  0.017
   27  0.001  0.001  0.029  0.031
   28  0.000  0.000  0.008  0.009
   29  0.006  0.001  0.004  0.011
   30  0.000  0.000  0.004  0.005
   31  0.006  0.001  0.004  0.011
   32  0.007  0.001  0.005  0.012
   33  0.000  0.000  0.004  0.005
   34  0.007  0.001  0.005  0.012
   35  0.000  0.000  0.003  0.003
   36  0.000  0.001  0.003  0.004
   37  0.000  0.000  0.000  0.000
tot    0.150  0.028  0.572  0.750
 
band    19 # energy   -5.47410403 # occ.  2.00000000
 
ion      s      p      d    tot
    1  0.000  0.001  0.014  0.014
    2  0.010  0.001  0.004  0.015
    3  0.001  0.000  0.005  0.007
    4  0.010  0.001  0.004  0.015
    5  0.000  0.000  0.005  0.005
    6  0.004  0.001  0.005  0.010
    7  0.001  0.000  0.005  0.007
    8  0.004  0.001  0.005  0.010
    9  0.000  0.001  0.007  0.008
   10  0.000  0.001  0.029  0.030
   11  0.000  0.001  0.020  0.021
   12  0.008  0.000  0.022  0.030
   13  0.000  0.001  0.020  0.021
   14  0.000  0.001  0.019  0.020
   15  0.011  0.002  0.020  0.033
   16  0.008  0.000  0.022  0.030
   17  0.011  0.002  0.020  0.033
   18  0.000  0.000  0.063  0.063
   19  0.013  0.001  0.019  0.033
   20  0.000  0.002  0.019  0.021
   21  0.000  0.001  0.024  0.025
   22  0.017  0.001  0.020  0.038
   23  0.000  0.001  0.024  0.025
   24  0.000  0.000  0.033  0.033
   25  0.000  0.000  0.066  0.066
   26  0.013  0.001  0.019  0.033
   27  0.017  0.001  0.020  0.038
   28  0.000  0.001  0.005  0.006
   29  0.006  0.001  0.004  0.011
   30  0.000  0.000  0.005  0.006
   31  0.006  0.001  0.004  0.011
   32  0.005  0.001  0.003  0.008
   33  0.000  0.000  0.005  0.006
   34  0.005  0.001  0.003  0.008
   35  0.000  0.001  0.009  0.010
   36  0.000  0.000  0.001  0.001
   37  0.000  0.000  0.000  0.000
tot    0.150  0.029  0.570  0.748
 
band    20 # energy   -5.47407752 # occ.  2.00000000
 
ion      s      p      d    tot
    1  0.000  0.001  0.014  0.014
    2  0.000  0.000  0.005  0.006
    3  0.008  0.001  0.005  0.014
    4  0.000  0.000  0.005  0.006
    5  0.000  0.000  0.005  0.005
    6  0.006  0.001  0.004  0.011
    7  0.008  0.001  0.005  0.014
    8  0.006  0.001  0.004  0.011
    9  0.000  0.001  0.007  0.008
   10  0.010  0.000  0.019  0.030
   11  0.000  0.001  0.019  0.020
   12  0.003  0.001  0.027  0.030
   13  0.000  0.001  0.019  0.020
   14  0.001  0.001  0.020  0.022
   15  0.004  0.001  0.048  0.053
   16  0.003  0.001  0.027  0.030
   17  0.004  0.001  0.048  0.053
   18  0.015  0.002  0.006  0.023
   19  0.004  0.001  0.050  0.055
   20  0.000  0.000  0.025  0.026
   21  0.000  0.001  0.021  0.022
   22  0.006  0.001  0.029  0.035
   23  0.000  0.001  0.021  0.022
   24  0.023  0.001  0.016  0.039
   25  0.017  0.001  0.004  0.023
   26  0.004  0.001  0.050  0.055
   27  0.006  0.001  0.029  0.035
   28  0.000  0.001  0.005  0.006
   29  0.001  0.000  0.004  0.006
   30  0.007  0.001  0.003  0.011
   31  0.001  0.000  0.004  0.006
   32  0.002  0.001  0.005  0.008
   33  0.007  0.001  0.003  0.011
   34  0.002  0.001  0.005  0.008
   35  0.000  0.001  0.009  0.010
   36  0.000  0.000  0.001  0.001
   37  0.000  0.000  0.000  0.000
tot    0.150  0.029  0.570  0.748
 
band    21 # energy   -5.45973547 # occ.  2.00000000
 
ion      s      p      d    tot
    1  0.012  0.001  0.000  0.013
    2  0.000  0.001  0.009  0.010
    3  0.000  0.001  0.009  0.010
    4  0.000  0.001  0.009  0.010
    5  0.017  0.002  0.001  0.020
    6  0.000  0.001  0.009  0.010
    7  0.000  0.001  0.009  0.010
    8  0.000  0.001  0.009  0.010
    9  0.001  0.000  0.002  0.003
   10  0.000  0.001  0.040  0.041
   11  0.007  0.002  0.008  0.017
   12  0.000  0.001  0.040  0.041
   13  0.007  0.002  0.008  0.017
   14  0.007  0.002  0.008  0.017
   15  0.005  0.001  0.031  0.037
   16  0.000  0.001  0.040  0.041
   17  0.005  0.001  0.031  0.037
   18  0.005  0.001  0.031  0.037
   19  0.012  0.001  0.041  0.054
   20  0.009  0.001  0.007  0.017
   21  0.009  0.001  0.007  0.016
   22  0.000  0.000  0.040  0.040
   23  0.009  0.001  0.007  0.016
   24  0.000  0.000  0.040  0.040
   25  0.012  0.001  0.041  0.054
   26  0.012  0.001  0.041  0.054
   27  0.000  0.000  0.040  0.040
   28  0.001  0.001  0.008  0.010
   29  0.000  0.000  0.005  0.006
   30  0.000  0.000  0.005  0.006
   31  0.000  0.000  0.005  0.006
   32  0.000  0.000  0.005  0.006
   33  0.000  0.000  0.005  0.006
   34  0.000  0.000  0.005  0.006
   35  0.001  0.000  0.000  0.001
   36  0.005  0.001  0.000  0.006