PROCAR new format
# of k-points:   10         # of bands:  252         # of ions:   38

 k-point     1 :    0.00000000 0.00000000 0.00000000     weight = 0.01562500

band     1 # energy  -22.16011442 # occ.  2.00000000
 
ion      s      p      d    tot
    1  0.000  0.000  0.000  0.000
    2  0.000  0.000  0.000  0.000
    3  0.000  0.000  0.000  0.000
    4  0.000  0.000  0.000  0.000
    5  0.000  0.000  0.000  0.000
    6  0.000  0.000  0.000  0.000
    7  0.000  0.000  0.000  0.000
    8  0.000  0.000  0.000  0.000
    9  0.000  0.000  0.000  0.000
   10  0.000  0.000  0.000  0.000
   11  0.000  0.000  0.000  0.000
   12  0.000  0.000  0.000  0.000
   13  0.000  0.000  0.000  0.000
   14  0.000  0.000  0.000  0.000
   15  0.000  0.000  0.000  0.000
   16  0.000  0.000  0.000  0.000
   17  0.000  0.000  0.000  0.000
   18  0.000  0.000  0.000  0.000
   19  0.000  0.000  0.000  0.000
   20  0.000  0.000  0.000  0.000
   21  0.000  0.000  0.000  0.000
   22  0.000  0.000  0.000  0.000
   23  0.000  0.000  0.000  0.000
   24  0.000  0.000  0.000  0.000
   25  0.000  0.000  0.000  0.000
   26  0.000  0.000  0.000  0.000
   27  0.000  0.000  0.000  0.000
   28  0.000  0.000  0.000  0.000
   29  0.000  0.000  0.000  0.000
   30  0.000  0.000  0.000  0.000
   31  0.000  0.000  0.000  0.000
   32  0.000  0.000  0.000  0.000
   33  0.000  0.000  0.000  0.000
   34  0.000  0.000  0.000  0.000
   35  0.000  0.000  0.000  0.000
   36  0.000  0.000  0.000  0.000
   37  0.158  0.114  0.000  0.271
   38  0.636  0.094  0.000  0.730
tot    0.794  0.208  0.000  1.002
 
band     2 # energy   -8.27092757 # occ.  2.00000000
 
ion      s      p      d    tot
    1  0.003  0.000  0.000  0.003
    2  0.003  0.000  0.000  0.003
    3  0.003  0.000  0.000  0.003
    4  0.003  0.000  0.000  0.003
    5  0.003  0.000  0.000  0.003
    6  0.003  0.000  0.000  0.003
    7  0.003  0.000  0.000  0.003
    8  0.003  0.000  0.000  0.003
    9  0.003  0.000  0.000  0.003
   10  0.012  0.000  0.000  0.013
   11  0.013  0.000  0.000  0.013
   12  0.012  0.000  0.000  0.013
   13  0.013  0.000  0.000  0.013
   14  0.013  0.000  0.000  0.013
   15  0.012  0.000  0.000  0.012
   16  0.012  0.000  0.000  0.013
   17  0.012  0.000  0.000  0.012
   18  0.012  0.000  0.000  0.012
   19  0.014  0.000  0.000  0.014
   20  0.019  0.000  0.000  0.019
   21  0.019  0.000  0.000  0.019
   22  0.014  0.000  0.000  0.014
   23  0.019  0.000  0.000  0.019
   24  0.014  0.000  0.000  0.014
   25  0.014  0.000  0.000  0.014
   26  0.014  0.000  0.000  0.014
   27  0.014  0.000  0.000  0.014
   28  0.004  0.000  0.000  0.004
   29  0.007  0.000  0.000  0.008
   30  0.007  0.000  0.000  0.008
   31  0.007  0.000  0.000  0.008
   32  0.007  0.000  0.000  0.008
   33  0.007  0.000  0.000  0.008
   34  0.007  0.000  0.000  0.008
   35  0.004  0.000  0.000  0.004
   36  0.044  0.010  0.023  0.077
   37  0.121  0.008  0.000  0.129
   38  0.054  0.064  0.000  0.118
tot    0.542  0.088  0.028  0.657
 
band     3 # energy   -8.00472755 # occ.  2.00000000
 
ion      s      p      d    tot
    1  0.005  0.000  0.000  0.005
    2  0.005  0.000  0.000  0.005
    3  0.005  0.000  0.000  0.005
    4  0.005  0.000  0.000  0.005
    5  0.004  0.000  0.000  0.005
    6  0.005  0.000  0.000  0.005
    7  0.005  0.000  0.000  0.005
    8  0.005  0.000  0.000  0.005
    9  0.005  0.000  0.000  0.005
   10  0.015  0.000  0.000  0.015
   11  0.015  0.000  0.000  0.016
   12  0.015  0.000  0.000  0.015
   13  0.015  0.000  0.000  0.016
   14  0.015  0.000  0.000  0.016
   15  0.016  0.000  0.000  0.016
   16  0.015  0.000  0.000  0.015
   17  0.016  0.000  0.000  0.016
   18  0.016  0.000  0.000  0.016
   19  0.009  0.000  0.000  0.010
   20  0.007  0.001  0.000  0.008
   21  0.007  0.001  0.000  0.008
   22  0.010  0.000  0.000  0.010
   23  0.007  0.001  0.000  0.008
   24  0.010  0.000  0.000  0.010
   25  0.009  0.000  0.000  0.010
   26  0.009  0.000  0.000  0.010
   27  0.010  0.000  0.000  0.010
   28  0.001  0.000  0.000  0.001
   29  0.000  0.000  0.001  0.002
   30  0.000  0.000  0.001  0.002
   31  0.000  0.000  0.001  0.002
   32  0.000  0.000  0.001  0.002
   33  0.000  0.000  0.001  0.002
   34  0.000  0.000  0.001  0.002
   35  0.001  0.000  0.000  0.001
   36  0.020  0.021  0.024  0.065
   37  0.153  0.004  0.000  0.157
   38  0.075  0.108  0.000  0.182
tot    0.510  0.142  0.035  0.687
 
band     4 # energy   -6.93732855 # occ.  2.00000000
 
ion      s      p      d    tot
    1  0.017  0.000  0.001  0.019
    2  0.016  0.000  0.001  0.018
    3  0.016  0.000  0.001  0.018
    4  0.016  0.000  0.001  0.018
    5  0.016  0.000  0.001  0.018
    6  0.016  0.000  0.001  0.018
    7  0.016  0.000  0.001  0.018
    8  0.016  0.000  0.001  0.018
    9  0.016  0.000  0.001  0.018
   10  0.010  0.002  0.002  0.014
   11  0.009  0.002  0.003  0.013
   12  0.010  0.002  0.002  0.013
   13  0.009  0.002  0.003  0.013
   14  0.009  0.002  0.003  0.013
   15  0.009  0.002  0.002  0.013
   16  0.010  0.002  0.002  0.013
   17  0.009  0.002  0.002  0.013
   18  0.009  0.002  0.002  0.013
   19  0.015  0.001  0.004  0.020
   20  0.015  0.001  0.005  0.021
   21  0.015  0.001  0.005  0.021
   22  0.016  0.001  0.004  0.021
   23  0.015  0.001  0.005  0.021
   24  0.016  0.001  0.004  0.021
   25  0.015  0.001  0.004  0.020
   26  0.015  0.001  0.004  0.020
   27  0.016  0.001  0.004  0.021
   28  0.012  0.001  0.000  0.013
   29  0.011  0.001  0.000  0.012
   30  0.011  0.001  0.000  0.012
   31  0.011  0.001  0.000  0.012
   32  0.011  0.001  0.000  0.012
   33  0.011  0.001  0.000  0.012
   34  0.011  0.001  0.000  0.012
   35  0.013  0.001  0.000  0.013
   36  0.004  0.002  0.000  0.006
   37  0.008  0.002  0.000  0.009
   38  0.008  0.024  0.000  0.032
tot    0.480  0.058  0.074  0.612
 
band     5 # energy   -6.03604997 # occ.  2.00000000
 
ion      s      p      d    tot
    1  0.008  0.001  0.001  0.009
    2  0.000  0.001  0.005  0.005
    3  0.000  0.001  0.005  0.005
    4  0.000  0.001  0.005  0.005
    5  0.002  0.000  0.000  0.003
    6  0.000  0.001  0.005  0.005
    7  0.000  0.001  0.005  0.005
    8  0.000  0.001  0.005  0.005
    9  0.009  0.002  0.002  0.013
   10  0.006  0.000  0.026  0.033
   11  0.005  0.002  0.011  0.018
   12  0.006  0.000  0.026  0.033
   13  0.005  0.002  0.011  0.018
   14  0.005  0.002  0.011  0.018
   15  0.029  0.002  0.006  0.037
   16  0.006  0.000  0.026  0.033
   17  0.029  0.002  0.006  0.037
   18  0.029  0.002  0.006  0.037
   19  0.000  0.001  0.022  0.023
   20  0.022  0.001  0.022  0.044
   21  0.022  0.001  0.022  0.044
   22  0.022  0.003  0.003  0.028
   23  0.022  0.001  0.022  0.044
   24  0.022  0.003  0.003  0.028
   25  0.000  0.001  0.022  0.023
   26  0.000  0.001  0.022  0.023
   27  0.022  0.003  0.003  0.028
   28  0.000  0.000  0.001  0.001
   29  0.000  0.001  0.004  0.005
   30  0.000  0.001  0.004  0.005
   31  0.000  0.001  0.004  0.005
   32  0.000  0.001  0.004  0.005
   33  0.000  0.001  0.004  0.005
   34  0.000  0.001  0.004  0.005
   35  0.005  0.001  0.000  0.007
   36  0.016  0.000  0.005  0.022
   37  0.000  0.012  0.000  0.012
   38  0.005  0.028  0.000  0.033
tot    0.299  0.079  0.333  0.710
 
band     6 # energy   -6.02416610 # occ.  2.00000000
 
ion      s      p      d    tot
    1  0.021  0.000  0.022  0.043
    2  0.021  0.000  0.020  0.041
    3  0.021  0.000  0.020  0.041
    4  0.021  0.000  0.020  0.041
    5  0.017  0.000  0.021  0.038
    6  0.021  0.000  0.020  0.041
    7  0.021  0.000  0.020  0.041
    8  0.021  0.000  0.020  0.041
    9  0.025  0.000  0.019  0.044
   10  0.007  0.001  0.024  0.033
   11  0.012  0.001  0.021  0.034
   12  0.007  0.001  0.024  0.033
   13  0.012  0.001  0.021  0.034
   14  0.012  0.001  0.021  0.034
   15  0.005  0.001  0.025  0.031
   16  0.007  0.001  0.024  0.033
   17  0.005  0.001  0.025  0.031
   18  0.005  0.001  0.025  0.031
   19  0.001  0.000  0.002  0.003
   20  0.000  0.001  0.003  0.004
   21  0.000  0.001  0.003  0.004
   22  0.000  0.000  0.002  0.003
   23  0.000  0.001  0.003  0.004
   24  0.000  0.000  0.002  0.003
   25  0.001  0.000  0.002  0.003
   26  0.001  0.000  0.002  0.003
   27  0.000  0.000  0.002  0.003
   28  0.003  0.000  0.000  0.003
   29  0.002  0.000  0.001  0.002
   30  0.002  0.000  0.001  0.002
   31  0.002  0.000  0.001  0.002
   32  0.002  0.000  0.001  0.002
   33  0.002  0.000  0.001  0.002
   34  0.002  0.000  0.001  0.002
   35  0.002  0.000  0.000  0.002
   36  0.001  0.000  0.000  0.001
   37  0.000  0.002  0.000  0.002
   38  0.001  0.004  0.000  0.005
tot    0.283  0.017  0.421  0.721
 
band     7 # energy   -5.99630233 # occ.  2.00000000
 
ion      s      p      d    tot
    1  0.000  0.000  0.006  0.006
    2  0.006  0.001  0.004  0.011
    3  0.005  0.001  0.003  0.009
    4  0.006  0.001  0.004  0.011
    5  0.000  0.001  0.009  0.010
    6  0.000  0.000  0.003  0.003
    7  0.005  0.001  0.003  0.009
    8  0.000  0.000  0.003  0.003
    9  0.000  0.001  0.002  0.002
   10  0.000  0.001  0.031  0.031
   11  0.045  0.002  0.015  0.061
   12  0.014  0.001  0.012  0.027
   13  0.046  0.002  0.014  0.062
   14  0.000  0.002  0.035  0.037
   15  0.009  0.001  0.012  0.022
   16  0.014  0.001  0.012  0.027
   17  0.009  0.001  0.012  0.022
   18  0.000  0.004  0.002  0.007
   19  0.001  0.001  0.010  0.012
   20  0.000  0.003  0.024  0.027
   21  0.038  0.002  0.014  0.054
   22  0.025  0.001  0.011  0.037
   23  0.038  0.002  0.014  0.054
   24  0.000  0.000  0.036  0.036
   25  0.000  0.003  0.004  0.007
   26  0.001  0.001  0.010  0.013
   27  0.024  0.001  0.012  0.037
   28  0.000  0.000  0.001  0.001
   29  0.000  0.000  0.002  0.003
   30  0.007  0.001  0.002  0.010
   31  0.000  0.000  0.002  0.003
   32  0.004  0.001  0.003  0.008
   33  0.007  0.001  0.002  0.010
   34  0.004  0.001  0.003  0.008
   35  0.000  0.000  0.006  0.006
   36  0.000  0.002  0.001  0.003
   37  0.000  0.000  0.000  0.000
   38  0.000  0.000  0.000  0.000
tot    0.307  0.044  0.342  0.693
 
band     8 # energy   -5.99628777 # occ.  2.00000000
 
ion      s      p      d    tot
    1  0.000  0.000  0.006  0.006
    2  0.001  0.000  0.003  0.005
    3  0.003  0.001  0.004  0.007
    4  0.001  0.000  0.003  0.005
    5  0.000  0.001  0.009  0.010
    6  0.007  0.001  0.003  0.012
    7  0.002  0.001  0.004  0.007
    8  0.007  0.001  0.003  0.012
    9  0.000  0.001  0.002  0.002
   10  0.019  0.002  0.006  0.026
   11  0.016  0.002  0.028  0.046
   12  0.005  0.001  0.025  0.030
   13  0.015  0.002  0.029  0.045
   14  0.060  0.001  0.008  0.069
   15  0.003  0.003  0.006  0.012
   16  0.005  0.001  0.024  0.030
   17  0.003  0.003  0.005  0.011
   18  0.012  0.000  0.016  0.027
   19  0.000  0.003  0.006  0.009
   20  0.051  0.001  0.011  0.063
   21  0.012  0.003  0.021  0.036
   22  0.008  0.000  0.028  0.037
   23  0.013  0.003  0.021  0.037
   24  0.032  0.002  0.003  0.038
   25  0.001  0.000  0.012  0.014
   26  0.000  0.003  0.006  0.009
   27  0.009  0.001  0.028  0.037
   28  0.000  0.000  0.001  0.001
   29  0.007  0.001  0.003  0.011
   30  0.000  0.000  0.003  0.004
   31  0.007  0.001  0.003  0.011
   32  0.003  0.001  0.002  0.006
   33  0.001  0.000  0.003  0.004
   34  0.004  0.001  0.002  0.006
   35  0.000  0.000  0.006  0.006
   36  0.000  0.002  0.001  0.003
   37  0.000  0.000  0.000  0.000
   38  0.000  0.000  0.000  0.000
tot    0.307  0.044  0.342  0.693
 
band     9 # energy   -5.98341736 # occ.  2.00000000
 
ion      s      p      d    tot
    1  0.007  0.001  0.001  0.009
    2  0.000  0.001  0.006  0.007
    3  0.000  0.001  0.006  0.007
    4  0.000  0.001  0.006  0.007
    5  0.017  0.002  0.001  0.020
    6  0.000  0.001  0.006  0.007
    7  0.000  0.001  0.006  0.007
    8  0.000  0.001  0.006  0.007
    9  0.000  0.000  0.002  0.002
   10  0.025  0.003  0.002  0.030
   11  0.022  0.001  0.022  0.044
   12  0.024  0.003  0.002  0.029
   13  0.022  0.001  0.022  0.044
   14  0.022  0.001  0.022  0.044
   15  0.000  0.001  0.025  0.026
   16  0.024  0.003  0.002  0.029
   17  0.000  0.001  0.025  0.026
   18  0.000  0.001  0.025  0.026
   19  0.025  0.002  0.006  0.034
   20  0.006  0.002  0.015  0.024
   21  0.006  0.002  0.015  0.024
   22  0.008  0.000  0.026  0.035
   23  0.006  0.002  0.015  0.024
   24  0.008  0.000  0.026  0.035
   25  0.025  0.002  0.006  0.034
   26  0.025  0.002  0.006  0.034
   27  0.008  0.000  0.026  0.035
   28  0.011  0.001  0.001  0.013
   29  0.000  0.000  0.004  0.004
   30  0.000  0.000  0.004  0.004
   31  0.000  0.000  0.004  0.004
   32  0.000  0.000  0.004  0.004
   33  0.000  0.000  0.004  0.004
   34  0.000  0.000  0.004  0.004
   35  0.004  0.001  0.002  0.007
   36  0.000  0.000  0.000  0.000
   37  0.000  0.000  0.000  0.000
   38  0.000  0.000  0.000  0.000
tot    0.300  0.041  0.354  0.695
 
band    10 # energy   -5.96457387 # occ.  2.00000000
 
ion      s      p      d    tot
    1  0.000  0.001  0.006  0.007
    2  0.007  0.001  0.004  0.012
    3  0.006  0.001  0.003  0.010
    4  0.007  0.001  0.004  0.012
    5  0.000  0.000  0.002  0.002
    6  0.000  0.000  0.003  0.004
    7  0.006  0.001  0.003  0.011
    8  0.000  0.000  0.003  0.004
    9  0.000  0.001  0.011  0.012
   10  0.045  0.000  0.015  0.060
   11  0.000  0.002  0.012  0.014
   12  0.011  0.003  0.014  0.028
   13  0.000  0.002  0.012  0.014
   14  0.000  0.001  0.012  0.013
   15  0.014  0.001  0.036  0.050
   16  0.012  0.003  0.014  0.029
   17  0.013  0.001  0.037  0.050
   18  0.052  0.002  0.003  0.057
   19  0.013  0.001  0.027  0.041
   20  0.007  0.001  0.008  0.017
   21  0.002  0.001  0.017  0.020
   22  0.005  0.003  0.009  0.017
   23  0.002  0.001  0.017  0.020
   24  0.021  0.000  0.014  0.035
   25  0.049  0.002  0.004  0.055
   26  0.012  0.001  0.028  0.041
   27  0.005  0.003  0.009  0.018
   28  0.000  0.001  0.006  0.007
   29  0.000  0.000  0.002  0.002
   30  0.003  0.001  0.002  0.006
   31  0.000  0.000  0.002  0.002
   32  0.003  0.001  0.003  0.006
   33  0.003  0.001  0.002  0.006
   34  0.003  0.001  0.003  0.006
   35  0.000  0.000  0.002  0.002
   36  0.000  0.000  0.001  0.001
   37  0.000  0.000  0.000  0.000
   38  0.000  0.000  0.000  0.000
tot    0.300  0.042  0.352  0.693
 
band    11 # energy   -5.96454622 # occ.  2.00000000
 
ion      s      p      d    tot
    1  0.000  0.001  0.006  0.007
    2  0.002  0.001  0.003  0.006
    3  0.003  0.001  0.004  0.007
    4  0.002  0.001  0.003  0.005
    5  0.000  0.000  0.002  0.002
    6  0.009  0.001  0.004  0.014
    7  0.003  0.001  0.004  0.007
    8  0.008  0.001  0.004  0.014
    9  0.000  0.001  0.011  0.012
   10  0.000  0.004  0.014  0.018
   11  0.000  0.001  0.012  0.014
   12  0.034  0.001  0.014  0.050
   13  0.000  0.001  0.012  0.014
   14  0.000  0.003  0.012  0.015
   15  0.039  0.001  0.015  0.055
   16  0.033  0.001  0.014  0.049
   17  0.040  0.001  0.014  0.055
   18  0.000  0.000  0.047  0.047
   19  0.036  0.002  0.012  0.050
   20  0.000  0.001  0.020  0.021
   21  0.006  0.001  0.011  0.018
   22  0.016  0.001  0.013  0.029
   23  0.005  0.001  0.011  0.018
   24  0.000  0.004  0.008  0.012
   25  0.000  0.001  0.035  0.036
   26  0.037  0.002  0.012  0.051
   27  0.015  0.001  0.012  0.029
   28  0.000  0.001  0.006  0.007
   29  0.004  0.001  0.002  0.007
   30  0.001  0.000  0.002  0.003
   31  0.004  0.001  0.002  0.007
   32  0.001  0.000  0.002  0.003
   33  0.001  0.000  0.002  0.003
   34  0.001  0.000  0.002  0.003
   35  0.000  0.000  0.002  0.002
   36  0.000  0.000  0.001  0.001
   37  0.000  0.000  0.000  0.000
   38  0.000  0.000  0.000  0.000
tot    0.300  0.042  0.352  0.693
 
band    12 # energy   -5.88243631 # occ.  2.00000000
 
ion      s      p      d    tot
    1  0.000  0.000  0.000  0.000
    2  0.000  0.000  0.000  0.000
    3  0.000  0.000  0.000  0.000
    4  0.000  0.000  0.000  0.000
    5  0.000  0.000  0.000  0.000
    6  0.000  0.000  0.000  0.000
    7  0.000  0.000  0.000  0.000
    8  0.000  0.000  0.000  0.000
    9  0.001  0.000  0.000  0.001
   10  0.000  0.000  0.004  0.005
   11  0.000  0.000  0.004  0.005
   12  0.000  0.000  0.004  0.005
   13  0.000  0.000  0.004  0.005
   14  0.000  0.000  0.004  0.005
   15  0.001  0.000  0.003  0.005
   16  0.000  0.000  0.004  0.005
   17  0.001  0.000  0.003  0.005
   18  0.001  0.000  0.003  0.005
   19  0.008  0.001  0.020  0.028
   20  0.007  0.001  0.021  0.029
   21  0.007  0.001  0.021  0.029
   22  0.003  0.000  0.027  0.030
   23  0.007  0.001  0.021  0.029
   24  0.003  0.000  0.027  0.030
   25  0.008  0.001  0.020  0.028
   26  0.008  0.001  0.020  0.028
   27  0.003  0.000  0.027  0.030
   28  0.018  0.000  0.017  0.034
   29  0.020  0.000  0.018  0.038
   30  0.020  0.000  0.018  0.038
   31  0.020  0.000  0.018  0.038
   32  0.020  0.000  0.018  0.038
   33  0.020  0.000  0.018  0.038
   34  0.020  0.000  0.018  0.038
   35  0.024  0.000  0.016  0.041
   36  0.018  0.004  0.000  0.022
   37  0.000  0.030  0.000  0.030
   38  0.010  0.071  0.000  0.081
tot    0.250  0.113  0.379  0.742
 
band    13 # energy   -5.56847152 # occ.  2.00000000
 
ion      s      p      d    tot
    1  0.002  0.000  0.000  0.002
    2  0.000  0.001  0.005  0.006
    3  0.000  0.001  0.005  0.006
    4  0.000  0.001  0.005  0.006
    5  0.013  0.001  0.000  0.014
    6  0.000  0.001  0.005  0.006
    7  0.000  0.001  0.005  0.006
    8  0.000  0.001  0.005  0.006
    9  0.003  0.001  0.002  0.006
   10  0.000  0.000  0.028  0.028
   11  0.007  0.001  0.002  0.010
   12  0.000  0.000  0.028  0.028
   13  0.007  0.001  0.002  0.010
   14  0.007  0.001  0.002  0.010
   15  0.010  0.001  0.021  0.032
   16  0.000  0.000  0.028  0.028
   17  0.010  0.001  0.021  0.032
   18  0.010  0.001  0.021  0.032
   19  0.007  0.001  0.012  0.020
   20  0.005  0.002  0.019  0.025
   21  0.005  0.002  0.019  0.025
   22  0.001  0.001  0.029  0.030
   23  0.005  0.002  0.019  0.025
   24  0.001  0.001  0.029  0.030
   25  0.007  0.001  0.012  0.020
   26  0.007  0.001  0.012  0.020
   27  0.001  0.001  0.029  0.030
   28  0.014  0.001  0.000  0.015
   29  0.001  0.001  0.008  0.011
   30  0.001  0.001  0.008  0.011
   31  0.001  0.001  0.008  0.011
   32  0.001  0.001  0.008  0.011
   33  0.001  0.001  0.008  0.011
   34  0.001  0.001  0.008  0.011
   35  0.009  0.000  0.003  0.012
   36  0.030  0.001  0.024  0.055
   37  0.002  0.044  0.000  0.046
   38  0.007  0.069  0.000  0.076
tot    0.177  0.144  0.442  0.763
 
band    14 # energy   -5.52299370 # occ.  2.00000000
 
ion      s      p      d    tot
    1  0.013  0.002  0.002  0.017
    2  0.000  0.001  0.009  0.010
    3  0.000  0.001  0.009  0.010
    4  0.000  0.001  0.009  0.010
    5  0.001  0.000  0.002  0.003
    6  0.000  0.001  0.009  0.010
    7  0.000  0.001  0.009  0.010
    8  0.000  0.001  0.009  0.010
    9  0.020  0.002  0.000  0.022
   10  0.010  0.001  0.016  0.028
   11  0.002  0.000  0.044  0.046
   12  0.010  0.001  0.016  0.028
   13  0.002  0.000  0.044  0.046
   14  0.002  0.000  0.044  0.046
   15  0.005  0.001  0.020  0.027
   16  0.010  0.001  0.016  0.028
   17  0.005  0.001  0.020  0.027
   18  0.005  0.001  0.021  0.027
   19  0.003  0.001  0.016  0.020
   20  0.002  0.000  0.048  0.050
   21  0.002  0.000  0.048  0.050
   22  0.011  0.001  0.015  0.027
   23  0.002  0.000  0.048  0.050
   24  0.011  0.001  0.015  0.027
   25  0.003  0.001  0.016  0.020
   26  0.003  0.001  0.016  0.020
   27  0.011  0.001  0.015  0.027
   28  0.007  0.001  0.001  0.009
   29  0.000  0.000  0.005  0.006
   30  0.000  0.000  0.005  0.006
   31  0.000  0.000  0.005  0.006
   32  0.000  0.000  0.005  0.006
   33  0.000  0.000  0.005  0.006
   34  0.000  0.000  0.005  0.006
   35  0.012  0.001  0.002  0.015
   36  0.000  0.000  0.002  0.002
   37  0.000  0.000  0.000  0.000
   38  0.000  0.000  0.000  0.000
tot    0.153  0.029  0.570  0.753
 
band    15 # energy   -5.51377001 # occ.  2.00000000
 
ion      s      p      d    tot
    1  0.000  0.001  0.004  0.005
    2  0.000  0.001  0.005  0.006
    3  0.008  0.001  0.004  0.014
    4  0.000  0.001  0.005  0.006
    5  0.000  0.001  0.011  0.012
    6  0.005  0.001  0.004  0.009
    7  0.008  0.001  0.004  0.014
    8  0.005  0.001  0.004  0.010
    9  0.000  0.000  0.008  0.008
   10  0.000  0.001  0.050  0.051
   11  0.015  0.001  0.020  0.036
   12  0.007  0.002  0.018  0.027
   13  0.015  0.001  0.020  0.036
   14  0.000  0.000  0.049  0.049
   15  0.002  0.001  0.019  0.021
   16  0.007  0.002  0.018  0.027
   17  0.002  0.001  0.019  0.021
   18  0.000  0.001  0.009  0.011
   19  0.008  0.000  0.019  0.027
   20  0.000  0.000  0.067  0.067
   21  0.017  0.001  0.021  0.039
   22  0.002  0.001  0.018  0.021
   23  0.017  0.001  0.021  0.039
   24  0.000  0.001  0.031  0.032
   25  0.000  0.001  0.015  0.016
   26  0.007  0.000  0.019  0.027
   27  0.002  0.001  0.018  0.021
   28  0.000  0.001  0.009  0.009
   29  0.002  0.001  0.004  0.006
   30  0.012  0.001  0.003  0.016
   31  0.002  0.001  0.004  0.006
   32  0.004  0.001  0.004  0.009
   33  0.012  0.001  0.003  0.016
   34  0.004  0.001  0.004  0.009
   35  0.000  0.000  0.004  0.004
   36  0.000  0.003  0.001  0.004
   37  0.000  0.003  0.000  0.003
   38  0.000  0.007  0.000  0.007
tot    0.163  0.043  0.536  0.741
 
band    16 # energy   -5.51376378 # occ.  2.00000000
 
ion      s      p      d    tot
    1  0.000  0.001  0.004  0.005
    2  0.009  0.001  0.004  0.014
    3  0.001  0.000  0.004  0.006
    4  0.009  0.001  0.004  0.014
    5  0.000  0.001  0.011  0.012
    6  0.004  0.001  0.005  0.010
    7  0.001  0.000  0.004  0.005
    8  0.004  0.001  0.005  0.010
    9  0.000  0.000  0.008  0.008
   10  0.009  0.002  0.008  0.019
   11  0.005  0.000  0.039  0.045
   12  0.002  0.001  0.040  0.043
   13  0.005  0.000  0.039  0.044
   14  0.020  0.001  0.011  0.032
   15  0.001  0.001  0.013  0.014
   16  0.002  0.001  0.040  0.043
   17  0.001  0.001  0.013  0.014
   18  0.002  0.000  0.023  0.025
   19  0.002  0.001  0.016  0.020
   20  0.023  0.002  0.006  0.030
   21  0.006  0.000  0.051  0.058
   22  0.001  0.001  0.026  0.028
   23  0.006  0.000  0.052  0.058
   24  0.002  0.001  0.014  0.018
   25  0.010  0.000  0.020  0.030
   26  0.003  0.001  0.016  0.020
   27  0.001  0.001  0.027  0.028
   28  0.000  0.001  0.009  0.009
   29  0.010  0.001  0.003  0.014
   30  0.000  0.001  0.004  0.005
   31  0.010  0.001  0.003  0.015
   32  0.008  0.001  0.003  0.012
   33  0.000  0.001  0.004  0.005
   34  0.007  0.001  0.003  0.012
   35  0.000  0.000  0.004  0.004
   36  0.000  0.003  0.001  0.004
   37  0.000  0.003  0.000  0.003
   38  0.000  0.007  0.000  0.007
tot    0.163  0.043  0.536  0.741
 
band    17 # energy   -5.47115416 # occ.  2.00000000
 
ion      s      p      d    tot
    1  0.000  0.001  0.015  0.016
    2  0.010  0.001  0.005  0.017
    3  0.002  0.000  0.005  0.008
    4  0.010  0.001  0.005  0.017
    5  0.000  0.000  0.005  0.005
    6  0.003  0.001  0.006  0.010
    7  0.002  0.000  0.005  0.008
    8  0.003  0.001  0.006  0.010
    9  0.000  0.001  0.008  0.009
   10  0.000  0.001  0.028  0.029
   11  0.001  0.001  0.020  0.022
   12  0.006  0.000  0.023  0.030
   13  0.001  0.001  0.020  0.022
   14  0.000  0.001  0.021  0.022
   15  0.012  0.002  0.021  0.035
   16  0.006  0.000  0.023  0.030
   17  0.012  0.002  0.021  0.034
   18  0.000  0.000  0.065  0.065
   19  0.012  0.001  0.020  0.033
   20  0.000  0.002  0.017  0.019
   21  0.000  0.000  0.021  0.022
   22  0.018  0.001  0.021  0.040
   23  0.000  0.001  0.021  0.022
   24  0.000  0.000  0.035  0.035
   25  0.000  0.000  0.065  0.066
   26  0.012  0.001  0.020  0.033
   27  0.018  0.001  0.021  0.040
   28  0.000  0.001  0.004  0.005
   29  0.005  0.001  0.004  0.010
   30  0.000  0.000  0.004  0.005
   31  0.005  0.001  0.004  0.010
   32  0.003  0.001  0.002  0.006
   33  0.000  0.000  0.004  0.005
   34  0.003  0.001  0.002  0.006
   35  0.000  0.001  0.007  0.008
   36  0.000  0.000  0.000  0.000
   37  0.000  0.000  0.000  0.000
   38  0.000  0.000  0.000  0.000
tot    0.149  0.029  0.574  0.752
 
band    18 # energy   -5.47113896 # occ.  2.00000000
 
ion      s      p      d    tot
    1  0.000  0.001  0.015  0.016
    2  0.000  0.000  0.006  0.006
    3  0.008  0.001  0.005  0.015
    4  0.000  0.000  0.006  0.006
    5  0.000  0.000  0.005  0.005
    6  0.007  0.001  0.005  0.013
    7  0.008  0.001  0.005  0.015
    8  0.007  0.001  0.005  0.013
    9  0.000  0.001  0.008  0.009
   10  0.008  0.000  0.021  0.030
   11  0.000  0.001  0.021  0.022
   12  0.002  0.001  0.026  0.029
   13  0.000  0.001  0.021  0.022
   14  0.001  0.001  0.019  0.022
   15  0.004  0.001  0.050  0.055
   16  0.002  0.001  0.026  0.029
   17  0.004  0.001  0.051  0.055
   18  0.016  0.002  0.006  0.024
   19  0.004  0.001  0.050  0.055
   20  0.001  0.000  0.022  0.023
   21  0.000  0.001  0.019  0.020
   22  0.006  0.001  0.030  0.037
   23  0.000  0.001  0.019  0.020
   24  0.024  0.001  0.016  0.041
   25  0.017  0.001  0.005  0.022
   26  0.004  0.001  0.050  0.055
   27  0.006  0.001  0.030  0.037
   28  0.000  0.001  0.004  0.005
   29  0.000  0.000  0.003  0.003
   30  0.005  0.001  0.003  0.009
   31  0.000  0.000  0.003  0.003
   32  0.003  0.001  0.005  0.008
   33  0.005  0.001  0.003  0.009
   34  0.003  0.001  0.005  0.008
   35  0.000  0.001  0.007  0.008
   36  0.000  0.000  0.000  0.000
   37  0.000  0.000  0.000  0.000
   38  0.000  0.000  0.000  0.000
tot    0.149  0.029  0.574  0.752
 
band    19 # energy   -5.32140308 # occ.  2.00000000
 
ion      s      p      d    tot
    1  0.015  0.000  0.001  0.016
    2  0.000  0.000  0.009  0.009
    3  0.000  0.000  0.009  0.009
    4  0.000  0.000  0.009  0.009
    5  0.006  0.001  0.001  0.008
    6  0.000  0.000  0.009  0.009
    7  0.000  0.000  0.009  0.009
    8  0.000  0.000  0.009  0.009
    9  0.001  0.000  0.001  0.003
   10  0.000  0.001  0.016  0.017
   11  0.001  0.001  0.013  0.015
   12  0.000  0.001  0.016  0.017
   13  0.001  0.001  0.013  0.015
   14  0.001  0.001  0.013  0.015
   15  0.000  0.000  0.016  0.016
   16  0.000  0.001  0.016  0.017
   17  0.000  0.000  0.016  0.016
   18  0.000  0.000  0.016  0.016
   19  0.002  0.000  0.032  0.034
   20  0.003  0.000  0.009  0.012
   21  0.003  0.000  0.009  0.012
   22  0.001  0.000  0.016  0.017
   23  0.003  0.000  0.009  0.012
   24  0.001  0.000  0.016  0.017
   25  0.002  0.000  0.032  0.034
   26  0.002  0.000  0.032  0.034
   27  0.001  0.000  0.016  0.017
   28  0.008  0.000  0.012  0.020
   29  0.002  0.000  0.014  0.016
   30  0.002  0.000  0.014  0.016
   31  0.002  0.000  0.014  0.016
   32  0.002  0.000  0.014  0.016
   33  0.002  0.000  0.014  0.016
   34  0.002  0.000  0.014  0.016
   35  0.003  0.000  0.002  0.005
   36  0.020  0.014  0.038  0.072
   37  0.006  0.083  0.000  0.090
   38  0.009  0.113  0.000  0.123
tot    0.105  0.221  0.494  0.820
 
band    20 # energy   -5.24483594 # occ.  2.00000000
 
ion      s      p      d    tot
    1  0.000  0.000  0.002  0.002
    2  0.001  0.000  0.002  0.003
    3  0.002  0.000  0.003  0.005
    4  0.001  0.000  0.002  0.003
    5  0.000  0.000  0.007  0.007
    6  0.000  0.000  0.002  0.003
    7  0.002  0.000  0.003  0.005
    8  0.000  0.000  0.002  0.003
    9  0.000  0.000  0.003  0.003
   10  0.000  0.000  0.001  0.002
   11  0.000  0.000  0.005  0.005
   12  0.000  0.000  0.003  0.004
   13  0.000  0.000  0.005  0.005
   14  0.000  0.000  0.006  0.006
   15  0.000  0.000  0.002  0.002
   16  0.000  0.000  0.003  0.004
   17  0.000  0.000  0.002  0.002
   18  0.001  0.000  0.006  0.006
   19  0.000  0.000  0.005  0.005
   20  0.000  0.000  0.009  0.010
   21  0.000  0.000  0.008  0.008
   22  0.000  0.000  0.010  0.010
   23  0.000  0.000  0.008  0.008
   24  0.001  0.000  0.003  0.004
   25  0.000  0.000  0.004  0.004
   26  0.000  0.000  0.005  0.005
   27  0.000  0.000  0.010  0.010
   28  0.000  0.000  0.008  0.008
   29  0.009  0.001  0.007  0.016
   30  0.000  0.000  0.007  0.007
   31  0.009  0.001  0.007  0.016
   32  0.008  0.001  0.004  0.013
   33  0.000  0.000  0.007  0.007
   34  0.008  0.001  0.004  0.013
   35  0.000  0.000  0.010  0.010
   36  0.000  0.006  0.018  0.023
   37  0.000  0.133  0.000  0.133
   38  0.000  0.305  0.000  0.305
tot    0.044  0.451  0.194  0.689
 
band    21 # energy   -5.24474563 # occ.  2.00000000
 
ion      s      p      d    tot
    1  0.000  0.000  0.002  0.002
    2  0.001  0.000  0.003  0.004
    3  0.000  0.000  0.002  0.002
    4  0.001  0.000  0.003  0.004
    5  0.000  0.000  0.007  0.007
    6  0.002  0.000  0.002  0.005
    7  0.000  0.000  0.002  0.002
    8  0.002  0.000  0.002  0.005
    9  0.000  0.000  0.003  0.003
   10  0.000  0.000  0.004  0.004
   11  0.000  0.000  0.006  0.006
   12  0.000  0.000  0.002  0.003
   13  0.000  0.000  0.006  0.006
   14  0.000  0.000  0.005  0.005
   15  0.000  0.000  0.004  0.005
   16  0.000  0.000  0.002  0.003