 vasp.6.2.0 18Jan21 (build Jun 12 2021 23:27:24) complex                        
  
 executed on             LinuxIFC date 2022.05.26  19:28:08
 running on   28 total cores
 distrk:  each k-point on   28 cores,    1 groups
 distr:  one band on NCORE=   1 cores,   28 groups


--------------------------------------------------------------------------------------------------------


 INCAR:
   ISMEAR = -5
   SIGMA = 0.1
   ISPIN = 1
   EDIFF = 1.d-5
   EDIFFG = -0.01
   NSW = 0
   NELM = 150
   ENCUT = 500
   ISIF = 2
   IBRION = 2
   LREAL = Auto
   ALGO = Fast
   ICHARG = 11
   LORBIT = 10
   LCHARG = .F.
   LWAVE = .F.

 POTCAR:    PAW_PBE Au 04Oct2007                  
 POTCAR:    PAW_PBE Rh 04Feb2005                  
 POTCAR:    PAW_PBE N 08Apr2002                   
 -----------------------------------------------------------------------------
|                                                                             |
|           W    W    AA    RRRRR   N    N  II  N    N   GGGG   !!!           |
|           W    W   A  A   R    R  NN   N  II  NN   N  G    G  !!!           |
|           W    W  A    A  R    R  N N  N  II  N N  N  G       !!!           |
|           W WW W  AAAAAA  RRRRR   N  N N  II  N  N N  G  GGG   !            |
|           WW  WW  A    A  R   R   N   NN  II  N   NN  G    G                |
|           W    W  A    A  R    R  N    N  II  N    N   GGGG   !!!           |
|                                                                             |
|     For optimal performance we recommend to set                             |
|       NCORE = 2 up to number-of-cores-per-socket                            |
|     NCORE specifies how many cores store one orbital (NPAR=cpu/NCORE).      |
|     This setting can greatly improve the performance of VASP for DFT.       |
|     The default, NCORE=1 might be grossly inefficient on modern             |
|     multi-core architectures or massively parallel machines. Do your        |
|     own testing! More info at https://www.vasp.at/wiki/index.php/NCORE      |
|     Unfortunately you need to use the default for GW and RPA                |
|     calculations (for HF NCORE is supported but not extensively tested      |
|     yet).                                                                   |
|                                                                             |
 -----------------------------------------------------------------------------

 POTCAR:    PAW_PBE Au 04Oct2007                  
   VRHFIN =Au: s1d10                                                                                
   LEXCH  = PE                                                                                      
   EATOM  =   926.0867 eV,   68.0654 Ry                                                             
                                                                                                    
   TITEL  = PAW_PBE Au 04Oct2007                                                                    
   LULTRA =        F    use ultrasoft PP ?                                                          
   IUNSCR =        1    unscreen: 0-lin 1-nonlin 2-no                                               
   RPACOR =    2.330    partial core radius                                                         
   POMASS =  196.966; ZVAL   =   11.000    mass and valenz                                          
   RCORE  =    2.500    outmost cutoff radius                                                       
   RWIGS  =    2.840; RWIGS  =    1.503    wigner-seitz radius (au A)                               
   ENMAX  =  229.943; ENMIN  =  172.457 eV                                                          
   ICORE  =        3    local potential                                                             
   LCOR   =        T    correct aug charges                                                         
   LPAW   =        T    paw PP                                                                      
   EAUG   =  356.670                                                                                
   DEXC   =    0.000                                                                                
   RMAX   =    2.562    core radius for proj-oper                                                   
   RAUG   =    1.300    factor for augmentation sphere                                              
   RDEP   =    2.598    radius for radial grids                                                     
   RDEPT  =    2.193    core radius for aug-charge                                                  
                                                                                                    
   Atomic configuration                                                                             
   16 entries                                                                                       
     n  l   j            E        occ.                                                              
     1  0  0.50    -80748.5001   2.0000                                                             
     2  0  0.50    -14244.7466   2.0000                                                             
     2  1  1.50    -12310.9591   6.0000                                                             
     3  0  0.50     -3362.1768   2.0000                                                             
     3  1  1.50     -2801.5463   6.0000                                                             
     3  2  2.50     -2203.8206  10.0000                                                             
     4  0  0.50      -729.8168   2.0000                                                             
     4  1  1.50      -546.0527   6.0000                                                             
     4  2  2.50      -325.7302  10.0000                                                             
     4  3  3.50       -81.1472  14.0000                                                             
     5  0  0.50      -108.3201   2.0000                                                             
     5  1  1.50       -59.7479   6.0000                                                             
     5  2  2.50        -6.8783  10.0000                                                             
     6  0  0.50        -5.7602   1.0000                                                             
     6  1  1.50        -6.8029   0.0000                                                             
     5  3  2.50        -1.3606   0.0000                                                             
   Description                                                                                      
     l       E           TYP  RCUT    TYP  RCUT                                                     
     2     -6.8782861     23  2.500                                                                 
     2     -8.2388687     23  2.500                                                                 
     0     -5.7601759     23  2.500                                                                 
     0     -0.8493231     23  2.500                                                                 
     1     -2.7211652     23  2.500                                                                 
     1     27.2116520     23  2.500                                                                 
     3     -1.3605826     23  2.500                                                                 
  local pseudopotential read in
  partial core-charges read in
  partial kinetic energy density read in
  atomic valenz-charges read in
  non local Contribution for L=           2  read in
    real space projection operators read in
  non local Contribution for L=           2  read in
    real space projection operators read in
  non local Contribution for L=           0  read in
    real space projection operators read in
  non local Contribution for L=           0  read in
    real space projection operators read in
  non local Contribution for L=           1  read in
    real space projection operators read in
  non local Contribution for L=           1  read in
    real space projection operators read in
    PAW grid and wavefunctions read in
 
   number of l-projection  operators is LMAX  =           6
   number of lm-projection operators is LMMAX =          18
 
 POTCAR:    PAW_PBE Rh 04Feb2005                  
   VRHFIN =Rh: s1 d8                                                                                
   LEXCH  = PE                                                                                      
   EATOM  =   616.4198 eV,   45.3056 Ry                                                             
                                                                                                    
   TITEL  = PAW_PBE Rh 04Feb2005                                                                    
   LULTRA =        F    use ultrasoft PP ?                                                          
   IUNSCR =        1    unscreen: 0-lin 1-nonlin 2-no                                               
   RPACOR =    2.170    partial core radius                                                         
   POMASS =  102.906; ZVAL   =    9.000    mass and valenz                                          
   RCORE  =    2.700    outmost cutoff radius                                                       
   RWIGS  =    2.650; RWIGS  =    1.402    wigner-seitz radius (au A)                               
   ENMAX  =  228.996; ENMIN  =  171.747 eV                                                          
   ICORE  =        3    local potential                                                             
   LCOR   =        T    correct aug charges                                                         
   LPAW   =        T    paw PP                                                                      
   EAUG   =  374.513                                                                                
   DEXC   =    0.000                                                                                
   RMAX   =    2.752    core radius for proj-oper                                                   
   RAUG   =    1.300    factor for augmentation sphere                                              
   RDEP   =    2.703    radius for radial grids                                                     
   RDEPT  =    2.174    core radius for aug-charge                                                  
                                                                                                    
   Atomic configuration                                                                             
   12 entries                                                                                       
     n  l   j            E        occ.                                                              
     1  0  0.50    -23034.1986   2.0000                                                             
     2  0  0.50     -3339.2387   2.0000                                                             
     2  1  1.50     -2992.3290   6.0000                                                             
     3  0  0.50      -596.7249   2.0000                                                             
     3  1  1.50      -482.7183   6.0000                                                             
     3  2  2.50      -300.5356  10.0000                                                             
     4  0  0.50       -82.4809   2.0000                                                             
     4  1  0.50       -50.4082   6.0000                                                             
     4  2  2.50        -5.9408   8.0000                                                             
     5  0  0.50        -4.2999   1.0000                                                             
     5  1  1.50        -1.3606   0.0000                                                             
     4  3  2.50        -1.3606   0.0000                                                             
   Description                                                                                      
     l       E           TYP  RCUT    TYP  RCUT                                                     
     2     -5.9407964     23  2.500                                                                 
     2     -7.3013790     23  2.500                                                                 
     0     -4.2998518     23  2.400                                                                 
     0      6.0533315     23  2.400                                                                 
     1     -4.0817478     23  2.700                                                                 
     1     27.2116520     23  2.700                                                                 
     3     -4.0817478     23  2.500                                                                 
  local pseudopotential read in
  partial core-charges read in
  partial kinetic energy density read in
  atomic valenz-charges read in
  non local Contribution for L=           2  read in
    real space projection operators read in
  non local Contribution for L=           2  read in
    real space projection operators read in
  non local Contribution for L=           0  read in
    real space projection operators read in
  non local Contribution for L=           0  read in
    real space projection operators read in
  non local Contribution for L=           1  read in
    real space projection operators read in
  non local Contribution for L=           1  read in
    real space projection operators read in
    PAW grid and wavefunctions read in
 
   number of l-projection  operators is LMAX  =           6
   number of lm-projection operators is LMMAX =          18
 
 POTCAR:    PAW_PBE N 08Apr2002                   
   VRHFIN =N: s2p3                                                                                  
   LEXCH  = PE                                                                                      
   EATOM  =   264.5486 eV,   19.4438 Ry                                                             
                                                                                                    
   TITEL  = PAW_PBE N 08Apr2002                                                                     
   LULTRA =        F    use ultrasoft PP ?                                                          
   IUNSCR =        1    unscreen: 0-lin 1-nonlin 2-no                                               
   RPACOR =    1.200    partial core radius                                                         
   POMASS =   14.001; ZVAL   =    5.000    mass and valenz                                          
   RCORE  =    1.500    outmost cutoff radius                                                       
   RWIGS  =    1.400; RWIGS  =    0.741    wigner-seitz radius (au A)                               
   ENMAX  =  400.000; ENMIN  =  300.000 eV                                                          
   ICORE  =        2    local potential                                                             
   LCOR   =        T    correct aug charges                                                         
   LPAW   =        T    paw PP                                                                      
   EAUG   =  627.112                                                                                
   DEXC   =    0.000                                                                                
   RMAX   =    1.529    core radius for proj-oper                                                   
   RAUG   =    1.300    factor for augmentation sphere                                              
   RDEP   =    1.514    radius for radial grids                                                     
   RDEPT  =    1.338    core radius for aug-charge                                                  
                                                                                                    
   Atomic configuration                                                                             
    4 entries                                                                                       
     n  l   j            E        occ.                                                              
     1  0  0.50      -384.7179   2.0000                                                             
     2  0  0.50       -18.5828   2.0000                                                             
     2  1  0.50        -7.0898   3.0000                                                             
     3  2  1.50        -6.8029   0.0000                                                             
   Description                                                                                      
     l       E           TYP  RCUT    TYP  RCUT                                                     
     0    -18.5828119     23  1.200                                                                 
     0    -13.5018863     23  1.200                                                                 
     1     -7.0897853     23  1.500                                                                 
     1      9.5240782     23  1.500                                                                 
     2     -6.8029130      7  1.500                                                                 
  local pseudopotential read in
  partial core-charges read in
  partial kinetic energy density read in
  atomic valenz-charges read in
  non local Contribution for L=           0  read in
    real space projection operators read in
  non local Contribution for L=           0  read in
    real space projection operators read in
  non local Contribution for L=           1  read in
    real space projection operators read in
  non local Contribution for L=           1  read in
    real space projection operators read in
    PAW grid and wavefunctions read in
 
   number of l-projection  operators is LMAX  =           4
   number of lm-projection operators is LMMAX =           8
 
 Optimization of the real space projectors (new method)

 maximal supplied QI-value         = 15.12
 optimisation between [QCUT,QGAM] = [ 11.34, 22.83] = [ 36.00,145.93] Ry 
 Optimized for a Real-space Cutoff    1.39 Angstroem

   l    n(q)    QCUT    max X(q) W(low)/X(q) W(high)/X(q)  e(spline) 
   2      9    11.338    60.898    0.39E-03    0.42E-03    0.21E-06
   2      9    11.338    58.894    0.40E-03    0.42E-03    0.22E-06
   0      9    11.338   109.617    0.13E-03    0.20E-04    0.13E-06
   0      9    11.338    75.026    0.13E-03    0.20E-04    0.13E-06
   1      9    11.338    16.344    0.33E-04    0.24E-03    0.18E-06
   1      9    11.338    10.160    0.26E-04    0.19E-03    0.15E-06
 Optimization of the real space projectors (new method)

 maximal supplied QI-value         = 13.98
 optimisation between [QCUT,QGAM] = [ 11.33, 22.79] = [ 35.93,145.49] Ry 
 Optimized for a Real-space Cutoff    1.47 Angstroem

   l    n(q)    QCUT    max X(q) W(low)/X(q) W(high)/X(q)  e(spline) 
   2      9    11.327    59.645    0.31E-03    0.12E-04    0.28E-06
   2      9    11.327    58.460    0.31E-03    0.12E-04    0.29E-06
   0     10    11.327    97.683    0.32E-04    0.83E-04    0.31E-06
   0     10    11.327    53.223    0.30E-04    0.78E-04    0.29E-06
   1     10    11.327    13.596    0.49E-03    0.95E-03    0.55E-06
   1     10    11.327     7.885    0.36E-03    0.71E-03    0.41E-06
 Optimization of the real space projectors (new method)

 maximal supplied QI-value         = 25.13
 optimisation between [QCUT,QGAM] = [ 11.31, 22.87] = [ 35.82,146.48] Ry 
 Optimized for a Real-space Cutoff    1.27 Angstroem

   l    n(q)    QCUT    max X(q) W(low)/X(q) W(high)/X(q)  e(spline) 
   0      9    11.310    79.467    0.75E-04    0.16E-03    0.36E-06
   0      9    11.310    66.151    0.74E-04    0.16E-03    0.36E-06
   1      8    11.310    17.416    0.35E-03    0.12E-03    0.95E-06
   1      8    11.310    12.382    0.37E-03    0.13E-03    0.98E-06
  PAW_PBE Au 04Oct2007                  :
 energy of atom  1       EATOM= -926.0867
 kinetic energy error for atom=    0.0042 (will be added to EATOM!!)
  PAW_PBE Rh 04Feb2005                  :
 energy of atom  2       EATOM= -616.4198
 kinetic energy error for atom=    0.0030 (will be added to EATOM!!)
  PAW_PBE N 08Apr2002                   :
 energy of atom  3       EATOM= -264.5486
 kinetic energy error for atom=    0.0138 (will be added to EATOM!!)
 
 
 POSCAR: Au-Rh-N
  positions in direct lattice
  velocities in cartesian coordinates
 exchange correlation table for  LEXCH =        8
   RHO(1)=    0.500       N(1)  =     2000
   RHO(2)=  100.500       N(2)  =     4000

 VTST: version 3.2, (02/03/18)

 CHAIN: initializing optimizer
 
 OPT: Using VASP Conjugate-Gradient optimizer
 CHAIN: Read ICHAIN            0
 
 POSCAR: Au-Rh-N
  positions in direct lattice
  velocities in cartesian coordinates
 


--------------------------------------------------------------------------------------------------------


 ion  position               nearest neighbor table
   1  0.000  0.000  0.238-  16 2.94  12 2.94   6 2.94   8 2.94   7 2.94   3 2.94  10 2.94   4 2.94
                             2 2.94
   2  0.333  0.000  0.238-   9 2.94  11 2.94  17 2.94  10 2.94   8 2.94   4 2.94   5 2.94   1 2.94
                             3 2.94
   3  0.667  0.000  0.238-   7 2.94  18 2.94  12 2.94   1 2.94  11 2.94   5 2.94   6 2.94   9 2.94
                             2 2.94
   4  0.000  0.333  0.238-  10 2.94   6 2.94   5 2.94  13 2.94   2 2.94  15 2.94   9 2.94   1 2.94
                             7 2.94
   5  0.333  0.333  0.238-  13 2.94   7 2.94  11 2.94   4 2.94   2 2.94  14 2.94   3 2.94   8 2.94
                             6 2.94
   6  0.667  0.333  0.238-  15 2.94  14 2.94   1 2.94  12 2.94   4 2.94   9 2.94   8 2.94   3 2.94
                             5 2.94
   7  0.000  0.667  0.238-  18 2.94   3 2.94  16 2.94   5 2.94   1 2.94  13 2.94   8 2.94   4 2.94
                             9 2.94
   8  0.333  0.667  0.238-   9 2.94  17 2.94   1 2.94   2 2.94  14 2.94  16 2.94   6 2.94   7 2.94
                             5 2.94
   9  0.667  0.667  0.238-   2 2.94   8 2.94  17 2.94   6 2.94  15 2.94   4 2.94   3 2.94  18 2.94
                             7 2.94
  10  0.111  0.111  0.346-  20 2.91  26 2.93  19 2.93  11 2.94  17 2.94   2 2.94   4 2.94   1 2.94
                            12 2.94  16 2.94  13 2.94  15 2.94
  11  0.444  0.111  0.346-  20 2.91  21 2.91  27 2.93  13 2.94   2 2.94  10 2.94  17 2.94   5 2.94
                             3 2.94  18 2.94  14 2.94  12 2.94
  12  0.778  0.111  0.346-  21 2.91  25 2.93  19 2.93  16 2.94  18 2.94   1 2.94  14 2.94  15 2.94
                             3 2.94   6 2.94  10 2.94  11 2.94
  13  0.111  0.444  0.346-  23 2.91  20 2.91  22 2.93   5 2.94  18 2.94  11 2.94   7 2.94   4 2.94
                            16 2.94  10 2.94  14 2.94  15 2.94
  14  0.444  0.444  0.346-  21 2.91  23 2.91  24 2.93  15 2.94   6 2.94  12 2.94   8 2.94  17 2.94
                             5 2.94  16 2.94  13 2.94  11 2.94
  15  0.778  0.444  0.346-  24 2.93  22 2.93  19 2.93  14 2.94   6 2.94  17 2.94  12 2.94   9 2.94
                             4 2.94  10 2.94  13 2.94  18 2.94
  16  0.111  0.778  0.346-  23 2.91  25 2.93  26 2.93  18 2.94  12 2.94   7 2.94   1 2.94   8 2.94
                            13 2.94  10 2.94  14 2.94  17 2.94
  17  0.444  0.778  0.346-  27 2.93  24 2.93  26 2.93   9 2.94  15 2.94   2 2.94  10 2.94  11 2.94
                             8 2.94  14 2.94  16 2.94  18 2.94
  18  0.778  0.778  0.346-  22 2.93  27 2.93  25 2.93  16 2.94   7 2.94  13 2.94  12 2.94   3 2.94
                            11 2.94   9 2.94  15 2.94  17 2.94
  19  0.889  0.222  0.454-  15 2.93  10 2.93  12 2.93  21 2.94  20 2.94  24 2.94  22 2.94  26 2.94
                            25 2.94  28 2.96  32 2.96  31 2.96
  20  0.222  0.222  0.453-  36 2.79  10 2.91  11 2.91  13 2.91  26 2.94  19 2.94  23 2.94  21 2.94
                            27 2.94  22 2.94  29 2.95  31 2.95
  21  0.556  0.222  0.453-  36 2.79  12 2.91  14 2.91  11 2.91  25 2.94  19 2.94  20 2.94  23 2.94
                            27 2.94  24 2.94  30 2.95  32 2.95
  22  0.888  0.556  0.454-  24 2.92  27 2.92  18 2.93  15 2.93  13 2.93  25 2.94  19 2.94  23 2.94
                            20 2.94  33 2.95  31 2.95  35 2.96
  23  0.222  0.556  0.453-  36 2.79  16 2.91  13 2.91  14 2.91  25 2.94  26 2.94  20 2.94  21 2.94
                            22 2.94  24 2.94  33 2.95  34 2.95
  24  0.556  0.556  0.454-  27 2.92  22 2.92  15 2.93  17 2.93  14 2.93  26 2.94  19 2.94  21 2.94
                            23 2.94  32 2.95  34 2.95  35 2.96
  25  0.889  0.889  0.454-  18 2.93  16 2.93  12 2.93  23 2.94  21 2.94  22 2.94  27 2.94  19 2.94
                            26 2.94  28 2.96  33 2.96  30 2.96
  26  0.222  0.889  0.454-  17 2.93  10 2.93  16 2.93  20 2.94  23 2.94  27 2.94  24 2.94  19 2.94
                            25 2.94  28 2.96  29 2.96  34 2.96
  27  0.556  0.888  0.454-  24 2.92  22 2.92  17 2.93  18 2.93  11 2.93  26 2.94  25 2.94  20 2.94
                            21 2.94  29 2.95  30 2.95  35 2.96
  28  0.000  0.000  0.563-  34 2.95  32 2.95  33 2.95  30 2.95  31 2.95  29 2.95  25 2.96  19 2.96
                            26 2.96
  29  0.333  0.004  0.562-  31 2.90  30 2.90  36 2.91  20 2.95  27 2.95  28 2.95  35 2.96  26 2.96
                            34 3.01
  30  0.663  0.004  0.562-  32 2.90  29 2.90  36 2.91  21 2.95  27 2.95  28 2.95  35 2.96  25 2.96
                            33 3.01
  31  0.004  0.333  0.562-  29 2.90  33 2.90  36 2.91  20 2.95  22 2.95  28 2.95  35 2.96  19 2.96
                            32 3.01
  32  0.663  0.333  0.562-  30 2.90  34 2.90  36 2.91  21 2.95  24 2.95  28 2.95  35 2.96  19 2.96
                            31 3.01
  33  0.004  0.663  0.562-  34 2.90  31 2.90  36 2.91  23 2.95  22 2.95  28 2.95  35 2.96  25 2.96
                            30 3.01
  34  0.333  0.663  0.562-  33 2.90  32 2.90  36 2.91  23 2.95  24 2.95  28 2.95  35 2.96  26 2.96
                            29 3.01
  35  0.667  0.667  0.563-  29 2.96  34 2.96  32 2.96  31 2.96  30 2.96  33 2.96  24 2.96  27 2.96
                            22 2.96
  36  0.333  0.333  0.552-  37 1.67  20 2.79  23 2.79  21 2.79  33 2.91  31 2.91  29 2.91  30 2.91
                            34 2.91  32 2.91
  37  0.333  0.333  0.627-  36 1.67
 
  LATTYP: Found a hexagonal cell.
 ALAT       =     8.8135128021
 C/A-ratio  =     2.5184286595
  
  Lattice vectors:
  
 A1 = (  -4.4067569092,  -7.6327256898,   0.0000000000)
 A2 = (   8.8135128021,   0.0000000000,   0.0000000000)
 A3 = (   0.0000000000,   0.0000000000,  22.1962032318)


Analysis of symmetry for initial positions (statically):
=====================================================================
 Subroutine PRICEL returns:
 Original cell was already a primitive cell.
 

 Routine SETGRP: Setting up the symmetry group for a 
 hexagonal supercell.


 Subroutine GETGRP returns: Found  6 space group operations
 (whereof  6 operations were pure point group operations)
 out of a pool of 24 trial point group operations.


The static configuration has the point symmetry C_3v.


Analysis of symmetry for dynamics (positions and initial velocities):
=====================================================================
 Subroutine PRICEL returns:
 Original cell was already a primitive cell.
 

 Routine SETGRP: Setting up the symmetry group for a 
 hexagonal supercell.


 Subroutine GETGRP returns: Found  6 space group operations
 (whereof  6 operations were pure point group operations)
 out of a pool of 24 trial point group operations.


The dynamic configuration has the point symmetry C_3v.


Analysis of constrained symmetry for selective dynamics:
=====================================================================
 Subroutine PRICEL returns:
 Original cell was already a primitive cell.
 

 Routine SETGRP: Setting up the symmetry group for a 
 hexagonal supercell.


 Subroutine GETGRP returns: Found  6 space group operations
 (whereof  6 operations were pure point group operations)
 out of a pool of 24 trial point group operations.


The constrained configuration has the point symmetry C_3v.


 Subroutine INISYM returns: Found  6 space group operations
 (whereof  6 operations are pure point group operations),
 and found     1 'primitive' translations


----------------------------------------------------------------------------------------

                                     Primitive cell                                     

  volume of cell :    1493.1636

  direct lattice vectors                    reciprocal lattice vectors
     8.813512802  0.000000000  0.000000000     0.113462137 -0.065507406  0.000000000
     4.406756909  7.632725690  0.000000000     0.000000000  0.131014796  0.000000000
     0.000000000  0.000000000 22.196203232     0.000000000  0.000000000  0.045052750

  length of vectors
     8.813512802  8.813512802 22.196203232     0.131014796  0.131014796  0.045052750

  position of ions in fractional coordinates (direct lattice)
     0.000000000  0.000000000  0.237895638
     0.333333343  0.000000000  0.237895638
     0.666666687  0.000000000  0.237895638
     1.000000000  0.333333343  0.237895638
     0.333333313  0.333333343  0.237895638
     0.666666687  0.333333343  0.237895638
     1.000000000  0.666666687  0.237895638
     0.333333343  0.666666687  0.237895638
     0.666666627  0.666666687  0.237895638
     0.111111119  0.111111112  0.345965207
     0.444444418  0.111111112  0.345965207
     0.777777791  0.111111112  0.345965207
     0.111111127  0.444444448  0.345965207
     0.444444478  0.444444448  0.345965207
     0.777777731  0.444444448  0.345965207
     0.111111090  0.777777791  0.345965207
     0.444444448  0.777777791  0.345965207
     0.777777851  0.777777791  0.345965207
     0.888885966  0.222228083  0.453813970
     0.222130795  0.222130780  0.452663827
     0.555738470  0.222130780  0.452663827
     0.887850721  0.556074669  0.453573098
     0.222130750  0.555738470  0.452663827
     0.556074669  0.556074669  0.453573098
     0.888885966  0.888885966  0.453813970
     0.222228113  0.888885966  0.453813970
     0.556074609  0.887850721  0.453573098
     0.000000000  0.000000000  0.562921105
     0.333260888  0.003984955  0.562188379
     0.662754188  0.003984955  0.562188379
     0.003984955  0.333260888  0.562188379
     0.662754188  0.333260888  0.562188379
     0.003984955  0.662754188  0.562188379
     0.333260888  0.662754188  0.562188379
     0.666666627  0.666666687  0.562917062
     0.333333313  0.333333343  0.552402061
     0.333333313  0.333333343  0.627431377

  ion indices of the primitive-cell ions
   primitive index   ion index
                 1           1
                 2           2
                 3           3
                 4           4
                 5           5
                 6           6
                 7           7
                 8           8
                 9           9
                10          10
                11          11
                12          12
                13          13
                14          14
                15          15
                16          16
                17          17
                18          18
                19          19
                20          20
                21          21
                22          22
                23          23
                24          24
                25          25
                26          26
                27          27
                28          28
                29          29
                30          30
                31          31
                32          32
                33          33
                34          34
                35          35
                36          36
                37          37

----------------------------------------------------------------------------------------

 
 
 KPOINTS: Automatic mesh                          

Automatic generation of k-mesh.
 Grid dimensions read from file:
 generate k-points for:    8    8    1

 Generating k-lattice:

  Cartesian coordinates                     Fractional coordinates (reciprocal lattice)
     0.014182767 -0.008188426  0.000000000     0.125000000 -0.000000000  0.000000000
     0.000000000  0.016376850  0.000000000     0.000000000  0.125000000  0.000000000
     0.000000000  0.000000000  0.045052750     0.000000000  0.000000000  1.000000000

  Length of vectors
     0.016376850  0.016376850  0.045052750

  Shift w.r.t. Gamma in fractional coordinates (k-lattice)
     0.000000000  0.000000000  0.000000000

 TETIRR: Found     36 inequivalent tetrahedra from      384
 
 Subroutine IBZKPT returns following result:
 ===========================================
 
 Found     10 irreducible k-points:
 
 Following reciprocal coordinates:
            Coordinates               Weight
  0.000000  0.000000  0.000000      1.000000
  0.125000 -0.000000  0.000000      6.000000
  0.250000 -0.000000  0.000000      6.000000
  0.375000  0.000000  0.000000      6.000000
  0.500000 -0.000000  0.000000      3.000000
  0.250000  0.125000  0.000000      6.000000
  0.375000  0.125000  0.000000     12.000000
  0.500000  0.125000  0.000000     12.000000
  0.500000  0.250000  0.000000      6.000000
 -0.375000  0.250000  0.000000      6.000000
 
 Following cartesian coordinates:
            Coordinates               Weight
  0.000000  0.000000  0.000000      1.000000
  0.014183 -0.008188  0.000000      6.000000
  0.028366 -0.016377  0.000000      6.000000
  0.042548 -0.024565  0.000000      6.000000
  0.056731 -0.032754  0.000000      3.000000
  0.028366 -0.000000  0.000000      6.000000
  0.042548 -0.008188  0.000000     12.000000
  0.056731 -0.016377  0.000000     12.000000
  0.056731 -0.000000  0.000000      6.000000
 -0.042548  0.057319  0.000000      6.000000
 


--------------------------------------------------------------------------------------------------------




 Dimension of arrays:
   k-points           NKPTS =     10   k-points in BZ     NKDIM =     10   number of bands    NBANDS=    252
   number of dos      NEDOS =    301   number of ions     NIONS =     37
   non local maximal  LDIM  =      6   non local SUM 2l+1 LMDIM =     18
   total plane-waves  NPLWV = 290304
   max r-space proj   IRMAX =   2660   max aug-charges    IRDMAX=  12088
   dimension x,y,z NGX =    48 NGY =   48 NGZ =  126
   dimension x,y,z NGXF=    96 NGYF=   96 NGZF=  252
   support grid    NGXF=    96 NGYF=   96 NGZF=  252
   ions per type =              35   1   1
   NGX,Y,Z   is equivalent  to a cutoff of   9.05,  9.05,  9.44 a.u.
   NGXF,Y,Z  is equivalent  to a cutoff of  18.11, 18.11, 18.87 a.u.

 SYSTEM =  unknown system                          
 POSCAR =  Au-Rh-N                                 

 Startparameter for this run:
   NWRITE =      2    write-flag & timer
   PREC   = normal    normal or accurate (medium, high low for compatibility)
   ISTART =      0    job   : 0-new  1-cont  2-samecut
   ICHARG =     11    charge: 1-file 2-atom 10-const
   ISPIN  =      1    spin polarized calculation?
   LNONCOLLINEAR =      F non collinear calculations
   LSORBIT =      F    spin-orbit coupling
   INIWAV =      1    electr: 0-lowe 1-rand  2-diag
   LASPH  =      F    aspherical Exc in radial PAW
   METAGGA=      F    non-selfconsistent MetaGGA calc.

 Electronic Relaxation 1
   ENCUT  =  500.0 eV  36.75 Ry    6.06 a.u.  16.07 16.07 40.47*2*pi/ulx,y,z
   ENINI  =  500.0     initial cutoff
   ENAUG  =  627.1 eV  augmentation charge cutoff
   NELM   =    150;   NELMIN=  2; NELMDL= -5     # of ELM steps 
   EDIFF  = 0.1E-04   stopping-criterion for ELM
   LREAL  =      T    real-space projection
   NLSPLINE    = F    spline interpolate recip. space projectors
   LCOMPAT=      F    compatible to vasp.4.4
   GGA_COMPAT  = T    GGA compatible to vasp.4.4-vasp.4.6
   LMAXPAW     = -100 max onsite density
   LMAXMIX     =    2 max onsite mixed and CHGCAR
   VOSKOWN=      0    Vosko Wilk Nusair interpolation
   ROPT   =   -0.00050  -0.00050  -0.00050
 Ionic relaxation
   EDIFFG = -.1E-01   stopping-criterion for IOM
   NSW    =      0    number of steps for IOM
   NBLOCK =      1;   KBLOCK =      1    inner block; outer block 
   IBRION =     -1    ionic relax: 0-MD 1-quasi-New 2-CG
   NFREE  =      1    steps in history (QN), initial steepest desc. (CG)
   ISIF   =      2    stress and relaxation
   IWAVPR =     10    prediction:  0-non 1-charg 2-wave 3-comb
   ISYM   =      2    0-nonsym 1-usesym 2-fastsym
   LCORR  =      T    Harris-Foulkes like correction to forces

   POTIM  = 0.5000    time-step for ionic-motion
   TEIN   =    0.0    initial temperature
   TEBEG  =    0.0;   TEEND  =   0.0 temperature during run
   SMASS  =  -3.00    Nose mass-parameter (am)
   estimated Nose-frequenzy (Omega)   =  0.10E-29 period in steps = 0.13E+47 mass=  -0.178E-26a.u.
   SCALEE = 1.0000    scale energy and forces
   NPACO  =    256;   APACO  = 16.0  distance and # of slots for P.C.
   PSTRESS=    0.0 pullay stress

  Mass of Ions in am
   POMASS = 196.97102.91 14.00
  Ionic Valenz
   ZVAL   =  11.00  9.00  5.00
  Atomic Wigner-Seitz radii
   RWIGS  =  -1.00 -1.00 -1.00
  virtual crystal weights 
   VCA    =   1.00  1.00  1.00
   NELECT =     399.0000    total number of electrons
   NUPDOWN=      -1.0000    fix difference up-down

 DOS related values:
   EMIN   =  10.00;   EMAX   =-10.00  energy-range for DOS
   EFERMI =   0.00
   ISMEAR =    -5;   SIGMA  =   0.10  broadening in eV -4-tet -1-fermi 0-gaus

 Electronic relaxation 2 (details)
   IALGO  =     68    algorithm
   LDIAG  =      T    sub-space diagonalisation (order eigenvalues)
   LSUBROT=      F    optimize rotation matrix (better conditioning)
   TURBO    =      0    0=normal 1=particle mesh
   IRESTART =      0    0=no restart 2=restart with 2 vectors
   NREBOOT  =      0    no. of reboots
   NMIN     =      0    reboot dimension
   EREF     =   0.00    reference energy to select bands
   IMIX   =      4    mixing-type and parameters
     AMIX     =   0.40;   BMIX     =  1.00
     AMIX_MAG =   1.60;   BMIX_MAG =  1.00
     AMIN     =   0.10
     WC   =   100.;   INIMIX=   1;  MIXPRE=   1;  MAXMIX= -45

 Intra band minimization:
   WEIMIN = 0.0000     energy-eigenvalue tresh-hold
   EBREAK =  0.99E-08  absolut break condition
   DEPER  =   0.30     relativ break condition  

   TIME   =   0.40     timestep for ELM

  volume/ion in A,a.u.               =      40.36       272.33
  Fermi-wavevector in a.u.,A,eV,Ry     =   1.054460  1.992640 15.128118  1.111885
  Thomas-Fermi vector in A             =   2.189621
 
 Write flags
   LWAVE        =      F    write WAVECAR
   LDOWNSAMPLE  =      F    k-point downsampling of WAVECAR
   LCHARG       =      F    write CHGCAR
   LVTOT        =      F    write LOCPOT, total local potential
   LVHAR        =      F    write LOCPOT, Hartree potential only
   LELF         =      F    write electronic localiz. function (ELF)
   LORBIT       =     10    0 simple, 1 ext, 2 COOP (PROOUT), +10 PAW based schemes


 Dipole corrections
   LMONO  =      F    monopole corrections only (constant potential shift)
   LDIPOL =      F    correct potential (dipole corrections)
   IDIPOL =      0    1-x, 2-y, 3-z, 4-all directions 
   EPSILON=  1.0000000 bulk dielectric constant

 Exchange correlation treatment:
   GGA     =    --    GGA type
   LEXCH   =     8    internal setting for exchange type
   VOSKOWN=      0    Vosko Wilk Nusair interpolation
   LHFCALC =     F    Hartree Fock is set to
   LHFONE  =     F    Hartree Fock one center treatment
   AEXX    =    0.0000 exact exchange contribution

 Linear response parameters
   LEPSILON=     F    determine dielectric tensor
   LRPA    =     F    only Hartree local field effects (RPA)
   LNABLA  =     F    use nabla operator in PAW spheres
   LVEL    =     F    velocity operator in full k-point grid
   LINTERFAST=   F  fast interpolation
   KINTER  =     0    interpolate to denser k-point grid
   CSHIFT  =0.1000    complex shift for real part using Kramers Kronig
   OMEGAMAX=  -1.0    maximum frequency
   DEG_THRESHOLD= 0.2000000E-02 threshold for treating states as degnerate
   RTIME   =   -0.100 relaxation time in fs
  (WPLASMAI=    0.000 imaginary part of plasma frequency in eV, 0.658/RTIME)
   DFIELD  = 0.0000000 0.0000000 0.0000000 field for delta impulse in time
 
 Orbital magnetization related:
   ORBITALMAG=     F  switch on orbital magnetization
   LCHIMAG   =     F  perturbation theory with respect to B field
   DQ        =  0.001000  dq finite difference perturbation B field
   LLRAUG    =     F  two centre corrections for induced B field



--------------------------------------------------------------------------------------------------------


 Static calculation
 charge density and potential remain constant during run
 non-spin polarized calculation
 RMM-DIIS sequential band-by-band and
  variant of blocked Davidson during initial phase
 perform sub-space diagonalisation
    before iterative eigenvector-optimisation
 no mixing
 using additional bands           52
 real space projection scheme for non local part
 use partial core corrections
 calculate Harris-corrections to forces 
   (improved forces if not selfconsistent)
 use gradient corrections 
 WARNING: stress and forces are not correct
  (second derivative of E(xc) not defined)
 use of overlap-Matrix (Vanderbilt PP)
 Fermi weights with tetrahedron method with Bloechl corrections


--------------------------------------------------------------------------------------------------------


  energy-cutoff  :      500.00
  volume of cell :     1493.16
      direct lattice vectors                 reciprocal lattice vectors
     8.813512802  0.000000000  0.000000000     0.113462137 -0.065507406  0.000000000
     4.406756909  7.632725690  0.000000000     0.000000000  0.131014796  0.000000000
     0.000000000  0.000000000 22.196203232     0.000000000  0.000000000  0.045052750

  length of vectors
     8.813512802  8.813512802 22.196203232     0.131014796  0.131014796  0.045052750


 
 k-points in units of 2pi/SCALE and weight: Automatic mesh                          
   0.00000000  0.00000000  0.00000000       0.016
   0.01418277 -0.00818843  0.00000000       0.094
   0.02836553 -0.01637685  0.00000000       0.094
   0.04254830 -0.02456528  0.00000000       0.094
   0.05673107 -0.03275370  0.00000000       0.047
   0.02836553 -0.00000000  0.00000000       0.094
   0.04254830 -0.00818843  0.00000000       0.188
   0.05673107 -0.01637685  0.00000000       0.188
   0.05673107 -0.00000000  0.00000000       0.094
  -0.04254830  0.05731898  0.00000000       0.094
 
 k-points in reciprocal lattice and weights: Automatic mesh                          
   0.00000000  0.00000000  0.00000000       0.016
   0.12500000 -0.00000000  0.00000000       0.094
   0.25000000 -0.00000000  0.00000000       0.094
   0.37500000  0.00000000  0.00000000       0.094
   0.50000000 -0.00000000  0.00000000       0.047
   0.25000000  0.12500000  0.00000000       0.094
   0.37500000  0.12500000  0.00000000       0.188
   0.50000000  0.12500000  0.00000000       0.188
   0.50000000  0.25000000  0.00000000       0.094
  -0.37500000  0.25000000  0.00000000       0.094
 
 position of ions in fractional coordinates (direct lattice) 
   0.00000000  0.00000000  0.23789564
   0.33333334  0.00000000  0.23789564
   0.66666669  0.00000000  0.23789564
   0.00000000  0.33333334  0.23789564
   0.33333331  0.33333334  0.23789564
   0.66666669  0.33333334  0.23789564
   0.00000000  0.66666669  0.23789564
   0.33333334  0.66666669  0.23789564
   0.66666663  0.66666669  0.23789564
   0.11111112  0.11111111  0.34596521
   0.44444442  0.11111111  0.34596521
   0.77777779  0.11111111  0.34596521
   0.11111113  0.44444445  0.34596521
   0.44444448  0.44444445  0.34596521
   0.77777773  0.44444445  0.34596521
   0.11111109  0.77777779  0.34596521
   0.44444445  0.77777779  0.34596521
   0.77777785  0.77777779  0.34596521
   0.88888597  0.22222808  0.45381397
   0.22213079  0.22213078  0.45266383
   0.55573847  0.22213078  0.45266383
   0.88785072  0.55607467  0.45357310
   0.22213075  0.55573847  0.45266383
   0.55607467  0.55607467  0.45357310
   0.88888597  0.88888597  0.45381397
   0.22222811  0.88888597  0.45381397
   0.55607461  0.88785072  0.45357310
   0.00000000  0.00000000  0.56292110
   0.33326089  0.00398495  0.56218838
   0.66275419  0.00398495  0.56218838
   0.00398495  0.33326089  0.56218838
   0.66275419  0.33326089  0.56218838
   0.00398495  0.66275419  0.56218838
   0.33326089  0.66275419  0.56218838
   0.66666663  0.66666669  0.56291706
   0.33333331  0.33333334  0.55240206
   0.33333331  0.33333334  0.62743138
 
 position of ions in cartesian coordinates  (Angst):
   0.00000000  0.00000000  5.28037993
   2.93783769  0.00000000  5.28037993
   5.87567538  0.00000000  5.28037993
   1.46891901  2.54424197  5.28037993
   4.40675643  2.54424197  5.28037993
   7.34459439  2.54424197  5.28037993
   2.93783803  5.08848395  5.28037993
   5.87567571  5.08848395  5.28037993
   8.81351288  5.08848395  5.28037993
   1.46891893  0.84808064  7.67911405
   4.40675623  0.84808064  7.67911405
   7.34459418  0.84808064  7.67911405
   2.93783798  3.39232256  7.67911405
   5.87567574  3.39232256  7.67911405
   8.81351263  3.39232256  7.67911405
   4.40675667  5.93656453  7.67911405
   7.34459449  5.93656453  7.67911405
  10.28243270  5.93656453  7.67911405
   8.81351299  1.69620600 10.07294710
   2.93662895  1.69546331 10.04741830
   5.87688447  1.69546331 10.04741830
  10.27556959  4.24436541 10.06760067
   4.40675655  4.24179930 10.04741830
   7.35145711  4.24436541 10.06760067
  11.75131222  6.78462275 10.07294710
   5.87571470  6.78462275 10.07294710
   8.81351299  6.77672101 10.06760067
   0.00000000  0.00000000 12.49471124
   2.95475983  0.03041607 12.47844752
   5.85875324  0.03041607 12.47844752
   1.50372117  2.54368894 12.47844752
   7.30979224  2.54368894 12.47844752
   2.95571804  5.05862091 12.47844752
   5.85779570  5.05862091 12.47844752
   8.81351288  5.08848395 12.49462150
   4.40675643  2.54424197 12.26122842
   4.40675643  2.54424197 13.92659436
 


--------------------------------------------------------------------------------------------------------


 k-point   1 :   0.0000 0.0000 0.0000  plane waves:   37827
 k-point   2 :   0.1250-0.0000 0.0000  plane waves:   37876
 k-point   3 :   0.2500-0.0000 0.0000  plane waves:   37924
 k-point   4 :   0.3750 0.0000 0.0000  plane waves:   37904
 k-point   5 :   0.5000-0.0000 0.0000  plane waves:   37912
 k-point   6 :   0.2500 0.1250 0.0000  plane waves:   37858
 k-point   7 :   0.3750 0.1250 0.0000  plane waves:   37928
 k-point   8 :   0.5000 0.1250 0.0000  plane waves:   37924
 k-point   9 :   0.5000 0.2500 0.0000  plane waves:   37926
 k-point  10 :  -0.3750 0.2500 0.0000  plane waves:   37916

 maximum and minimum number of plane-waves per node :     37928    37827

 maximum number of plane-waves:     37928
 maximum index in each direction: 
   IXMAX=   16   IYMAX=   16   IZMAX=   40
   IXMIN=  -16   IYMIN=  -16   IZMIN=  -40


 serial   3D FFT for wavefunctions
 parallel 3D FFT for charge:
    minimum data exchange during FFTs selected (reduces bandwidth)


 total amount of memory used by VASP MPI-rank0   122252. kBytes
=======================================================================

   base      :      30000. kBytes
   nonlr-proj:      13867. kBytes
   fftplans  :       4330. kBytes
   grid      :      17879. kBytes
   one-center:        575. kBytes
   wavefun   :      55601. kBytes
 
     INWAV:  cpu time    0.0000: real time    0.0000
 initial charge density was supplied:
 number of electron     398.9999950 magnetization 
 keeping initial charge density in first step


--------------------------------------------------------------------------------------------------------


 Maximum index for non-local projection operator         2518
 Maximum index for augmentation-charges          858 (set IRDMAX)


--------------------------------------------------------------------------------------------------------


 First call to EWALD:  gamma=   0.155
 Maximum number of real-space cells 4x 4x 2
 Maximum number of reciprocal cells 2x 2x 5

    FEWALD:  cpu time    0.0013: real time    0.0013


--------------------------------------- Iteration      1(   1)  ---------------------------------------


    POTLOK:  cpu time    0.0437: real time    0.0441
    SETDIJ:  cpu time    0.0049: real time    0.0050
     EDDAV:  cpu time    7.1293: real time    7.1310
 BZINTS: Fermi energy:   11.336075;  399.000000 electrons
         Band energy: 0.154018E+04;  BLOECHL correction:   -0.015041
       DOS:  cpu time    0.0099: real time    0.0128
    --------------------------------------------
      LOOP:  cpu time    7.1878: real time    7.1928

 eigenvalue-minimisations  :  5040
 total energy-change (2. order) : 0.2630456E+04  (-0.1813429E+05)
 number of electron     398.9999950 magnetization 
 augmentation part      398.9999950 magnetization 

 Free energy of the ion-electron system (eV)
  ---------------------------------------------------
  alpha Z        PSCENC =      1012.58059061
  Ewald energy   TEWEN  =     97176.79283772
  -Hartree energ DENC   =   -131679.40720790
  -exchange      EXHF   =         0.00000000
  -V(xc)+E(xc)   XCENC  =       519.63706532
  PAW double counting   =     36439.34702564   -35672.51344126
  entropy T*S    EENTRO =         0.00000000
  eigenvalues    EBANDS =      1540.18095979
  atomic energy  EATOM  =     33293.83788419
  Solvation  Ediel_sol  =         0.00000000
  ---------------------------------------------------
  free energy    TOTEN  =      2630.45571411 eV

  energy without entropy =     2630.45571411  energy(sigma->0) =     2630.45571411


--------------------------------------------------------------------------------------------------------




--------------------------------------- Iteration      1(   2)  ---------------------------------------


     EDDAV:  cpu time    7.7476: real time    7.7477
 BZINTS: Fermi energy:    1.414599;  399.000000 electrons
         Band energy:-0.108140E+04;  BLOECHL correction:   -0.080723
       DOS:  cpu time    0.0095: real time    0.0095
    --------------------------------------------
      LOOP:  cpu time    7.7571: real time    7.7572

 eigenvalue-minimisations  :  5628
 total energy-change (2. order) :-0.2621578E+04  (-0.2429636E+04)
 number of electron     398.9999950 magnetization 
 augmentation part      398.9999950 magnetization 

 Free energy of the ion-electron system (eV)
  ---------------------------------------------------
  alpha Z        PSCENC =      1012.58059061
  Ewald energy   TEWEN  =     97176.79283772
  -Hartree energ DENC   =   -131679.40720790
  -exchange      EXHF   =         0.00000000
  -V(xc)+E(xc)   XCENC  =       519.63706532
  PAW double counting   =     36439.34702564   -35672.51344126
  entropy T*S    EENTRO =         0.00000000
  eigenvalues    EBANDS =     -1081.39701044
  atomic energy  EATOM  =     33293.83788419
  Solvation  Ediel_sol  =         0.00000000
  ---------------------------------------------------
  free energy    TOTEN  =         8.87774389 eV

  energy without entropy =        8.87774389  energy(sigma->0) =        8.87774389


--------------------------------------------------------------------------------------------------------




--------------------------------------- Iteration      1(   3)  ---------------------------------------


     EDDAV:  cpu time    8.0517: real time    8.0518
 BZINTS: Fermi energy:    0.755274;  399.000000 electrons
         Band energy:-0.120721E+04;  BLOECHL correction:   -0.089271
       DOS:  cpu time    0.0102: real time    0.0102
    --------------------------------------------
      LOOP:  cpu time    8.0620: real time    8.0621

 eigenvalue-minimisations  :  5880
 total energy-change (2. order) :-0.1258167E+03  (-0.1215793E+03)
 number of electron     398.9999950 magnetization 
 augmentation part      398.9999950 magnetization 

 Free energy of the ion-electron system (eV)
  ---------------------------------------------------
  alpha Z        PSCENC =      1012.58059061
  Ewald energy   TEWEN  =     97176.79283772
  -Hartree energ DENC   =   -131679.40720790
  -exchange      EXHF   =         0.00000000
  -V(xc)+E(xc)   XCENC  =       519.63706532
  PAW double counting   =     36439.34702564   -35672.51344126
  entropy T*S    EENTRO =         0.00000000
  eigenvalues    EBANDS =     -1207.21374242
  atomic energy  EATOM  =     33293.83788419
  Solvation  Ediel_sol  =         0.00000000
  ---------------------------------------------------
  free energy    TOTEN  =      -116.93898809 eV

  energy without entropy =     -116.93898809  energy(sigma->0) =     -116.93898809


--------------------------------------------------------------------------------------------------------




--------------------------------------- Iteration      1(   4)  ---------------------------------------


     EDDAV:  cpu time    7.6357: real time    7.6359
 BZINTS: Fermi energy:    0.740329;  399.000000 electrons
         Band energy:-0.120982E+04;  BLOECHL correction:   -0.087181
       DOS:  cpu time    0.0098: real time    0.0098
    --------------------------------------------
      LOOP:  cpu time    7.6456: real time    7.6457

 eigenvalue-minimisations  :  5516
 total energy-change (2. order) :-0.2609222E+01  (-0.2604158E+01)
 number of electron     398.9999950 magnetization 
 augmentation part      398.9999950 magnetization 

 Free energy of the ion-electron system (eV)
  ---------------------------------------------------
  alpha Z        PSCENC =      1012.58059061
  Ewald energy   TEWEN  =     97176.79283772
  -Hartree energ DENC   =   -131679.40720790
  -exchange      EXHF   =         0.00000000
  -V(xc)+E(xc)   XCENC  =       519.63706532
  PAW double counting   =     36439.34702564   -35672.51344126
  entropy T*S    EENTRO =         0.00000000
  eigenvalues    EBANDS =     -1209.82296401
  atomic energy  EATOM  =     33293.83788419
  Solvation  Ediel_sol  =         0.00000000
  ---------------------------------------------------
  free energy    TOTEN  =      -119.54820968 eV

  energy without entropy =     -119.54820968  energy(sigma->0) =     -119.54820968


--------------------------------------------------------------------------------------------------------




--------------------------------------- Iteration      1(   5)  ---------------------------------------


     EDDAV:  cpu time    8.6917: real time    8.6918
 BZINTS: Fermi energy:    0.740046;  399.000000 electrons
         Band energy:-0.120991E+04;  BLOECHL correction:   -0.087151
       DOS:  cpu time    0.0102: real time    0.0102
    --------------------------------------------
      LOOP:  cpu time    8.7020: real time    8.7021

 eigenvalue-minimisations  :  6440
 total energy-change (2. order) :-0.9020612E-01  (-0.9020496E-01)
 number of electron     398.9999950 magnetization 
 augmentation part      398.9999950 magnetization 

 Free energy of the ion-electron system (eV)
  ---------------------------------------------------
  alpha Z        PSCENC =      1012.58059061
  Ewald energy   TEWEN  =     97176.79283772
  -Hartree energ DENC   =   -131679.40720790
  -exchange      EXHF   =         0.00000000
  -V(xc)+E(xc)   XCENC  =       519.63706532
  PAW double counting   =     36439.34702564   -35672.51344126
  entropy T*S    EENTRO =         0.00000000
  eigenvalues    EBANDS =     -1209.91317013
  atomic energy  EATOM  =     33293.83788419
  Solvation  Ediel_sol  =         0.00000000
  ---------------------------------------------------
  free energy    TOTEN  =      -119.63841581 eV

  energy without entropy =     -119.63841581  energy(sigma->0) =     -119.63841581


--------------------------------------------------------------------------------------------------------




--------------------------------------- Iteration      1(   6)  ---------------------------------------


    EDDIAG:  cpu time    1.3947: real time    1.3949
  RMM-DIIS:  cpu time    3.9713: real time    3.9713
    ORTHCH:  cpu time    0.2607: real time    0.2607
 BZINTS: Fermi energy:    0.740046;  399.000000 electrons
         Band energy:-0.120992E+04;  BLOECHL correction:   -0.087151
       DOS:  cpu time    0.0100: real time    0.0100
    --------------------------------------------
      LOOP:  cpu time    5.6367: real time    5.6370

 eigenvalue-minimisations  :  5124
 total energy-change (2. order) :-0.1842624E-02  (-0.1842623E-02)
 number of electron     398.9999950 magnetization 
 augmentation part      398.9999950 magnetization 

 Free energy of the ion-electron system (eV)
  ---------------------------------------------------
  alpha Z        PSCENC =      1012.58059061
  Ewald energy   TEWEN  =     97176.79283772
  -Hartree energ DENC   =   -131679.40720790
  -exchange      EXHF   =         0.00000000
  -V(xc)+E(xc)   XCENC  =       519.63706532
  PAW double counting   =     36439.34702564   -35672.51344126
  entropy T*S    EENTRO =         0.00000000
  eigenvalues    EBANDS =     -1209.91501276
  atomic energy  EATOM  =     33293.83788419
  Solvation  Ediel_sol  =         0.00000000
  ---------------------------------------------------
  free energy    TOTEN  =      -119.64025843 eV

  energy without entropy =     -119.64025843  energy(sigma->0) =     -119.64025843


--------------------------------------------------------------------------------------------------------




--------------------------------------- Iteration      1(   7)  ---------------------------------------


    EDDIAG:  cpu time    1.3952: real time    1.3953
  RMM-DIIS:  cpu time    5.4054: real time    5.4054
    ORTHCH:  cpu time    0.2607: real time    0.2607
 BZINTS: Fermi energy:    0.740046;  399.000000 electrons
         Band energy:-0.120992E+04;  BLOECHL correction:   -0.087151
       DOS:  cpu time    0.0100: real time    0.0100
    --------------------------------------------
      LOOP:  cpu time    7.0713: real time    7.0714

 eigenvalue-minimisations  :  7097
 total energy-change (2. order) :-0.6542762E-03  (-0.6511640E-03)
 number of electron     398.9999950 magnetization 
 augmentation part      398.9999950 magnetization 

 Free energy of the ion-electron system (eV)
  ---------------------------------------------------
  alpha Z        PSCENC =      1012.58059061
  Ewald energy   TEWEN  =     97176.79283772
  -Hartree energ DENC   =   -131679.40720790
  -exchange      EXHF   =         0.00000000
  -V(xc)+E(xc)   XCENC  =       519.63706532
  PAW double counting   =     36439.34702564   -35672.51344126
  entropy T*S    EENTRO =         0.00000000
  eigenvalues    EBANDS =     -1209.91566704
  atomic energy  EATOM  =     33293.83788419
  Solvation  Ediel_sol  =         0.00000000
  ---------------------------------------------------
  free energy    TOTEN  =      -119.64091271 eV

  energy without entropy =     -119.64091271  energy(sigma->0) =     -119.64091271


--------------------------------------------------------------------------------------------------------




--------------------------------------- Iteration      1(   8)  ---------------------------------------


    EDDIAG:  cpu time    1.3964: real time    1.3967
  RMM-DIIS:  cpu time    4.3351: real time    4.3351
    ORTHCH:  cpu time    0.2602: real time    0.2602
 BZINTS: Fermi energy:    0.740046;  399.000000 electrons
         Band energy:-0.120992E+04;  BLOECHL correction:   -0.087151
       DOS:  cpu time    0.0093: real time    0.0093
    --------------------------------------------
      LOOP:  cpu time    6.0010: real time    6.0013

 eigenvalue-minimisations  :  5604
 total energy-change (2. order) :-0.4401486E-04  (-0.4411013E-04)
 number of electron     398.9999950 magnetization 
 augmentation part      398.9999950 magnetization 

 Free energy of the ion-electron system (eV)
  ---------------------------------------------------
  alpha Z        PSCENC =      1012.58059061
  Ewald energy   TEWEN  =     97176.79283772
  -Hartree energ DENC   =   -131679.40720790
  -exchange      EXHF   =         0.00000000
  -V(xc)+E(xc)   XCENC  =       519.63706532
  PAW double counting   =     36439.34702564   -35672.51344126
  entropy T*S    EENTRO =         0.00000000
  eigenvalues    EBANDS =     -1209.91571105
  atomic energy  EATOM  =     33293.83788419
  Solvation  Ediel_sol  =         0.00000000
  ---------------------------------------------------
  free energy    TOTEN  =      -119.64095672 eV

  energy without entropy =     -119.64095672  energy(sigma->0) =     -119.64095672


--------------------------------------------------------------------------------------------------------




--------------------------------------- Iteration      1(   9)  ---------------------------------------


    EDDIAG:  cpu time    1.3946: real time    1.3946
  RMM-DIIS:  cpu time    3.7377: real time    3.7377
    ORTHCH:  cpu time    0.2600: real time    0.2600
 BZINTS: Fermi energy:    0.740046;  399.000000 electrons
         Band energy:-0.120992E+04;  BLOECHL correction:   -0.087151
       DOS:  cpu time    0.0103: real time    0.0103
    --------------------------------------------
      LOOP:  cpu time    5.4026: real time    5.4027

 eigenvalue-minimisations  :  4380
 total energy-change (2. order) :-0.9987300E-05  (-0.9942571E-05)
 number of electron     398.9999950 magnetization 
 augmentation part      398.9999950 magnetization 

 Free energy of the ion-electron system (eV)
  ---------------------------------------------------
  alpha Z        PSCENC =      1012.58059061
  Ewald energy   TEWEN  =     97176.79283772
  -Hartree energ DENC   =   -131679.40720790
  -exchange      EXHF   =         0.00000000
  -V(xc)+E(xc)   XCENC  =       519.63706532
  PAW double counting   =     36439.34702564   -35672.51344126
  entropy T*S    EENTRO =         0.00000000
  eigenvalues    EBANDS =     -1209.91572104
  atomic energy  EATOM  =     33293.83788419
  Solvation  Ediel_sol  =         0.00000000
  ---------------------------------------------------
  free energy    TOTEN  =      -119.64096671 eV

  energy without entropy =     -119.64096671  energy(sigma->0) =     -119.64096671


--------------------------------------------------------------------------------------------------------




 average (electrostatic) potential at core
  the test charge radii are     1.2098  1.1806  0.7089
  (the norm of the test charge is              1.0000)
       1 -72.2949       2 -72.2806       3 -72.2806       4 -72.2806       5 -72.2829
       6 -72.2803       7 -72.2806       8 -72.2803       9 -72.2948      10 -72.6173
      11 -72.6162      12 -72.6171      13 -72.6162      14 -72.6159      15 -72.6090
      16 -72.6171      17 -72.6090      18 -72.6091      19 -72.5813      20 -72.7320
      21 -72.7318      22 -72.6134      23 -72.7318      24 -72.6130      25 -72.5815
      26 -72.5813      27 -72.6134      28 -72.1788      29 -72.2431      30 -72.2431
      31 -72.2431      32 -72.2428      33 -72.2431      34 -72.2428      35 -72.1758
      36 -73.6260      37 -69.6618
 
 
 
 E-fermi :   0.7400     XC(G=0):  -6.1439     alpha+bet : -5.7955

 Fermi energy:         0.7400456202

 k-point     1 :       0.0000    0.0000    0.0000
  band No.  band energies     occupation 
      1     -13.8268      2.00000
      2      -8.0742      2.00000
      3      -6.8916      2.00000
      4      -5.9864      2.00000
      5      -5.9470      2.00000
      6      -5.9470      2.00000
      7      -5.9348      2.00000
      8      -5.9029      2.00000
      9      -5.8968      2.00000
     10      -5.8968      2.00000
     11      -5.8476      2.00000
     12      -5.4581      2.00000
     13      -5.4580      2.00000
     14      -5.4465      2.00000
     15      -5.4121      2.00000
     16      -5.4121      2.00000
     17      -5.4088      2.00000
     18      -5.0909      2.00000
     19      -5.0639      2.00000
     20      -5.0639      2.00000
     21      -5.0336      2.00000
     22      -5.0302      2.00000
     23      -5.0302      2.00000
     24      -4.9365      2.00000
     25      -4.9365      2.00000
     26      -4.9044      2.00000
     27      -4.8721      2.00000
     28      -4.8720      2.00000
     29      -4.8575      2.00000
     30      -4.7722      2.00000
     31      -4.7722      2.00000
     32      -4.7301      2.00000
     33      -4.7120      2.00000
     34      -4.7120      2.00000
     35      -4.6894      2.00000
     36      -4.6893      2.00000
     37      -4.6877      2.00000
     38      -4.6718      2.00000
     39      -4.6278      2.00000
     40      -4.6278      2.00000
     41      -4.6273      2.00000
     42      -4.5088      2.00000
     43      -4.5088      2.00000
     44      -4.3502      2.00000
     45      -4.1970      2.00000
     46      -4.1970      2.00000
     47      -4.1501      2.00000
     48      -4.1501      2.00000
     49      -4.1496      2.00000
     50      -4.1414      2.00000
     51      -4.1414      2.00000
     52      -4.0752      2.00000
     53      -4.0303      2.00000
     54      -4.0278      2.00000
     55      -3.9992      2.00000
     56      -3.9723      2.00000
     57      -3.9723      2.00000
     58      -3.7717      2.00000
     59      -3.6217      2.00000
     60      -3.6070      2.00000
     61      -3.5911      2.00000
     62      -3.5911      2.00000
     63      -3.5663      2.00000
     64      -3.5663      2.00000
     65      -3.5596      2.00000
     66      -3.5447      2.00000
     67      -3.5446      2.00000
     68      -3.4818      2.00000
     69      -3.4818      2.00000
     70      -3.4397      2.00000
     71      -3.4369      2.00000
     72      -3.4369      2.00000
     73      -3.3818      2.00000
     74      -3.3817      2.00000
     75      -3.3688      2.00000
     76      -3.3497      2.00000
     77      -3.3497      2.00000
     78      -3.3469      2.00000
     79      -3.3355      2.00000
     80      -3.3355      2.00000
     81      -3.3305      2.00000
     82      -3.3305      2.00000
     83      -3.3285      2.00000
     84      -3.2712      2.00000
     85      -3.2712      2.00000
     86      -3.2566      2.00000
     87      -3.2192      2.00000
     88      -3.2191      2.00000
     89      -3.2024      2.00000
     90      -3.1980      2.00000
     91      -3.1979      2.00000
     92      -3.1195      2.00000
     93      -3.1195      2.00000
     94      -3.0233      2.00000
     95      -3.0048      2.00000
     96      -3.0048      2.00000
     97      -2.9262      2.00000
     98      -2.9262      2.00000
     99      -2.9194      2.00000
    100      -2.9194      2.00000
    101      -2.7677      2.00000
    102      -2.7677      2.00000
    103      -2.7548      2.00000
    104      -2.7547      2.00000
    105      -2.7383      2.00000
    106      -2.6779      2.00000
    107      -2.6779      2.00000
    108      -2.6670      2.00000
    109      -2.6021      2.00000
    110      -2.6021      2.00000
    111      -2.5476      2.00000
    112      -2.5205      2.00000
    113      -2.5205      2.00000
    114      -2.5135      2.00000
    115      -2.4646      2.00000
    116      -2.4253      2.00000
    117      -2.4194      2.00000
    118      -2.4193      2.00000
    119      -2.3896      2.00000
    120      -2.2739      2.00000
    121      -2.2481      2.00000
    122      -2.2480      2.00000
    123      -2.1898      2.00000
    124      -2.1894      2.00000
    125      -2.1894      2.00000
    126      -2.1671      2.00000
    127      -2.1671      2.00000
    128      -2.1512      2.00000
    129      -2.1512      2.00000
    130      -2.0831      2.00000
    131      -2.0831      2.00000
    132      -1.9933      2.00000
    133      -1.9830      2.00000
    134      -1.9830      2.00000
    135      -1.9674      2.00000
    136      -1.9665      2.00000
    137      -1.9665      2.00000
    138      -1.9567      2.00000
    139      -1.9567      2.00000
    140      -1.9451      2.00000
    141      -1.9056      2.00000
    142      -1.9056      2.00000
    143      -1.8131      2.00000
    144      -1.7472      2.00000
    145      -1.7472      2.00000
    146      -1.7252      2.00000
    147      -1.7252      2.00000
    148      -1.7130      2.00000
    149      -1.6905      2.00000
    150      -1.6815      2.00000
    151      -1.6814      2.00000
    152      -1.6612      2.00000
    153      -1.6612      2.00000
    154      -1.6481      2.00000
    155      -1.6270      2.00000
    156      -1.6258      2.00000
    157      -1.6258      2.00000
    158      -1.5482      2.00000
    159      -1.5234      2.00000
    160      -1.5201      2.00000
    161      -1.5105      2.00000
    162      -1.5104      2.00000
    163      -1.4924      2.00000
    164      -1.4924      2.00000
    165      -1.4847      2.00000
    166      -1.4637      2.00000
    167      -1.4636      2.00000
    168      -1.4373      2.00000
    169      -1.4373      2.00000
    170      -1.4204      2.00000
    171      -1.4204      2.00000
    172      -1.4004      2.00000
    173      -1.3947      2.00000
    174      -1.3847      2.00000
    175      -1.3847      2.00000
    176      -1.3816      2.00000
    177      -1.3585      2.00000
    178      -1.3574      2.00000
    179      -1.3574      2.00000
    180      -1.3378      2.00000
    181      -1.3201      2.00000
    182      -1.3074      2.00000
    183      -1.3074      2.00000
    184      -1.2979      2.00000
    185      -1.2951      2.00000
    186      -1.2951      2.00000
    187      -1.1841      2.00000
    188      -1.1841      2.00000
    189      -1.1274      2.00000
    190      -1.1274      2.00000
    191      -1.0861      2.00000
    192      -1.0812      2.00000
    193      -1.0811      2.00000
    194      -1.0635      2.00000
    195      -0.7113      2.00000
    196      -0.7113      2.00000
    197      -0.2445      2.00000
    198       0.0474      2.00000
    199       0.1294      2.00000
    200       0.1295      2.00000
    201       0.1941      2.00000
    202       0.2042      2.00000
    203       0.2042      2.00000
    204       1.1675      0.00000
    205       1.2924      0.00000
    206       1.2925      0.00000
    207       1.8684      0.00000
    208       2.3289      0.00000
    209       2.3454      0.00000
    210       2.3455      0.00000
    211       2.3915      0.00000
    212       2.3915      0.00000
    213       3.5325      0.00000
    214       3.5325      0.00000
    215       3.5397      0.00000
    216       3.5717      0.00000
    217       3.5961      0.00000
    218       3.5961      0.00000
    219       3.8619      0.00000
    220       4.1553      0.00000
    221       4.8999      0.00000
    222       5.3772      0.00000
    223       5.3772      0.00000
    224       5.4006      0.00000
    225       5.4241      0.00000
    226       5.4241      0.00000
    227       5.4606      0.00000
    228       5.5252      0.00000
    229       5.5252      0.00000
    230       5.6613      0.00000
    231       5.6614      0.00000
    232       5.7841      0.00000
    233       5.8401      0.00000
    234       6.1948      0.00000
    235       6.8547      0.00000
    236       6.9841      0.00000
    237       7.0874      0.00000
    238       7.0875      0.00000
    239       7.1087      0.00000
    240       7.1369      0.00000
    241       7.1371      0.00000
    242       7.1391      0.00000
    243       7.1402      0.00000
    244       7.1712      0.00000
    245       7.3029      0.00000
    246       7.3035      0.00000
    247       7.3381      0.00000
    248       7.4599      0.00000
    249       7.4642      0.00000
    250       7.5588      0.00000
    251       7.6114      0.00000
    252       7.6388      0.00000

 k-point     2 :       0.1250   -0.0000    0.0000
  band No.  band energies     occupation 
      1     -13.8268      2.00000
      2      -8.0234      2.00000
      3      -6.8419      2.00000
      4      -6.1747      2.00000
      5      -6.0032      2.00000
      6      -6.0007      2.00000
      7      -5.8947      2.00000
      8      -5.8702      2.00000
      9      -5.8053      2.00000
     10      -5.7989      2.00000
     11      -5.7704      2.00000
     12      -5.4856      2.00000
     13      -5.4457      2.00000
     14      -5.4352      2.00000
     15      -5.4246      2.00000
     16      -5.3888      2.00000
     17      -5.3847      2.00000
     18      -5.1370      2.00000
     19      -5.0803      2.00000
     20      -5.0674      2.00000
     21      -5.0153      2.00000
     22      -5.0036      2.00000
     23      -5.0012      2.00000
     24      -4.9572      2.00000
     25      -4.9270      2.00000
     26      -4.9145      2.00000
     27      -4.8724      2.00000
     28      -4.8620      2.00000
     29      -4.8420      2.00000
     30      -4.7933      2.00000
     31      -4.7874      2.00000
     32      -4.7593      2.00000
     33      -4.7570      2.00000
     34      -4.7128      2.00000
     35      -4.6857      2.00000
     36      -4.6837      2.00000
     37      -4.6314      2.00000
     38      -4.6223      2.00000
     39      -4.5916      2.00000
     40      -4.5808      2.00000
     41      -4.5643      2.00000
     42      -4.5188      2.00000
     43      -4.4883      2.00000
     44      -4.3491      2.00000
     45      -4.2605      2.00000
     46      -4.2482      2.00000
     47      -4.2149      2.00000
     48      -4.1864      2.00000
     49      -4.1578      2.00000
     50      -4.1326      2.00000
     51      -4.1134      2.00000
     52      -4.0521      2.00000
     53      -4.0121      2.00000
     54      -4.0053      2.00000
     55      -3.9889      2.00000
     56      -3.9602      2.00000
     57      -3.9413      2.00000
     58      -3.8006      2.00000
     59      -3.6640      2.00000
     60      -3.6435      2.00000
     61      -3.6238      2.00000
     62      -3.6180      2.00000
     63      -3.6069      2.00000
     64      -3.5902      2.00000
     65      -3.5877      2.00000
     66      -3.5700      2.00000
     67      -3.5550      2.00000
     68      -3.5216      2.00000
     69      -3.5089      2.00000
     70      -3.5001      2.00000
     71      -3.4873      2.00000
     72      -3.4598      2.00000
     73      -3.4541      2.00000
     74      -3.4499      2.00000
     75      -3.4133      2.00000
     76      -3.3909      2.00000
     77      -3.3907      2.00000
     78      -3.3701      2.00000
     79      -3.3665      2.00000
     80      -3.3393      2.00000
     81      -3.3097      2.00000
     82      -3.2973      2.00000
     83      -3.2798      2.00000
     84      -3.2615      2.00000
     85      -3.2398      2.00000
     86      -3.2218      2.00000
     87      -3.1992      2.00000
     88      -3.1915      2.00000
     89      -3.1754      2.00000
     90      -3.1448      2.00000
     91      -3.1401      2.00000
     92      -3.1007      2.00000
     93      -3.0913      2.00000
     94      -3.0327      2.00000
     95      -3.0316      2.00000
     96      -3.0106      2.00000
     97      -2.9908      2.00000
     98      -2.9738      2.00000
     99      -2.8744      2.00000
    100      -2.8628      2.00000
    101      -2.8106      2.00000
    102      -2.8031      2.00000
    103      -2.7948      2.00000
    104      -2.7730      2.00000
    105      -2.7706      2.00000
    106      -2.7181      2.00000
    107      -2.7029      2.00000
    108      -2.6296      2.00000
    109      -2.5892      2.00000
    110      -2.5856      2.00000
    111      -2.5622      2.00000
    112      -2.5548      2.00000
    113      -2.5451      2.00000
    114      -2.5329      2.00000
    115      -2.5262      2.00000
    116      -2.5103      2.00000
    117      -2.4825      2.00000
    118      -2.4730      2.00000
    119      -2.4527      2.00000
    120      -2.4388      2.00000
    121      -2.4167      2.00000
    122      -2.3656      2.00000
    123      -2.3383      2.00000
    124      -2.2379      2.00000
    125      -2.2166      2.00000
    126      -2.2114      2.00000
    127      -2.1824      2.00000
    128      -2.1463      2.00000
    129      -2.1333      2.00000
    130      -2.1279      2.00000
    131      -2.1189      2.00000
    132      -2.1083      2.00000
    133      -2.0972      2.00000
    134      -2.0841      2.00000
    135      -2.0509      2.00000
    136      -1.9913      2.00000
    137      -1.9820      2.00000
    138      -1.9651      2.00000
    139      -1.9244      2.00000
    140      -1.9156      2.00000
    141      -1.9050      2.00000
    142      -1.8918      2.00000
    143      -1.8898      2.00000
    144      -1.8781      2.00000
    145      -1.8176      2.00000
    146      -1.7857      2.00000
    147      -1.7378      2.00000
    148      -1.7243      2.00000
    149      -1.6952      2.00000
    150      -1.6878      2.00000
    151      -1.6710      2.00000
    152      -1.6623      2.00000
    153      -1.6581      2.00000
    154      -1.6164      2.00000
    155      -1.6158      2.00000
    156      -1.5735      2.00000
    157      -1.5654      2.00000
    158      -1.5515      2.00000
    159      -1.5279      2.00000
    160      -1.5081      2.00000
    161      -1.5040      2.00000
    162      -1.4908      2.00000
    163      -1.4755      2.00000
[...]
  0.000   0.000   0.000   0.000   0.000   0.000   0.000   0.000   0.000   0.000   0.000   0.000   0.000   0.000   0.000   0.000
  0.000   0.000   0.000   0.000   0.000   0.000   0.000   0.000   0.000   0.000   0.000   0.000   0.000   0.000   0.000   0.000
  0.000   0.000   0.000   0.000   0.000   0.000   0.000   0.000   0.000   0.000   0.000   0.000   0.000   0.000   0.000   0.000
  0.000   0.000   0.000   0.000   0.000   0.000   0.000   0.000   0.000   0.000   0.000   0.000   0.000   0.000   0.000   0.000
  0.000   0.000   0.000   0.000   0.000   0.000   0.000   0.000   0.000   0.000   0.000   0.000   0.000   0.000   0.000   0.000
  0.000   0.000   0.000   0.000   0.000   0.000   0.000   0.000   0.000   0.000   1.000   0.000   0.000   0.000   0.000   0.000
  0.000   0.000   0.000   0.000   0.000   0.000   0.000   0.000   0.000   0.000   0.000   0.000   0.000   0.000   0.000   0.000
  0.000   0.000   0.000   0.000   0.000   0.000   0.000   0.000   0.000   0.000   0.000   0.000   0.000   0.000   0.000   0.000
  0.000   0.000   0.000   0.000   0.000   0.000   0.000   0.000   0.000   0.000   0.000   0.000   0.000   0.000   0.000   0.000
  0.000   0.000   0.000   0.000   0.000   0.000   0.000   0.000   0.000   0.000   0.000   0.000   0.000   0.000   0.000   0.000
  0.000   0.000   0.000   0.000   0.000   0.000   0.000   0.000   0.000   0.000   0.000   0.000   0.000   0.000   0.000   0.000
  0.000   0.000   0.000   0.000   0.000   0.000   0.000   0.000   0.000   0.000   0.000   0.000   0.000   0.000   0.000   0.000
  0.000   0.000   0.000   0.000   0.000   0.000   0.000   0.000   0.000   0.000   0.000   0.000   0.000   0.000   0.000   0.000


------------------------ aborting loop because EDIFF is reached ----------------------------------------





 total charge

# of ion       s       p       d       tot
------------------------------------------
    1        0.545   0.239   8.767   9.551
    2        0.543   0.241   8.765   9.549
    3        0.543   0.241   8.765   9.549
    4        0.543   0.241   8.765   9.549
    5        0.544   0.240   8.765   9.550
    6        0.543   0.241   8.765   9.549
    7        0.543   0.241   8.765   9.549
    8        0.543   0.241   8.765   9.549
    9        0.540   0.241   8.763   9.545
   10        0.522   0.309   8.772   9.602
   11        0.516   0.312   8.773   9.601
   12        0.522   0.309   8.772   9.602
   13        0.516   0.312   8.773   9.601
   14        0.516   0.312   8.773   9.601
   15        0.515   0.308   8.775   9.598
   16        0.522   0.309   8.772   9.602
   17        0.515   0.308   8.775   9.598
   18        0.515   0.308   8.775   9.598
   19        0.517   0.304   8.773   9.594
   20        0.542   0.328   8.755   9.624
   21        0.542   0.328   8.755   9.624
   22        0.512   0.308   8.773   9.593
   23        0.542   0.328   8.755   9.624
   24        0.512   0.308   8.773   9.593
   25        0.517   0.304   8.773   9.594
   26        0.517   0.304   8.773   9.594
   27        0.512   0.308   8.773   9.593
   28        0.546   0.228   8.769   9.543
   29        0.534   0.239   8.773   9.546
   30        0.534   0.239   8.773   9.546
   31        0.534   0.239   8.773   9.546
   32        0.534   0.239   8.773   9.546
   33        0.534   0.239   8.773   9.546
   34        0.534   0.239   8.773   9.546
   35        0.541   0.229   8.770   9.539
   36        0.512   0.649   7.518   8.678
   37        1.366   2.128   0.000   3.494
--------------------------------------------------
tot         20.428  12.439 314.440 347.308
 
    CHARGE:  cpu time    0.3329: real time    0.3330
    FORLOC:  cpu time    0.0100: real time    0.0100
    FORNL :  cpu time    1.4500: real time    1.4502
    STRESS:  cpu time    4.3348: real time    4.3350
    FORCOR:  cpu time    0.0527: real time    0.0528
    FORHAR:  cpu time    0.0165: real time    0.0166
    OFIELD:  cpu time    0.0002: real time    0.0002

  FORCE on cell =-STRESS in cart. coord.  units (eV):
  Direction    XX          YY          ZZ          XY          YZ          ZX
  --------------------------------------------------------------------------------------
  Alpha Z  1012.58059  1012.58059  1012.58059
  Ewald  119925.86306119925.86348************    -0.00033    -0.00009    -0.00013
  Hartree128677.15970128677.15971************     0.00000    -0.00002    -0.00003
  E(xc)   -1791.47383 -1791.47382 -1797.99111    -0.00001    -0.00000    -0.00000
  Local  ************************261137.13591     0.00195     0.00002    -0.00001
  n-local   -84.87812   -37.53622   -27.18893    23.66088    -1.39708     1.57357
  augment  2430.59626  2430.59782  2432.34853    -0.00135     0.00000     0.00006
  Kinetic  5557.92331  5563.42400  5580.79776     4.00276     0.59890     0.15995
  Fock        0.00000     0.00000     0.00000     0.00000     0.00000     0.00000
  -------------------------------------------------------------------------------------
  Total     -18.31970   -18.31970     1.68991    -0.00000     0.00000    -0.00000
  in kB     -19.65719   -19.65719     1.81329    -0.00000     0.00000    -0.00000
  external pressure =      -12.50 kB  Pullay stress =        0.00 kB


 VOLUME and BASIS-vectors are now :
 -----------------------------------------------------------------------------
  energy-cutoff  :      500.00
  volume of cell :     1493.16
      direct lattice vectors                 reciprocal lattice vectors
     8.813512802  0.000000000  0.000000000     0.113462137 -0.065507406  0.000000000
     4.406756909  7.632725690  0.000000000     0.000000000  0.131014796  0.000000000
     0.000000000  0.000000000 22.196203232     0.000000000  0.000000000  0.045052750

  length of vectors
     8.813512802  8.813512802 22.196203232     0.131014796  0.131014796  0.045052750


 FORCES acting on ions
    electron-ion (+dipol)            ewald-force                    non-local-force                 convergence-correction
 -----------------------------------------------------------------------------------------------
   -.196E-04 -.162E-04 0.249E+04   0.519E-04 0.433E-04 -.249E+04   -.199E-17 -.159E-17 -.660E+00   -.203E-03 -.131E-03 -.301E+00
   0.227E+00 0.461E+00 0.249E+04   -.301E+00 -.413E+00 -.249E+04   0.179E-01 0.453E-01 -.347E+00   0.568E-01 -.868E-01 -.322E+00
   -.227E+00 0.461E+00 0.249E+04   0.301E+00 -.413E+00 -.249E+04   -.179E-01 0.453E-01 -.347E+00   -.565E-01 -.849E-01 -.321E+00
   0.513E+00 -.340E-01 0.249E+04   -.508E+00 -.539E-01 -.249E+04   0.482E-01 -.712E-02 -.347E+00   -.468E-01 0.925E-01 -.322E+00
   0.860E-05 -.232E-04 0.249E+04   0.951E-04 0.171E-05 -.249E+04   0.265E-17 -.737E-18 -.362E+00   0.430E-02 0.262E-02 -.265E+00
   -.513E+00 -.339E-01 0.249E+04   0.508E+00 -.540E-01 -.249E+04   -.482E-01 -.712E-02 -.347E+00   0.452E-01 0.935E-01 -.321E+00
   0.286E+00 -.427E+00 0.249E+04   -.208E+00 0.467E+00 -.249E+04   0.303E-01 -.382E-01 -.347E+00   -.102E+00 -.647E-02 -.321E+00
   -.286E+00 -.427E+00 0.249E+04   0.207E+00 0.467E+00 -.249E+04   -.303E-01 -.382E-01 -.347E+00   0.104E+00 -.757E-02 -.321E+00
   0.192E-04 -.416E-04 0.249E+04   0.166E-03 -.201E-04 -.249E+04   0.918E-17 0.133E-17 -.442E+00   -.464E-02 -.240E-02 -.343E+00
   0.378E+01 0.218E+01 0.850E+03   -.356E+01 -.206E+01 -.849E+03   -.221E+00 -.128E+00 -.571E+00   0.101E-02 0.467E-03 -.115E+00
   0.139E-04 0.424E+01 0.854E+03   0.148E-03 -.436E+01 -.854E+03   0.525E-08 0.789E-01 -.291E+00   0.380E-02 -.831E-02 -.147E+00
   -.378E+01 0.218E+01 0.850E+03   0.356E+01 -.206E+01 -.849E+03   0.221E+00 -.128E+00 -.571E+00   -.232E-02 0.196E-02 -.115E+00
   0.367E+01 -.212E+01 0.854E+03   -.378E+01 0.218E+01 -.854E+03   0.683E-01 -.395E-01 -.291E+00   -.501E-02 0.772E-02 -.147E+00
   -.367E+01 -.212E+01 0.854E+03   0.378E+01 0.218E+01 -.854E+03   -.683E-01 -.395E-01 -.291E+00   0.128E-01 0.727E-02 -.148E+00
   0.308E-04 0.553E+00 0.849E+03   0.236E-03 -.657E+00 -.849E+03   -.568E-09 -.853E-02 -.386E+00   -.240E-02 0.902E-01 -.125E+00
   -.213E-04 -.436E+01 0.850E+03   0.163E-03 0.411E+01 -.849E+03   0.170E-07 0.255E+00 -.571E+00   0.295E-03 -.302E-02 -.115E+00
   0.479E+00 -.276E+00 0.849E+03   -.569E+00 0.329E+00 -.849E+03   -.738E-02 0.426E-02 -.386E+00   0.771E-01 -.467E-01 -.125E+00
   -.479E+00 -.276E+00 0.849E+03   0.569E+00 0.329E+00 -.849E+03   0.738E-02 0.426E-02 -.386E+00   -.772E-01 -.448E-01 -.125E+00
   -.407E-04 0.159E+01 -.824E+03   0.533E-04 -.171E+01 0.823E+03   0.209E-08 0.314E-01 0.554E+00   -.533E-03 0.582E-01 0.145E+00
   0.145E+02 0.838E+01 -.790E+03   -.137E+02 -.789E+01 0.791E+03   -.751E+00 -.434E+00 -.356E+00   -.118E+00 -.682E-01 0.401E-01
   -.145E+02 0.838E+01 -.790E+03   0.137E+02 -.789E+01 0.791E+03   0.751E+00 -.434E+00 -.356E+00   0.119E+00 -.663E-01 0.399E-01
   0.478E+01 -.276E+01 -.817E+03   -.493E+01 0.285E+01 0.816E+03   0.256E+00 -.148E+00 0.660E+00   -.969E-01 0.515E-01 0.128E+00
   -.135E-04 -.168E+02 -.790E+03   0.144E-03 0.158E+02 0.791E+03   0.578E-07 0.868E+00 -.356E+00   0.178E-02 0.136E+00 0.399E-01
   -.478E+01 -.276E+01 -.817E+03   0.493E+01 0.285E+01 0.816E+03   -.256E+00 -.148E+00 0.660E+00   0.900E-01 0.520E-01 0.129E+00
   -.138E+01 -.795E+00 -.824E+03   0.148E+01 0.853E+00 0.823E+03   -.272E-01 -.157E-01 0.554E+00   -.485E-01 -.281E-01 0.145E+00
   0.138E+01 -.795E+00 -.824E+03   -.148E+01 0.853E+00 0.823E+03   0.272E-01 -.157E-01 0.554E+00   0.504E-01 -.295E-01 0.145E+00
   0.742E-05 0.552E+01 -.817E+03   0.200E-03 -.570E+01 0.816E+03   0.197E-07 0.296E+00 0.660E+00   -.438E-02 -.110E+00 0.129E+00
   -.107E-04 -.122E-04 -.247E+04   0.278E-04 0.336E-04 0.247E+04   -.169E-17 -.240E-17 0.484E+00   0.113E-03 0.471E-04 0.290E+00
   0.201E+02 0.345E+02 -.245E+04   -.202E+02 -.346E+02 0.245E+04   -.123E+00 -.133E+00 0.608E+00   -.492E-01 -.173E+00 0.269E+00
   -.201E+02 0.345E+02 -.245E+04   0.202E+02 -.346E+02 0.245E+04   0.123E+00 -.133E+00 0.608E+00   0.493E-01 -.171E+00 0.270E+00
   0.400E+02 0.161E+00 -.245E+04   -.400E+02 -.154E+00 0.245E+04   -.176E+00 -.405E-01 0.608E+00   -.174E+00 0.437E-01 0.269E+00
   -.400E+02 0.161E+00 -.245E+04   0.400E+02 -.154E+00 0.245E+04   0.176E+00 -.405E-01 0.608E+00   0.173E+00 0.448E-01 0.269E+00
   0.199E+02 -.347E+02 -.245E+04   -.199E+02 0.348E+02 0.245E+04   -.531E-01 0.173E+00 0.608E+00   -.123E+00 0.128E+00 0.270E+00
   -.199E+02 -.347E+02 -.245E+04   0.199E+02 0.348E+02 0.245E+04   0.531E-01 0.173E+00 0.608E+00   0.125E+00 0.127E+00 0.269E+00
   0.296E-04 -.290E-04 -.247E+04   0.146E-03 -.488E-04 0.247E+04   0.742E-17 0.520E-17 0.527E+00   -.476E-02 -.246E-02 0.285E+00
   0.165E-04 -.958E-05 -.173E+04   0.917E-04 0.821E-05 0.174E+04   0.167E-16 -.213E-17 -.598E+01   0.342E-02 0.208E-02 0.173E+00
   0.106E-03 -.608E-04 -.141E+04   0.208E-04 0.131E-05 0.143E+04   0.118E-17 -.407E-18 -.228E+02   0.181E-02 0.110E-02 0.134E+00
 -----------------------------------------------------------------------------------------------
   -.594E-03 -.807E-03 0.302E+02   -.796E-13 0.219E-12 -.432E-11   -.579E-16 -.528E-16 -.289E+02   0.235E-02 0.204E-02 -.559E+00
 
 
 POSITION                                       TOTAL-FORCE (eV/Angst)
 -----------------------------------------------------------------------------------
      0.00000      0.00000      5.28038         0.000000     -0.000000     -0.093019
      2.93784      0.00000      5.28038         0.001377      0.007421     -0.050208
      5.87568      0.00000      5.28038        -0.001377      0.007421     -0.050208
      1.46892      2.54424      5.28038         0.007116     -0.002518     -0.050208
      4.40676      2.54424      5.28038         0.000000     -0.000000     -0.079464
      7.34459      2.54424      5.28038        -0.007116     -0.002518     -0.050208
      2.93784      5.08848      5.28038         0.005738     -0.004903     -0.050208
      5.87568      5.08848      5.28038        -0.005738     -0.004903     -0.050208
      8.81351      5.08848      5.28038         0.000000     -0.000000     -0.062451
      1.46892      0.84808      7.67911        -0.004696     -0.002711      0.107282
      4.40676      0.84808      7.67911        -0.000000     -0.052427      0.055382
      7.34459      0.84808      7.67911         0.004696     -0.002711      0.107282
      2.93784      3.39232      7.67911        -0.045403      0.026214      0.055382
      5.87568      3.39232      7.67911         0.045403      0.026214      0.055382
      8.81351      3.39232      7.67911        -0.000000     -0.022999      0.104380
      4.40676      5.93656      7.67911         0.000000      0.005422      0.107282
      7.34459      5.93656      7.67911        -0.019918      0.011500      0.104380
     10.28243      5.93656      7.67911         0.019918      0.011500      0.104380
      8.81351      1.69621     10.07295        -0.000000     -0.026575     -0.046067
      2.93663      1.69546     10.04742        -0.007540     -0.004353     -0.149221
      5.87688      1.69546     10.04742         0.007540     -0.004353     -0.149221
     10.27557      4.24437     10.06760         0.012638     -0.007296     -0.029781
      4.40676      4.24180     10.04742         0.000000      0.008707     -0.149221
      7.35146      4.24437     10.06760        -0.012638     -0.007296     -0.029781
     11.75131      6.78462     10.07295         0.023015      0.013288     -0.046067
      5.87571      6.78462     10.07295        -0.023015      0.013288     -0.046067
      8.81351      6.77672     10.06760         0.000000      0.014593     -0.029781
      0.00000      0.00000     12.49471         0.000000     -0.000000     -0.025687
      2.95476      0.03042     12.47845        -0.193527     -0.355870     -0.101735
      5.85875      0.03042     12.47845         0.193527     -0.355870     -0.101735
      1.50372      2.54369     12.47845        -0.404956      0.010336     -0.101735
      7.30979      2.54369     12.47845         0.404956      0.010336     -0.101735
      2.95572      5.05862     12.47845        -0.211429      0.345534     -0.101735
      5.85780      5.05862     12.47845         0.211429      0.345534     -0.101735
      8.81351      5.08848     12.49462         0.000000     -0.000000      0.002774
      4.40676      2.54424     12.26123         0.000000     -0.000000      1.014809
      4.40676      2.54424     13.92659         0.000000     -0.000000      0.028770
 -----------------------------------------------------------------------------------
    total drift:                                0.001757      0.001229      0.760005


--------------------------------------------------------------------------------------------------------



  FREE ENERGIE OF THE ION-ELECTRON SYSTEM (eV)
  ---------------------------------------------------
  free  energy   TOTEN  =      -119.64096671 eV

  energy  without entropy=     -119.64096671  energy(sigma->0) =     -119.64096671
 


--------------------------------------------------------------------------------------------------------


    POTLOK:  cpu time    0.0523: real time    0.0523


--------------------------------------------------------------------------------------------------------


 stress matrix after NEB project (eV)
    -18.31970     -0.00000     -0.00000
     -0.00000    -18.31970      0.00000
      0.00000      0.00000      1.68991
  FORCES: max atom, RMS     0.028770    0.004730
  FORCE total and by dimension    0.028770    0.028770
  Stress total and by dimension   25.963022   18.319699
     LOOP+:  cpu time   69.7625: real time   69.7733
 -----------------------------------------------------------------------------
|                                                                             |
|           W    W    AA    RRRRR   N    N  II  N    N   GGGG   !!!           |
|           W    W   A  A   R    R  NN   N  II  NN   N  G    G  !!!           |
|           W    W  A    A  R    R  N N  N  II  N N  N  G       !!!           |
|           W WW W  AAAAAA  RRRRR   N  N N  II  N  N N  G  GGG   !            |
|           WW  WW  A    A  R   R   N   NN  II  N   NN  G    G                |
|           W    W  A    A  R    R  N    N  II  N    N   GGGG   !!!           |
|                                                                             |
|     Tetrahedron method does not include variations of the Fermi             |
|     occupations, so forces and stress will be inaccurate. We suggest        |
|     using a different smearing scheme ISMEAR = 1 or 2 for metals in         |
|     relaxations.                                                            |
|                                                                             |
 -----------------------------------------------------------------------------

    4ORBIT:  cpu time    0.0000: real time    0.0000



 total charge

# of ion       s       p       d       tot
------------------------------------------
    1        0.545   0.239   8.767   9.551
    2        0.543   0.241   8.765   9.549
    3        0.543   0.241   8.765   9.549
    4        0.543   0.241   8.765   9.549
    5        0.544   0.240   8.765   9.550
    6        0.543   0.241   8.765   9.549
    7        0.543   0.241   8.765   9.549
    8        0.543   0.241   8.765   9.549
    9        0.540   0.241   8.763   9.545
   10        0.522   0.309   8.772   9.602
   11        0.516   0.312   8.773   9.601
   12        0.522   0.309   8.772   9.602
   13        0.516   0.312   8.773   9.601
   14        0.516   0.312   8.773   9.601
   15        0.515   0.308   8.775   9.598
   16        0.522   0.309   8.772   9.602
   17        0.515   0.308   8.775   9.598
   18        0.515   0.308   8.775   9.598
   19        0.517   0.304   8.773   9.594
   20        0.542   0.328   8.755   9.624
   21        0.542   0.328   8.755   9.624
   22        0.512   0.308   8.773   9.593
   23        0.542   0.328   8.755   9.624
   24        0.512   0.308   8.773   9.593
   25        0.517   0.304   8.773   9.594
   26        0.517   0.304   8.773   9.594
   27        0.512   0.308   8.773   9.593
   28        0.546   0.228   8.769   9.543
   29        0.534   0.239   8.773   9.546
   30        0.534   0.239   8.773   9.546
   31        0.534   0.239   8.773   9.546
   32        0.534   0.239   8.773   9.546
   33        0.534   0.239   8.773   9.546
   34        0.534   0.239   8.773   9.546
   35        0.541   0.229   8.770   9.539
   36        0.512   0.649   7.518   8.678
   37        1.366   2.128   0.000   3.494
--------------------------------------------------
tot         20.428  12.439 314.440 347.308
 
 BZINTS: Fermi energy:    0.740046;  399.000000 electrons
         Band energy:-0.120992E+04;  BLOECHL correction:   -0.087151

 total amount of memory used by VASP MPI-rank0   122252. kBytes
=======================================================================

   base      :      30000. kBytes
   nonlr-proj:      13867. kBytes
   fftplans  :       4330. kBytes
   grid      :      17879. kBytes
   one-center:        575. kBytes
   wavefun   :      55601. kBytes
 
  
  
 General timing and accounting informations for this job:
 ========================================================
  
                  Total CPU time used (sec):       77.100
                            User time (sec):       74.215
                          System time (sec):        2.885
                         Elapsed time (sec):       77.527
  
                   Maximum memory used (kb):      380052.
                   Average memory used (kb):          N/A
  
                          Minor page faults:        74587
                          Major page faults:            0
                 Voluntary context switches:         4731
