 vasp.6.2.0 18Jan21 (build Jun 12 2021 23:27:24) complex                        
  
 executed on             LinuxIFC date 2022.05.26  20:15:41
 running on   28 total cores
 distrk:  each k-point on   28 cores,    1 groups
 distr:  one band on NCORE=   1 cores,   28 groups


--------------------------------------------------------------------------------------------------------


 INCAR:
   ISMEAR = -5
   SIGMA = 0.1
   ISPIN = 1
   EDIFF = 1.d-5
   EDIFFG = -0.01
   NSW = 0
   NELM = 150
   ENCUT = 500
   ISIF = 2
   IBRION = 2
   LREAL = Auto
   ALGO = Fast
   ICHARG = 11
   LORBIT = 10
   LCHARG = .F.
   LWAVE = .F.

 POTCAR:    PAW_PBE Au 04Oct2007                  
 POTCAR:    PAW_PBE Ta 17Jan2003                  
 -----------------------------------------------------------------------------
|                                                                             |
|           W    W    AA    RRRRR   N    N  II  N    N   GGGG   !!!           |
|           W    W   A  A   R    R  NN   N  II  NN   N  G    G  !!!           |
|           W    W  A    A  R    R  N N  N  II  N N  N  G       !!!           |
|           W WW W  AAAAAA  RRRRR   N  N N  II  N  N N  G  GGG   !            |
|           WW  WW  A    A  R   R   N   NN  II  N   NN  G    G                |
|           W    W  A    A  R    R  N    N  II  N    N   GGGG   !!!           |
|                                                                             |
|     For optimal performance we recommend to set                             |
|       NCORE = 2 up to number-of-cores-per-socket                            |
|     NCORE specifies how many cores store one orbital (NPAR=cpu/NCORE).      |
|     This setting can greatly improve the performance of VASP for DFT.       |
|     The default, NCORE=1 might be grossly inefficient on modern             |
|     multi-core architectures or massively parallel machines. Do your        |
|     own testing! More info at https://www.vasp.at/wiki/index.php/NCORE      |
|     Unfortunately you need to use the default for GW and RPA                |
|     calculations (for HF NCORE is supported but not extensively tested      |
|     yet).                                                                   |
|                                                                             |
 -----------------------------------------------------------------------------

 POTCAR:    PAW_PBE Au 04Oct2007                  
   VRHFIN =Au: s1d10                                                                                
   LEXCH  = PE                                                                                      
   EATOM  =   926.0867 eV,   68.0654 Ry                                                             
                                                                                                    
   TITEL  = PAW_PBE Au 04Oct2007                                                                    
   LULTRA =        F    use ultrasoft PP ?                                                          
   IUNSCR =        1    unscreen: 0-lin 1-nonlin 2-no                                               
   RPACOR =    2.330    partial core radius                                                         
   POMASS =  196.966; ZVAL   =   11.000    mass and valenz                                          
   RCORE  =    2.500    outmost cutoff radius                                                       
   RWIGS  =    2.840; RWIGS  =    1.503    wigner-seitz radius (au A)                               
   ENMAX  =  229.943; ENMIN  =  172.457 eV                                                          
   ICORE  =        3    local potential                                                             
   LCOR   =        T    correct aug charges                                                         
   LPAW   =        T    paw PP                                                                      
   EAUG   =  356.670                                                                                
   DEXC   =    0.000                                                                                
   RMAX   =    2.562    core radius for proj-oper                                                   
   RAUG   =    1.300    factor for augmentation sphere                                              
   RDEP   =    2.598    radius for radial grids                                                     
   RDEPT  =    2.193    core radius for aug-charge                                                  
                                                                                                    
   Atomic configuration                                                                             
   16 entries                                                                                       
     n  l   j            E        occ.                                                              
     1  0  0.50    -80748.5001   2.0000                                                             
     2  0  0.50    -14244.7466   2.0000                                                             
     2  1  1.50    -12310.9591   6.0000                                                             
     3  0  0.50     -3362.1768   2.0000                                                             
     3  1  1.50     -2801.5463   6.0000                                                             
     3  2  2.50     -2203.8206  10.0000                                                             
     4  0  0.50      -729.8168   2.0000                                                             
     4  1  1.50      -546.0527   6.0000                                                             
     4  2  2.50      -325.7302  10.0000                                                             
     4  3  3.50       -81.1472  14.0000                                                             
     5  0  0.50      -108.3201   2.0000                                                             
     5  1  1.50       -59.7479   6.0000                                                             
     5  2  2.50        -6.8783  10.0000                                                             
     6  0  0.50        -5.7602   1.0000                                                             
     6  1  1.50        -6.8029   0.0000                                                             
     5  3  2.50        -1.3606   0.0000                                                             
   Description                                                                                      
     l       E           TYP  RCUT    TYP  RCUT                                                     
     2     -6.8782861     23  2.500                                                                 
     2     -8.2388687     23  2.500                                                                 
     0     -5.7601759     23  2.500                                                                 
     0     -0.8493231     23  2.500                                                                 
     1     -2.7211652     23  2.500                                                                 
     1     27.2116520     23  2.500                                                                 
     3     -1.3605826     23  2.500                                                                 
  local pseudopotential read in
  partial core-charges read in
  partial kinetic energy density read in
  atomic valenz-charges read in
  non local Contribution for L=           2  read in
    real space projection operators read in
  non local Contribution for L=           2  read in
    real space projection operators read in
  non local Contribution for L=           0  read in
    real space projection operators read in
  non local Contribution for L=           0  read in
    real space projection operators read in
  non local Contribution for L=           1  read in
    real space projection operators read in
  non local Contribution for L=           1  read in
    real space projection operators read in
    PAW grid and wavefunctions read in
 
   number of l-projection  operators is LMAX  =           6
   number of lm-projection operators is LMMAX =          18
 
 POTCAR:    PAW_PBE Ta 17Jan2003                  
   VRHFIN =Ta:  6s5d                                                                                
   LEXCH  = PE                                                                                      
   EATOM  =   130.6506 eV,    9.6025 Ry                                                             
                                                                                                    
   TITEL  = PAW_PBE Ta 17Jan2003                                                                    
   LULTRA =        F    use ultrasoft PP ?                                                          
   IUNSCR =        1    unscreen: 0-lin 1-nonlin 2-no                                               
   RPACOR =    2.330    partial core radius                                                         
   POMASS =  180.948; ZVAL   =    5.000    mass and valenz                                          
   RCORE  =    2.900    outmost cutoff radius                                                       
   RWIGS  =    2.840; RWIGS  =    1.503    wigner-seitz radius (au A)                               
   ENMAX  =  223.667; ENMIN  =  167.750 eV                                                          
   RCLOC  =    2.205    cutoff for local pot                                                        
   LCOR   =        T    correct aug charges                                                         
   LPAW   =        T    paw PP                                                                      
   EAUG   =  332.075                                                                                
   DEXC   =    0.000                                                                                
   RMAX   =    2.970    core radius for proj-oper                                                   
   RAUG   =    1.300    factor for augmentation sphere                                              
   RDEP   =    3.060    radius for radial grids                                                     
   RDEPT  =    2.354    core radius for aug-charge                                                  
                                                                                                    
   Atomic configuration                                                                             
   16 entries                                                                                       
     n  l   j            E        occ.                                                              
     1  0  0.50    -67341.2807   2.0000                                                             
     2  0  0.50    -11566.9376   2.0000                                                             
     2  1  1.50    -10134.1182   6.0000                                                             
     3  0  0.50     -2648.5620   2.0000                                                             
     3  1  1.50     -2222.6012   6.0000                                                             
     3  2  2.50     -1726.3120  10.0000                                                             
     4  0  0.50      -538.6961   2.0000                                                             
     4  1  1.50      -399.0129   6.0000                                                             
     4  2  2.50      -220.3959  10.0000                                                             
     4  3  3.50       -23.0374  14.0000                                                             
     5  0  0.50       -71.2901   2.0000                                                             
     5  1  1.50       -37.8225   6.0000                                                             
     5  2  2.50        -2.6455   4.0000                                                             
     6  0  0.50        -4.9623   1.0000                                                             
     6  1  1.50        -1.3606   0.0000                                                             
     5  3  2.50        -1.3606   0.0000                                                             
   Description                                                                                      
     l       E           TYP  RCUT    TYP  RCUT                                                     
     2     -2.6455043     23  2.500                                                                 
     2     -0.6258895     23  2.500                                                                 
     0     -4.9622780     23  2.500                                                                 
     0      4.7531321     23  2.500                                                                 
     1     -1.3605826     23  2.900                                                                 
     1     27.2116520     23  2.900                                                                 
  local pseudopotential read in
  partial core-charges read in
  partial kinetic energy density read in
  atomic valenz-charges read in
  non local Contribution for L=           2  read in
    real space projection operators read in
  non local Contribution for L=           2  read in
    real space projection operators read in
  non local Contribution for L=           0  read in
    real space projection operators read in
  non local Contribution for L=           0  read in
    real space projection operators read in
  non local Contribution for L=           1  read in
    real space projection operators read in
  non local Contribution for L=           1  read in
    real space projection operators read in
    PAW grid and wavefunctions read in
 
   number of l-projection  operators is LMAX  =           6
   number of lm-projection operators is LMMAX =          18
 
 Optimization of the real space projectors (new method)

 maximal supplied QI-value         = 15.12
 optimisation between [QCUT,QGAM] = [ 11.34, 22.83] = [ 36.00,145.93] Ry 
 Optimized for a Real-space Cutoff    1.39 Angstroem

   l    n(q)    QCUT    max X(q) W(low)/X(q) W(high)/X(q)  e(spline) 
   2      9    11.338    60.898    0.39E-03    0.42E-03    0.21E-06
   2      9    11.338    58.894    0.40E-03    0.42E-03    0.22E-06
   0      9    11.338   109.617    0.13E-03    0.20E-04    0.13E-06
   0      9    11.338    75.026    0.13E-03    0.20E-04    0.13E-06
   1      9    11.338    16.344    0.33E-04    0.24E-03    0.18E-06
   1      9    11.338    10.160    0.26E-04    0.19E-03    0.15E-06
 Optimization of the real space projectors (new method)

 maximal supplied QI-value         = 12.85
 optimisation between [QCUT,QGAM] = [ 11.44, 22.87] = [ 36.63,146.51] Ry 
 Optimized for a Real-space Cutoff    1.61 Angstroem

   l    n(q)    QCUT    max X(q) W(low)/X(q) W(high)/X(q)  e(spline) 
   2     10    11.437    62.315    0.14E-03    0.26E-03    0.80E-06
   2     10    11.437    52.185    0.14E-03    0.26E-03    0.80E-06
   0     11    11.437   103.837    0.25E-04    0.17E-04    0.84E-07
   0     11    11.437    59.728    0.20E-04    0.15E-04    0.73E-07
   1     11    11.437    13.958    0.47E-03    0.12E-03    0.89E-06
   1     11    11.437     8.441    0.33E-03    0.88E-04    0.61E-06
  PAW_PBE Au 04Oct2007                  :
 energy of atom  1       EATOM= -926.0867
 kinetic energy error for atom=    0.0042 (will be added to EATOM!!)
  PAW_PBE Ta 17Jan2003                  :
 energy of atom  2       EATOM= -130.6506
 kinetic energy error for atom=    0.0012 (will be added to EATOM!!)
 
 
 POSCAR: Au-Ta
  positions in direct lattice
  velocities in cartesian coordinates
 exchange correlation table for  LEXCH =        8
   RHO(1)=    0.500       N(1)  =     2000
   RHO(2)=  100.500       N(2)  =     4000

 VTST: version 3.2, (02/03/18)

 CHAIN: initializing optimizer
 
 OPT: Using VASP Conjugate-Gradient optimizer
 CHAIN: Read ICHAIN            0
 
 POSCAR: Au-Ta
  positions in direct lattice
  velocities in cartesian coordinates
 


--------------------------------------------------------------------------------------------------------


 ion  position               nearest neighbor table
   1  0.000  0.000  0.238-  16 2.94  12 2.94   6 2.94   8 2.94   7 2.94   3 2.94  10 2.94   4 2.94
                             2 2.94
   2  0.333  0.000  0.238-   9 2.94  11 2.94  17 2.94  10 2.94   8 2.94   4 2.94   5 2.94   1 2.94
                             3 2.94
   3  0.667  0.000  0.238-   7 2.94  18 2.94  12 2.94   1 2.94  11 2.94   5 2.94   6 2.94   9 2.94
                             2 2.94
   4  0.000  0.333  0.238-  10 2.94   6 2.94   5 2.94  13 2.94   2 2.94  15 2.94   9 2.94   1 2.94
                             7 2.94
   5  0.333  0.333  0.238-  13 2.94   7 2.94  11 2.94   4 2.94   2 2.94  14 2.94   3 2.94   8 2.94
                             6 2.94
   6  0.667  0.333  0.238-  15 2.94  14 2.94   1 2.94  12 2.94   4 2.94   9 2.94   8 2.94   3 2.94
                             5 2.94
   7  0.000  0.667  0.238-  18 2.94   3 2.94  16 2.94   5 2.94   1 2.94  13 2.94   8 2.94   4 2.94
                             9 2.94
   8  0.333  0.667  0.238-   9 2.94  17 2.94   1 2.94   2 2.94  14 2.94  16 2.94   6 2.94   7 2.94
                             5 2.94
   9  0.667  0.667  0.238-   2 2.94   8 2.94  17 2.94   6 2.94  15 2.94   4 2.94   3 2.94  18 2.94
                             7 2.94
  10  0.111  0.111  0.346-  20 2.91  11 2.94  17 2.94   2 2.94   4 2.94   1 2.94  12 2.94  16 2.94
                            13 2.94  15 2.94  26 2.96  19 2.96
  11  0.444  0.111  0.346-  20 2.91  21 2.91  13 2.94   2 2.94  10 2.94  17 2.94   5 2.94   3 2.94
                            18 2.94  14 2.94  12 2.94  27 2.94
  12  0.778  0.111  0.346-  21 2.91  16 2.94  18 2.94   1 2.94  14 2.94  15 2.94   3 2.94   6 2.94
                            10 2.94  11 2.94  25 2.96  19 2.96
  13  0.111  0.444  0.346-  23 2.91  20 2.91   5 2.94  18 2.94  11 2.94   7 2.94   4 2.94  16 2.94
                            10 2.94  14 2.94  15 2.94  22 2.94
  14  0.444  0.444  0.346-  21 2.91  23 2.91  15 2.94   6 2.94  12 2.94   8 2.94  17 2.94   5 2.94
                            16 2.94  13 2.94  11 2.94  24 2.94
  15  0.778  0.444  0.346-  24 2.92  22 2.92  14 2.94   6 2.94  17 2.94  12 2.94   9 2.94   4 2.94
                            10 2.94  13 2.94  18 2.94  19 2.95
  16  0.111  0.778  0.346-  23 2.91  18 2.94  12 2.94   7 2.94   1 2.94   8 2.94  13 2.94  10 2.94
                            14 2.94  17 2.94  25 2.96  26 2.96
  17  0.444  0.778  0.346-  27 2.92  24 2.92   9 2.94  15 2.94   2 2.94  10 2.94  11 2.94   8 2.94
                            14 2.94  16 2.94  18 2.94  26 2.95
  18  0.778  0.778  0.346-  22 2.92  27 2.92  16 2.94   7 2.94  13 2.94  12 2.94   3 2.94  11 2.94
                             9 2.94  15 2.94  17 2.94  25 2.95
  19  0.888  0.223  0.455-  24 2.93  22 2.93  21 2.93  20 2.93  28 2.95  15 2.95  26 2.95  25 2.95
                            10 2.96  12 2.96  32 3.06  31 3.06
  20  0.222  0.222  0.453-  36 2.74  10 2.91  11 2.91  13 2.91  26 2.93  19 2.93  23 2.95  21 2.95
                            27 2.95  22 2.95  29 2.99  31 2.99
  21  0.556  0.222  0.453-  36 2.74  12 2.91  14 2.91  11 2.91  25 2.93  19 2.93  20 2.95  23 2.95
                            27 2.95  24 2.95  30 2.99  32 2.99
  22  0.886  0.557  0.454-  24 2.91  27 2.91  18 2.92  15 2.92  25 2.93  19 2.93  13 2.94  23 2.95
                            20 2.95  35 2.96  33 3.03  31 3.03
  23  0.222  0.556  0.453-  36 2.74  16 2.91  13 2.91  14 2.91  25 2.93  26 2.93  20 2.95  21 2.95
                            22 2.95  24 2.95  33 2.99  34 2.99
  24  0.557  0.557  0.454-  27 2.91  22 2.91  15 2.92  17 2.92  26 2.93  19 2.93  14 2.94  21 2.95
                            23 2.95  35 2.96  32 3.03  34 3.03
  25  0.888  0.888  0.455-  22 2.93  27 2.93  23 2.93  21 2.93  28 2.95  18 2.95  19 2.95  26 2.95
                            16 2.96  12 2.96  33 3.06  30 3.06
  26  0.223  0.888  0.455-  27 2.93  24 2.93  20 2.93  23 2.93  28 2.95  17 2.95  19 2.95  25 2.95
                            10 2.96  16 2.96  29 3.06  34 3.06
  27  0.557  0.886  0.454-  24 2.91  22 2.91  17 2.92  18 2.92  26 2.93  25 2.93  11 2.94  20 2.95
                            21 2.95  35 2.96  29 3.03  30 3.03
  28  0.000  0.000  0.563-  25 2.95  19 2.95  26 2.95  34 3.00  32 3.00  33 3.00  30 3.00  31 3.00
                            29 3.00
  29  0.334  0.012  0.567-  30 2.82  31 2.84  36 2.85  35 2.99  20 2.99  28 3.00  27 3.03  26 3.06
                            34 3.16
  30  0.654  0.012  0.567-  29 2.82  32 2.84  36 2.85  35 2.99  21 2.99  28 3.00  27 3.03  25 3.06
                            33 3.16
  31  0.012  0.334  0.567-  33 2.82  29 2.84  36 2.85  35 2.99  20 2.99  28 3.00  22 3.03  19 3.06
                            32 3.16
  32  0.654  0.334  0.567-  34 2.82  30 2.84  36 2.85  35 2.99  21 2.99  28 3.00  24 3.03  19 3.06
                            31 3.16
  33  0.012  0.654  0.567-  31 2.82  34 2.84  36 2.85  35 2.99  23 2.99  28 3.00  22 3.03  25 3.06
                            30 3.16
  34  0.334  0.654  0.567-  32 2.82  33 2.84  36 2.85  35 2.99  23 2.99  28 3.00  24 3.03  26 3.06
                            29 3.16
  35  0.667  0.667  0.563-  24 2.96  27 2.96  22 2.96  29 2.99  34 2.99  32 2.99  31 2.99  30 2.99
                            33 2.99
  36  0.333  0.333  0.550-  20 2.74  23 2.74  21 2.74  33 2.85  31 2.85  29 2.85  30 2.85  34 2.85
                            32 2.85
 
  LATTYP: Found a hexagonal cell.
 ALAT       =     8.8135128021
 C/A-ratio  =     2.5184286595
  
  Lattice vectors:
  
 A1 = (  -4.4067569092,  -7.6327256898,   0.0000000000)
 A2 = (   8.8135128021,   0.0000000000,   0.0000000000)
 A3 = (   0.0000000000,   0.0000000000,  22.1962032318)


Analysis of symmetry for initial positions (statically):
=====================================================================
 Subroutine PRICEL returns:
 Original cell was already a primitive cell.
 

 Routine SETGRP: Setting up the symmetry group for a 
 hexagonal supercell.


 Subroutine GETGRP returns: Found  6 space group operations
 (whereof  6 operations were pure point group operations)
 out of a pool of 24 trial point group operations.


The static configuration has the point symmetry C_3v.


Analysis of symmetry for dynamics (positions and initial velocities):
=====================================================================
 Subroutine PRICEL returns:
 Original cell was already a primitive cell.
 

 Routine SETGRP: Setting up the symmetry group for a 
 hexagonal supercell.


 Subroutine GETGRP returns: Found  6 space group operations
 (whereof  6 operations were pure point group operations)
 out of a pool of 24 trial point group operations.


The dynamic configuration has the point symmetry C_3v.


Analysis of constrained symmetry for selective dynamics:
=====================================================================
 Subroutine PRICEL returns:
 Original cell was already a primitive cell.
 

 Routine SETGRP: Setting up the symmetry group for a 
 hexagonal supercell.


 Subroutine GETGRP returns: Found  6 space group operations
 (whereof  6 operations were pure point group operations)
 out of a pool of 24 trial point group operations.


The constrained configuration has the point symmetry C_3v.


 Subroutine INISYM returns: Found  6 space group operations
 (whereof  6 operations are pure point group operations),
 and found     1 'primitive' translations


----------------------------------------------------------------------------------------

                                     Primitive cell                                     

  volume of cell :    1493.1636

  direct lattice vectors                    reciprocal lattice vectors
     8.813512802  0.000000000  0.000000000     0.113462137 -0.065507406  0.000000000
     4.406756909  7.632725690  0.000000000     0.000000000  0.131014796  0.000000000
     0.000000000  0.000000000 22.196203232     0.000000000  0.000000000  0.045052750

  length of vectors
     8.813512802  8.813512802 22.196203232     0.131014796  0.131014796  0.045052750

  position of ions in fractional coordinates (direct lattice)
     0.000000000  0.000000000  0.237895638
     0.333333343  0.000000000  0.237895638
     0.666666687  0.000000000  0.237895638
     1.000000000  0.333333343  0.237895638
     0.333333313  0.333333343  0.237895638
     0.666666687  0.333333343  0.237895638
     1.000000000  0.666666687  0.237895638
     0.333333343  0.666666687  0.237895638
     0.666666627  0.666666687  0.237895638
     0.111111119  0.111111112  0.345965207
     0.444444418  0.111111112  0.345965207
     0.777777791  0.111111112  0.345965207
     0.111111127  0.444444448  0.345965207
     0.444444478  0.444444448  0.345965207
     0.777777731  0.444444448  0.345965207
     0.111111090  0.777777791  0.345965207
     0.444444448  0.777777791  0.345965207
     0.777777851  0.777777791  0.345965207
     0.888414265  0.223171486  0.454944397
     0.221838703  0.221838688  0.452655714
     0.556322654  0.221838688  0.452655714
     0.886428238  0.556785911  0.453611097
     0.221838658  0.556322654  0.452655714
     0.556785911  0.556785911  0.453611097
     0.888414265  0.888414265  0.454944397
     0.223171516  0.888414265  0.454944397
     0.556785851  0.886428238  0.453611097
     0.000000000  0.000000000  0.563183635
     0.334249517  0.011962823  0.566601328
     0.653787689  0.011962823  0.566601328
     0.011962823  0.334249517  0.566601328
     0.653787689  0.334249517  0.566601328
     0.011962823  0.653787689  0.566601328
     0.334249517  0.653787689  0.566601328
     0.666666627  0.666666687  0.563477734
     0.333333313  0.333333343  0.549669651

  ion indices of the primitive-cell ions
   primitive index   ion index
                 1           1
                 2           2
                 3           3
                 4           4
                 5           5
                 6           6
                 7           7
                 8           8
                 9           9
                10          10
                11          11
                12          12
                13          13
                14          14
                15          15
                16          16
                17          17
                18          18
                19          19
                20          20
                21          21
                22          22
                23          23
                24          24
                25          25
                26          26
                27          27
                28          28
                29          29
                30          30
                31          31
                32          32
                33          33
                34          34
                35          35
                36          36

----------------------------------------------------------------------------------------

 
 
 KPOINTS: Automatic mesh                          

Automatic generation of k-mesh.
 Grid dimensions read from file:
 generate k-points for:    8    8    1

 Generating k-lattice:

  Cartesian coordinates                     Fractional coordinates (reciprocal lattice)
     0.014182767 -0.008188426  0.000000000     0.125000000 -0.000000000  0.000000000
     0.000000000  0.016376850  0.000000000     0.000000000  0.125000000  0.000000000
     0.000000000  0.000000000  0.045052750     0.000000000  0.000000000  1.000000000

  Length of vectors
     0.016376850  0.016376850  0.045052750

  Shift w.r.t. Gamma in fractional coordinates (k-lattice)
     0.000000000  0.000000000  0.000000000

 TETIRR: Found     36 inequivalent tetrahedra from      384
 
 Subroutine IBZKPT returns following result:
 ===========================================
 
 Found     10 irreducible k-points:
 
 Following reciprocal coordinates:
            Coordinates               Weight
  0.000000  0.000000  0.000000      1.000000
  0.125000 -0.000000  0.000000      6.000000
  0.250000 -0.000000  0.000000      6.000000
  0.375000  0.000000  0.000000      6.000000
  0.500000 -0.000000  0.000000      3.000000
  0.250000  0.125000  0.000000      6.000000
  0.375000  0.125000  0.000000     12.000000
  0.500000  0.125000  0.000000     12.000000
  0.500000  0.250000  0.000000      6.000000
 -0.375000  0.250000  0.000000      6.000000
 
 Following cartesian coordinates:
            Coordinates               Weight
  0.000000  0.000000  0.000000      1.000000
  0.014183 -0.008188  0.000000      6.000000
  0.028366 -0.016377  0.000000      6.000000
  0.042548 -0.024565  0.000000      6.000000
  0.056731 -0.032754  0.000000      3.000000
  0.028366 -0.000000  0.000000      6.000000
  0.042548 -0.008188  0.000000     12.000000
  0.056731 -0.016377  0.000000     12.000000
  0.056731 -0.000000  0.000000      6.000000
 -0.042548  0.057319  0.000000      6.000000
 


--------------------------------------------------------------------------------------------------------




 Dimension of arrays:
   k-points           NKPTS =     10   k-points in BZ     NKDIM =     10   number of bands    NBANDS=    252
   number of dos      NEDOS =    301   number of ions     NIONS =     36
   non local maximal  LDIM  =      6   non local SUM 2l+1 LMDIM =     18
   total plane-waves  NPLWV = 290304
   max r-space proj   IRMAX =   3455   max aug-charges    IRDMAX=  13433
   dimension x,y,z NGX =    48 NGY =   48 NGZ =  126
   dimension x,y,z NGXF=    96 NGYF=   96 NGZF=  252
   support grid    NGXF=    96 NGYF=   96 NGZF=  252
   ions per type =              35   1
   NGX,Y,Z   is equivalent  to a cutoff of   9.05,  9.05,  9.44 a.u.
   NGXF,Y,Z  is equivalent  to a cutoff of  18.11, 18.11, 18.87 a.u.

 SYSTEM =  unknown system                          
 POSCAR =  Au-Ta                                   

 Startparameter for this run:
   NWRITE =      2    write-flag & timer
   PREC   = normal    normal or accurate (medium, high low for compatibility)
   ISTART =      0    job   : 0-new  1-cont  2-samecut
   ICHARG =     11    charge: 1-file 2-atom 10-const
   ISPIN  =      1    spin polarized calculation?
   LNONCOLLINEAR =      F non collinear calculations
   LSORBIT =      F    spin-orbit coupling
   INIWAV =      1    electr: 0-lowe 1-rand  2-diag
   LASPH  =      F    aspherical Exc in radial PAW
   METAGGA=      F    non-selfconsistent MetaGGA calc.

 Electronic Relaxation 1
   ENCUT  =  500.0 eV  36.75 Ry    6.06 a.u.  16.07 16.07 40.47*2*pi/ulx,y,z
   ENINI  =  500.0     initial cutoff
   ENAUG  =  356.7 eV  augmentation charge cutoff
   NELM   =    150;   NELMIN=  2; NELMDL= -5     # of ELM steps 
   EDIFF  = 0.1E-04   stopping-criterion for ELM
   LREAL  =      T    real-space projection
   NLSPLINE    = F    spline interpolate recip. space projectors
   LCOMPAT=      F    compatible to vasp.4.4
   GGA_COMPAT  = T    GGA compatible to vasp.4.4-vasp.4.6
   LMAXPAW     = -100 max onsite density
   LMAXMIX     =    2 max onsite mixed and CHGCAR
   VOSKOWN=      0    Vosko Wilk Nusair interpolation
   ROPT   =   -0.00050  -0.00050
 Ionic relaxation
   EDIFFG = -.1E-01   stopping-criterion for IOM
   NSW    =      0    number of steps for IOM
   NBLOCK =      1;   KBLOCK =      1    inner block; outer block 
   IBRION =     -1    ionic relax: 0-MD 1-quasi-New 2-CG
   NFREE  =      1    steps in history (QN), initial steepest desc. (CG)
   ISIF   =      2    stress and relaxation
   IWAVPR =     10    prediction:  0-non 1-charg 2-wave 3-comb
   ISYM   =      2    0-nonsym 1-usesym 2-fastsym
   LCORR  =      T    Harris-Foulkes like correction to forces

   POTIM  = 0.5000    time-step for ionic-motion
   TEIN   =    0.0    initial temperature
   TEBEG  =    0.0;   TEEND  =   0.0 temperature during run
   SMASS  =  -3.00    Nose mass-parameter (am)
   estimated Nose-frequenzy (Omega)   =  0.10E-29 period in steps = 0.13E+47 mass=  -0.178E-26a.u.
   SCALEE = 1.0000    scale energy and forces
   NPACO  =    256;   APACO  = 16.0  distance and # of slots for P.C.
   PSTRESS=    0.0 pullay stress

  Mass of Ions in am
   POMASS = 196.97180.95
  Ionic Valenz
   ZVAL   =  11.00  5.00
  Atomic Wigner-Seitz radii
   RWIGS  =  -1.00 -1.00
  virtual crystal weights 
   VCA    =   1.00  1.00
   NELECT =     390.0000    total number of electrons
   NUPDOWN=      -1.0000    fix difference up-down

 DOS related values:
   EMIN   =  10.00;   EMAX   =-10.00  energy-range for DOS
   EFERMI =   0.00
   ISMEAR =    -5;   SIGMA  =   0.10  broadening in eV -4-tet -1-fermi 0-gaus

 Electronic relaxation 2 (details)
   IALGO  =     68    algorithm
   LDIAG  =      T    sub-space diagonalisation (order eigenvalues)
   LSUBROT=      F    optimize rotation matrix (better conditioning)
   TURBO    =      0    0=normal 1=particle mesh
   IRESTART =      0    0=no restart 2=restart with 2 vectors
   NREBOOT  =      0    no. of reboots
   NMIN     =      0    reboot dimension
   EREF     =   0.00    reference energy to select bands
   IMIX   =      4    mixing-type and parameters
     AMIX     =   0.40;   BMIX     =  1.00
     AMIX_MAG =   1.60;   BMIX_MAG =  1.00
     AMIN     =   0.10
     WC   =   100.;   INIMIX=   1;  MIXPRE=   1;  MAXMIX= -45

 Intra band minimization:
   WEIMIN = 0.0000     energy-eigenvalue tresh-hold
   EBREAK =  0.99E-08  absolut break condition
   DEPER  =   0.30     relativ break condition  

   TIME   =   0.40     timestep for ELM

  volume/ion in A,a.u.               =      41.48       279.90
  Fermi-wavevector in a.u.,A,eV,Ry     =   1.046471  1.977544 14.899764  1.095102
  Thomas-Fermi vector in A             =   2.181311
 
 Write flags
   LWAVE        =      F    write WAVECAR
   LDOWNSAMPLE  =      F    k-point downsampling of WAVECAR
   LCHARG       =      F    write CHGCAR
   LVTOT        =      F    write LOCPOT, total local potential
   LVHAR        =      F    write LOCPOT, Hartree potential only
   LELF         =      F    write electronic localiz. function (ELF)
   LORBIT       =     10    0 simple, 1 ext, 2 COOP (PROOUT), +10 PAW based schemes


 Dipole corrections
   LMONO  =      F    monopole corrections only (constant potential shift)
   LDIPOL =      F    correct potential (dipole corrections)
   IDIPOL =      0    1-x, 2-y, 3-z, 4-all directions 
   EPSILON=  1.0000000 bulk dielectric constant

 Exchange correlation treatment:
   GGA     =    --    GGA type
   LEXCH   =     8    internal setting for exchange type
   VOSKOWN=      0    Vosko Wilk Nusair interpolation
   LHFCALC =     F    Hartree Fock is set to
   LHFONE  =     F    Hartree Fock one center treatment
   AEXX    =    0.0000 exact exchange contribution

 Linear response parameters
   LEPSILON=     F    determine dielectric tensor
   LRPA    =     F    only Hartree local field effects (RPA)
   LNABLA  =     F    use nabla operator in PAW spheres
   LVEL    =     F    velocity operator in full k-point grid
   LINTERFAST=   F  fast interpolation
   KINTER  =     0    interpolate to denser k-point grid
   CSHIFT  =0.1000    complex shift for real part using Kramers Kronig
   OMEGAMAX=  -1.0    maximum frequency
   DEG_THRESHOLD= 0.2000000E-02 threshold for treating states as degnerate
   RTIME   =   -0.100 relaxation time in fs
  (WPLASMAI=    0.000 imaginary part of plasma frequency in eV, 0.658/RTIME)
   DFIELD  = 0.0000000 0.0000000 0.0000000 field for delta impulse in time
 
 Orbital magnetization related:
   ORBITALMAG=     F  switch on orbital magnetization
   LCHIMAG   =     F  perturbation theory with respect to B field
   DQ        =  0.001000  dq finite difference perturbation B field
   LLRAUG    =     F  two centre corrections for induced B field



--------------------------------------------------------------------------------------------------------


 Static calculation
 charge density and potential remain constant during run
 non-spin polarized calculation
 RMM-DIIS sequential band-by-band and
  variant of blocked Davidson during initial phase
 perform sub-space diagonalisation
    before iterative eigenvector-optimisation
 no mixing
 using additional bands           57
 real space projection scheme for non local part
 use partial core corrections
 calculate Harris-corrections to forces 
   (improved forces if not selfconsistent)
 use gradient corrections 
 WARNING: stress and forces are not correct
  (second derivative of E(xc) not defined)
 use of overlap-Matrix (Vanderbilt PP)
 Fermi weights with tetrahedron method with Bloechl corrections


--------------------------------------------------------------------------------------------------------


  energy-cutoff  :      500.00
  volume of cell :     1493.16
      direct lattice vectors                 reciprocal lattice vectors
     8.813512802  0.000000000  0.000000000     0.113462137 -0.065507406  0.000000000
     4.406756909  7.632725690  0.000000000     0.000000000  0.131014796  0.000000000
     0.000000000  0.000000000 22.196203232     0.000000000  0.000000000  0.045052750

  length of vectors
     8.813512802  8.813512802 22.196203232     0.131014796  0.131014796  0.045052750


 
 k-points in units of 2pi/SCALE and weight: Automatic mesh                          
   0.00000000  0.00000000  0.00000000       0.016
   0.01418277 -0.00818843  0.00000000       0.094
   0.02836553 -0.01637685  0.00000000       0.094
   0.04254830 -0.02456528  0.00000000       0.094
   0.05673107 -0.03275370  0.00000000       0.047
   0.02836553 -0.00000000  0.00000000       0.094
   0.04254830 -0.00818843  0.00000000       0.188
   0.05673107 -0.01637685  0.00000000       0.188
   0.05673107 -0.00000000  0.00000000       0.094
  -0.04254830  0.05731898  0.00000000       0.094
 
 k-points in reciprocal lattice and weights: Automatic mesh                          
   0.00000000  0.00000000  0.00000000       0.016
   0.12500000 -0.00000000  0.00000000       0.094
   0.25000000 -0.00000000  0.00000000       0.094
   0.37500000  0.00000000  0.00000000       0.094
   0.50000000 -0.00000000  0.00000000       0.047
   0.25000000  0.12500000  0.00000000       0.094
   0.37500000  0.12500000  0.00000000       0.188
   0.50000000  0.12500000  0.00000000       0.188
   0.50000000  0.25000000  0.00000000       0.094
  -0.37500000  0.25000000  0.00000000       0.094
 
 position of ions in fractional coordinates (direct lattice) 
   0.00000000  0.00000000  0.23789564
   0.33333334  0.00000000  0.23789564
   0.66666669  0.00000000  0.23789564
   0.00000000  0.33333334  0.23789564
   0.33333331  0.33333334  0.23789564
   0.66666669  0.33333334  0.23789564
   0.00000000  0.66666669  0.23789564
   0.33333334  0.66666669  0.23789564
   0.66666663  0.66666669  0.23789564
   0.11111112  0.11111111  0.34596521
   0.44444442  0.11111111  0.34596521
   0.77777779  0.11111111  0.34596521
   0.11111113  0.44444445  0.34596521
   0.44444448  0.44444445  0.34596521
   0.77777773  0.44444445  0.34596521
   0.11111109  0.77777779  0.34596521
   0.44444445  0.77777779  0.34596521
   0.77777785  0.77777779  0.34596521
   0.88841427  0.22317149  0.45494440
   0.22183870  0.22183869  0.45265571
   0.55632265  0.22183869  0.45265571
   0.88642824  0.55678591  0.45361110
   0.22183866  0.55632265  0.45265571
   0.55678591  0.55678591  0.45361110
   0.88841427  0.88841427  0.45494440
   0.22317152  0.88841427  0.45494440
   0.55678585  0.88642824  0.45361110
   0.00000000  0.00000000  0.56318363
   0.33424952  0.01196282  0.56660133
   0.65378769  0.01196282  0.56660133
   0.01196282  0.33424952  0.56660133
   0.65378769  0.33424952  0.56660133
   0.01196282  0.65378769  0.56660133
   0.33424952  0.65378769  0.56660133
   0.66666663  0.66666669  0.56347773
   0.33333331  0.33333334  0.54966965
 
 position of ions in cartesian coordinates  (Angst):
   0.00000000  0.00000000  5.28037993
   2.93783769  0.00000000  5.28037993
   5.87567538  0.00000000  5.28037993
   1.46891901  2.54424197  5.28037993
   4.40675643  2.54424197  5.28037993
   7.34459439  2.54424197  5.28037993
   2.93783803  5.08848395  5.28037993
   5.87567571  5.08848395  5.28037993
   8.81351288  5.08848395  5.28037993
   1.46891893  0.84808064  7.67911405
   4.40675623  0.84808064  7.67911405
   7.34459418  0.84808064  7.67911405
   2.93783798  3.39232256  7.67911405
   5.87567574  3.39232256  7.67911405
   8.81351263  3.39232256  7.67911405
   4.40675667  5.93656453  7.67911405
   7.34459449  5.93656453  7.67911405
  10.28243270  5.93656453  7.67911405
   8.81351299  1.70340673 10.09803830
   2.93276742  1.69323385 10.04723822
   5.88074600  1.69323385 10.04723822
  10.26616678  4.24979413 10.06844409
   4.40675655  4.24625821 10.04723822
   7.36085992  4.24979413 10.06844409
  11.74507620  6.78102238 10.09803830
   5.88195071  6.78102238 10.09803830
   8.81351299  6.76586358 10.06844409
   0.00000000  0.00000000 12.50053841
   2.99862966  0.09130895 12.57639823
   5.81488342  0.09130895 12.57639823
   1.57839087  2.55123488 12.57639823
   7.23512254  2.55123488 12.57639823
   2.98651791  4.99018209 12.57639823
   5.82699582  4.99018209 12.57639823
   8.81351288  5.08848395 12.50706630
   4.40675643  2.54424197 12.20057929
 


--------------------------------------------------------------------------------------------------------


 k-point   1 :   0.0000 0.0000 0.0000  plane waves:   37827
 k-point   2 :   0.1250-0.0000 0.0000  plane waves:   37876
 k-point   3 :   0.2500-0.0000 0.0000  plane waves:   37924
 k-point   4 :   0.3750 0.0000 0.0000  plane waves:   37904
 k-point   5 :   0.5000-0.0000 0.0000  plane waves:   37912
 k-point   6 :   0.2500 0.1250 0.0000  plane waves:   37858
 k-point   7 :   0.3750 0.1250 0.0000  plane waves:   37928
 k-point   8 :   0.5000 0.1250 0.0000  plane waves:   37924
 k-point   9 :   0.5000 0.2500 0.0000  plane waves:   37926
 k-point  10 :  -0.3750 0.2500 0.0000  plane waves:   37916

 maximum and minimum number of plane-waves per node :     37928    37827

 maximum number of plane-waves:     37928
 maximum index in each direction: 
   IXMAX=   16   IYMAX=   16   IZMAX=   40
   IXMIN=  -16   IYMIN=  -16   IZMIN=  -40


 serial   3D FFT for wavefunctions
 parallel 3D FFT for charge:
    minimum data exchange during FFTs selected (reduces bandwidth)


 total amount of memory used by VASP MPI-rank0   121909. kBytes
=======================================================================

   base      :      30000. kBytes
   nonlr-proj:      14321. kBytes
   fftplans  :       4330. kBytes
   grid      :      17098. kBytes
   one-center:        559. kBytes
   wavefun   :      55601. kBytes
 
     INWAV:  cpu time    0.0000: real time    0.0000
 initial charge density was supplied:
 number of electron     389.9999976 magnetization 
 keeping initial charge density in first step


--------------------------------------------------------------------------------------------------------


 Maximum index for non-local projection operator         3282
 Maximum index for augmentation-charges          855 (set IRDMAX)


--------------------------------------------------------------------------------------------------------


 First call to EWALD:  gamma=   0.155
 Maximum number of real-space cells 4x 4x 2
 Maximum number of reciprocal cells 2x 2x 5

    FEWALD:  cpu time    0.0014: real time    0.0014


--------------------------------------- Iteration      1(   1)  ---------------------------------------


    POTLOK:  cpu time    0.0596: real time    0.0600
    SETDIJ:  cpu time    0.0061: real time    0.0062
     EDDAV:  cpu time   11.0526: real time   11.1165
 BZINTS: Fermi energy:   11.041737;  390.000000 electrons
         Band energy: 0.147003E+04;  BLOECHL correction:   -0.024895
       DOS:  cpu time    0.0102: real time    0.0103
    --------------------------------------------
      LOOP:  cpu time   11.1285: real time   11.1931

 eigenvalue-minimisations  :  5040
 total energy-change (2. order) : 0.2532669E+04  (-0.1762980E+05)
 number of electron     389.9999976 magnetization 
 augmentation part      389.9999976 magnetization 

 Free energy of the ion-electron system (eV)
  ---------------------------------------------------
  alpha Z        PSCENC =       996.98501609
  Ewald energy   TEWEN  =     93969.32820291
  -Hartree energ DENC   =   -127698.03820434
  -exchange      EXHF   =         0.00000000
  -V(xc)+E(xc)   XCENC  =       450.94262445
  PAW double counting   =     35487.22894507   -34687.34695543
  entropy T*S    EENTRO =         0.00000000
  eigenvalues    EBANDS =      1470.03352602
  atomic energy  EATOM  =     32543.53556770
  Solvation  Ediel_sol  =         0.00000000
  ---------------------------------------------------
  free energy    TOTEN  =      2532.66872248 eV

  energy without entropy =     2532.66872248  energy(sigma->0) =     2532.66872248


--------------------------------------------------------------------------------------------------------




--------------------------------------- Iteration      1(   2)  ---------------------------------------


     EDDAV:  cpu time   12.9222: real time   12.9770
 BZINTS: Fermi energy:    1.421341;  390.000000 electrons
         Band energy:-0.106097E+04;  BLOECHL correction:   -0.036551
       DOS:  cpu time    0.0099: real time    0.0099
    --------------------------------------------
      LOOP:  cpu time   12.9321: real time   12.9869

 eigenvalue-minimisations  :  5656
 total energy-change (2. order) :-0.2531005E+04  (-0.2332551E+04)
 number of electron     389.9999976 magnetization 
 augmentation part      389.9999976 magnetization 

 Free energy of the ion-electron system (eV)
  ---------------------------------------------------
  alpha Z        PSCENC =       996.98501609
  Ewald energy   TEWEN  =     93969.32820291
  -Hartree energ DENC   =   -127698.03820434
  -exchange      EXHF   =         0.00000000
  -V(xc)+E(xc)   XCENC  =       450.94262445
  PAW double counting   =     35487.22894507   -34687.34695543
  entropy T*S    EENTRO =         0.00000000
  eigenvalues    EBANDS =     -1060.97131413
  atomic energy  EATOM  =     32543.53556770
  Solvation  Ediel_sol  =         0.00000000
  ---------------------------------------------------
  free energy    TOTEN  =         1.66388233 eV

  energy without entropy =        1.66388233  energy(sigma->0) =        1.66388233


--------------------------------------------------------------------------------------------------------




--------------------------------------- Iteration      1(   3)  ---------------------------------------


     EDDAV:  cpu time   13.8993: real time   13.9336
 BZINTS: Fermi energy:    0.768586;  390.000000 electrons
         Band energy:-0.117800E+04;  BLOECHL correction:   -0.032089
       DOS:  cpu time    0.0102: real time    0.0103
    --------------------------------------------
      LOOP:  cpu time   13.9096: real time   13.9439

 eigenvalue-minimisations  :  5880
 total energy-change (2. order) :-0.1170239E+03  (-0.1128242E+03)
 number of electron     389.9999976 magnetization 
 augmentation part      389.9999976 magnetization 

 Free energy of the ion-electron system (eV)
  ---------------------------------------------------
  alpha Z        PSCENC =       996.98501609
  Ewald energy   TEWEN  =     93969.32820291
  -Hartree energ DENC   =   -127698.03820434
  -exchange      EXHF   =         0.00000000
  -V(xc)+E(xc)   XCENC  =       450.94262445
  PAW double counting   =     35487.22894507   -34687.34695543
  entropy T*S    EENTRO =         0.00000000
  eigenvalues    EBANDS =     -1177.99517153
  atomic energy  EATOM  =     32543.53556770
  Solvation  Ediel_sol  =         0.00000000
  ---------------------------------------------------
  free energy    TOTEN  =      -115.35997508 eV

  energy without entropy =     -115.35997508  energy(sigma->0) =     -115.35997508


--------------------------------------------------------------------------------------------------------




--------------------------------------- Iteration      1(   4)  ---------------------------------------


     EDDAV:  cpu time   14.1918: real time   14.2257
 BZINTS: Fermi energy:    0.750154;  390.000000 electrons
         Band energy:-0.118027E+04;  BLOECHL correction:   -0.032257
       DOS:  cpu time    0.0103: real time    0.0103
    --------------------------------------------
      LOOP:  cpu time   14.2021: real time   14.2360

 eigenvalue-minimisations  :  6048
 total energy-change (2. order) :-0.2274767E+01  (-0.2270195E+01)
 number of electron     389.9999976 magnetization 
 augmentation part      389.9999976 magnetization 

 Free energy of the ion-electron system (eV)
  ---------------------------------------------------
  alpha Z        PSCENC =       996.98501609
  Ewald energy   TEWEN  =     93969.32820291
  -Hartree energ DENC   =   -127698.03820434
  -exchange      EXHF   =         0.00000000
  -V(xc)+E(xc)   XCENC  =       450.94262445
  PAW double counting   =     35487.22894507   -34687.34695543
  entropy T*S    EENTRO =         0.00000000
  eigenvalues    EBANDS =     -1180.26993870
  atomic energy  EATOM  =     32543.53556770
  Solvation  Ediel_sol  =         0.00000000
  ---------------------------------------------------
  free energy    TOTEN  =      -117.63474224 eV

  energy without entropy =     -117.63474224  energy(sigma->0) =     -117.63474224


--------------------------------------------------------------------------------------------------------




--------------------------------------- Iteration      1(   5)  ---------------------------------------


     EDDAV:  cpu time   13.4244: real time   13.4653
 BZINTS: Fermi energy:    0.749686;  390.000000 electrons
         Band energy:-0.118032E+04;  BLOECHL correction:   -0.032251
       DOS:  cpu time    0.0101: real time    0.0101
    --------------------------------------------
      LOOP:  cpu time   13.4344: real time   13.4754

 eigenvalue-minimisations  :  6132
 total energy-change (2. order) :-0.5038484E-01  (-0.5037622E-01)
 number of electron     389.9999976 magnetization 
 augmentation part      389.9999976 magnetization 

 Free energy of the ion-electron system (eV)
  ---------------------------------------------------
  alpha Z        PSCENC =       996.98501609
  Ewald energy   TEWEN  =     93969.32820291
  -Hartree energ DENC   =   -127698.03820434
  -exchange      EXHF   =         0.00000000
  -V(xc)+E(xc)   XCENC  =       450.94262445
  PAW double counting   =     35487.22894507   -34687.34695543
  entropy T*S    EENTRO =         0.00000000
  eigenvalues    EBANDS =     -1180.32032354
  atomic energy  EATOM  =     32543.53556770
  Solvation  Ediel_sol  =         0.00000000
  ---------------------------------------------------
  free energy    TOTEN  =      -117.68512708 eV

  energy without entropy =     -117.68512708  energy(sigma->0) =     -117.68512708


--------------------------------------------------------------------------------------------------------




--------------------------------------- Iteration      1(   6)  ---------------------------------------


    EDDIAG:  cpu time    1.4314: real time    1.4432
  RMM-DIIS:  cpu time    4.0645: real time    4.0665
    ORTHCH:  cpu time    0.2739: real time    0.2768
 BZINTS: Fermi energy:    0.749671;  390.000000 electrons
         Band energy:-0.118032E+04;  BLOECHL correction:   -0.032251
       DOS:  cpu time    0.0096: real time    0.0096
    --------------------------------------------
      LOOP:  cpu time    5.7794: real time    5.7961

 eigenvalue-minimisations  :  4994
 total energy-change (2. order) :-0.1561471E-02  (-0.1561691E-02)
 number of electron     389.9999976 magnetization 
 augmentation part      389.9999976 magnetization 

 Free energy of the ion-electron system (eV)
  ---------------------------------------------------
  alpha Z        PSCENC =       996.98501609
  Ewald energy   TEWEN  =     93969.32820291
  -Hartree energ DENC   =   -127698.03820434
  -exchange      EXHF   =         0.00000000
  -V(xc)+E(xc)   XCENC  =       450.94262445
  PAW double counting   =     35487.22894507   -34687.34695543
  entropy T*S    EENTRO =         0.00000000
  eigenvalues    EBANDS =     -1180.32188501
  atomic energy  EATOM  =     32543.53556770
  Solvation  Ediel_sol  =         0.00000000
  ---------------------------------------------------
  free energy    TOTEN  =      -117.68668855 eV

  energy without entropy =     -117.68668855  energy(sigma->0) =     -117.68668855


--------------------------------------------------------------------------------------------------------




--------------------------------------- Iteration      1(   7)  ---------------------------------------


    EDDIAG:  cpu time    1.5105: real time    1.5105
  RMM-DIIS:  cpu time    8.0855: real time    8.0862
    ORTHCH:  cpu time    0.3890: real time    0.3894
 BZINTS: Fermi energy:    0.749665;  390.000000 electrons
         Band energy:-0.118032E+04;  BLOECHL correction:   -0.032251
       DOS:  cpu time    0.0100: real time    0.0100
    --------------------------------------------
      LOOP:  cpu time    9.9950: real time    9.9961

 eigenvalue-minimisations  :  7057
 total energy-change (2. order) :-0.5049864E-03  (-0.5040889E-03)
 number of electron     389.9999976 magnetization 
 augmentation part      389.9999976 magnetization 

 Free energy of the ion-electron system (eV)
  ---------------------------------------------------
  alpha Z        PSCENC =       996.98501609
  Ewald energy   TEWEN  =     93969.32820291
  -Hartree energ DENC   =   -127698.03820434
  -exchange      EXHF   =         0.00000000
  -V(xc)+E(xc)   XCENC  =       450.94262445
  PAW double counting   =     35487.22894507   -34687.34695543
  entropy T*S    EENTRO =         0.00000000
  eigenvalues    EBANDS =     -1180.32238999
  atomic energy  EATOM  =     32543.53556770
  Solvation  Ediel_sol  =         0.00000000
  ---------------------------------------------------
  free energy    TOTEN  =      -117.68719354 eV

  energy without entropy =     -117.68719354  energy(sigma->0) =     -117.68719354


--------------------------------------------------------------------------------------------------------




--------------------------------------- Iteration      1(   8)  ---------------------------------------


    EDDIAG:  cpu time    2.0937: real time    2.0945
  RMM-DIIS:  cpu time    7.3027: real time    7.3054
    ORTHCH:  cpu time    0.3678: real time    0.3678
 BZINTS: Fermi energy:    0.749665;  390.000000 electrons
         Band energy:-0.118032E+04;  BLOECHL correction:   -0.032251
       DOS:  cpu time    0.0109: real time    0.0109
    --------------------------------------------
      LOOP:  cpu time    9.7751: real time    9.7786

 eigenvalue-minimisations  :  5608
 total energy-change (2. order) :-0.2316068E-04  (-0.2291740E-04)
 number of electron     389.9999976 magnetization 
 augmentation part      389.9999976 magnetization 

 Free energy of the ion-electron system (eV)
  ---------------------------------------------------
  alpha Z        PSCENC =       996.98501609
  Ewald energy   TEWEN  =     93969.32820291
  -Hartree energ DENC   =   -127698.03820434
  -exchange      EXHF   =         0.00000000
  -V(xc)+E(xc)   XCENC  =       450.94262445
  PAW double counting   =     35487.22894507   -34687.34695543
  entropy T*S    EENTRO =         0.00000000
  eigenvalues    EBANDS =     -1180.32241315
  atomic energy  EATOM  =     32543.53556770
  Solvation  Ediel_sol  =         0.00000000
  ---------------------------------------------------
  free energy    TOTEN  =      -117.68721670 eV

  energy without entropy =     -117.68721670  energy(sigma->0) =     -117.68721670


--------------------------------------------------------------------------------------------------------




--------------------------------------- Iteration      1(   9)  ---------------------------------------


    EDDIAG:  cpu time    2.0863: real time    2.0870
  RMM-DIIS:  cpu time    5.5849: real time    5.5926
    ORTHCH:  cpu time    0.3351: real time    0.3351
 BZINTS: Fermi energy:    0.749665;  390.000000 electrons
         Band energy:-0.118032E+04;  BLOECHL correction:   -0.032251
       DOS:  cpu time    0.0106: real time    0.0106
    --------------------------------------------
      LOOP:  cpu time    8.0169: real time    8.0253

 eigenvalue-minimisations  :  3683
 total energy-change (2. order) :-0.4714471E-05  (-0.4681372E-05)
 number of electron     389.9999976 magnetization 
 augmentation part      389.9999976 magnetization 

 Free energy of the ion-electron system (eV)
  ---------------------------------------------------
  alpha Z        PSCENC =       996.98501609
  Ewald energy   TEWEN  =     93969.32820291
  -Hartree energ DENC   =   -127698.03820434
  -exchange      EXHF   =         0.00000000
  -V(xc)+E(xc)   XCENC  =       450.94262445
  PAW double counting   =     35487.22894507   -34687.34695543
  entropy T*S    EENTRO =         0.00000000
  eigenvalues    EBANDS =     -1180.32241787
  atomic energy  EATOM  =     32543.53556770
  Solvation  Ediel_sol  =         0.00000000
  ---------------------------------------------------
  free energy    TOTEN  =      -117.68722141 eV

  energy without entropy =     -117.68722141  energy(sigma->0) =     -117.68722141


--------------------------------------------------------------------------------------------------------




 average (electrostatic) potential at core
  the test charge radii are     1.2098  1.2538
  (the norm of the test charge is              1.0000)
       1 -72.2901       2 -72.2822       3 -72.2822       4 -72.2822       5 -72.2674
       6 -72.2819       7 -72.2822       8 -72.2819       9 -72.2747      10 -72.6380
      11 -72.5895      12 -72.6379      13 -72.5894      14 -72.5893      15 -72.6030
      16 -72.6379      17 -72.6031      18 -72.6031      19 -72.5734      20 -72.9982
      21 -72.9983      22 -72.5565      23 -72.9983      24 -72.5566      25 -72.5736
      26 -72.5735      27 -72.5566      28 -72.3052      29 -72.5390      30 -72.5391
      31 -72.5390      32 -72.5390      33 -72.5391      34 -72.5390      35 -72.2987
      36 -42.4648
 
 
 
 E-fermi :   0.7497     XC(G=0):  -6.1045     alpha+bet : -5.7299

 Fermi energy:         0.7496652320

 k-point     1 :       0.0000    0.0000    0.0000
  band No.  band energies     occupation 
      1      -8.1034      2.00000
      2      -6.9841      2.00000
      3      -6.0624      2.00000
      4      -6.0013      2.00000
      5      -5.9806      2.00000
      6      -5.9805      2.00000
      7      -5.9369      2.00000
      8      -5.8888      2.00000
      9      -5.8665      2.00000
     10      -5.8664      2.00000
     11      -5.4973      2.00000
     12      -5.4973      2.00000
     13      -5.4897      2.00000
     14      -5.4629      2.00000
     15      -5.3934      2.00000
     16      -5.3934      2.00000
     17      -5.1394      2.00000
     18      -5.1393      2.00000
     19      -5.1393      2.00000
     20      -5.0964      2.00000
     21      -5.0537      2.00000
     22      -5.0537      2.00000
     23      -4.9974      2.00000
     24      -4.9163      2.00000
     25      -4.9163      2.00000
     26      -4.9108      2.00000
     27      -4.9108      2.00000
     28      -4.8867      2.00000
     29      -4.7793      2.00000
     30      -4.7793      2.00000
     31      -4.7688      2.00000
     32      -4.7566      2.00000
     33      -4.7189      2.00000
     34      -4.7189      2.00000
     35      -4.7133      2.00000
     36      -4.7132      2.00000
     37      -4.6803      2.00000
     38      -4.6747      2.00000
     39      -4.6747      2.00000
     40      -4.6664      2.00000
     41      -4.2622      2.00000
     42      -4.2622      2.00000
     43      -4.2504      2.00000
     44      -4.2119      2.00000
     45      -4.2119      2.00000
     46      -4.1945      2.00000
     47      -4.1598      2.00000
     48      -4.1598      2.00000
     49      -4.1208      2.00000
     50      -4.1208      2.00000
     51      -4.0400      2.00000
     52      -4.0357      2.00000
     53      -4.0226      2.00000
     54      -3.9449      2.00000
     55      -3.7772      2.00000
     56      -3.7151      2.00000
     57      -3.7151      2.00000
     58      -3.6702      2.00000
     59      -3.6636      2.00000
     60      -3.6636      2.00000
     61      -3.6536      2.00000
     62      -3.5782      2.00000
     63      -3.5782      2.00000
     64      -3.5315      2.00000
     65      -3.5315      2.00000
     66      -3.5057      2.00000
     67      -3.4899      2.00000
     68      -3.4898      2.00000
     69      -3.4703      2.00000
     70      -3.4703      2.00000
     71      -3.4637      2.00000
     72      -3.4289      2.00000
     73      -3.3932      2.00000
     74      -3.3932      2.00000
     75      -3.3739      2.00000
     76      -3.3739      2.00000
     77      -3.3620      2.00000
     78      -3.3620      2.00000
     79      -3.3595      2.00000
     80      -3.3151      2.00000
     81      -3.3151      2.00000
     82      -3.3002      2.00000
     83      -3.2919      2.00000
     84      -3.2919      2.00000
     85      -3.2869      2.00000
     86      -3.2444      2.00000
     87      -3.2444      2.00000
     88      -3.2298      2.00000
     89      -3.2298      2.00000
     90      -3.1867      2.00000
     91      -3.1866      2.00000
     92      -3.1469      2.00000
     93      -3.1105      2.00000
     94      -3.1105      2.00000
     95      -2.9245      2.00000
     96      -2.9245      2.00000
     97      -2.9215      2.00000
     98      -2.9215      2.00000
     99      -2.8322      2.00000
    100      -2.8040      2.00000
    101      -2.8040      2.00000
    102      -2.7940      2.00000
    103      -2.7803      2.00000
    104      -2.7803      2.00000
    105      -2.6846      2.00000
    106      -2.6846      2.00000
    107      -2.6622      2.00000
    108      -2.6329      2.00000
    109      -2.5873      2.00000
    110      -2.5873      2.00000
    111      -2.5337      2.00000
    112      -2.5337      2.00000
    113      -2.4805      2.00000
    114      -2.4594      2.00000
    115      -2.4472      2.00000
    116      -2.3728      2.00000
    117      -2.3728      2.00000
    118      -2.3284      2.00000
    119      -2.2843      2.00000
    120      -2.2843      2.00000
    121      -2.2707      2.00000
    122      -2.2706      2.00000
    123      -2.2534      2.00000
    124      -2.2091      2.00000
    125      -2.2091      2.00000
    126      -2.1647      2.00000
    127      -2.1647      2.00000
    128      -2.1059      2.00000
    129      -2.1059      2.00000
    130      -2.0760      2.00000
    131      -2.0427      2.00000
    132      -2.0303      2.00000
    133      -2.0303      2.00000
    134      -2.0177      2.00000
    135      -2.0165      2.00000
    136      -2.0165      2.00000
    137      -1.9967      2.00000
    138      -1.9967      2.00000
    139      -1.9274      2.00000
    140      -1.8844      2.00000
    141      -1.8844      2.00000
    142      -1.8733      2.00000
    143      -1.8425      2.00000
    144      -1.8425      2.00000
    145      -1.8132      2.00000
    146      -1.8132      2.00000
    147      -1.8008      2.00000
    148      -1.7501      2.00000
    149      -1.7488      2.00000
    150      -1.7488      2.00000
    151      -1.7234      2.00000
    152      -1.6866      2.00000
    153      -1.6637      2.00000
    154      -1.6636      2.00000
    155      -1.6537      2.00000
    156      -1.6537      2.00000
    157      -1.6378      2.00000
    158      -1.6063      2.00000
    159      -1.5903      2.00000
    160      -1.5903      2.00000
    161      -1.5580      2.00000
    162      -1.5580      2.00000
    163      -1.5573      2.00000
    164      -1.5239      2.00000
    165      -1.5168      2.00000
    166      -1.5148      2.00000
    167      -1.5148      2.00000
    168      -1.5052      2.00000
    169      -1.5052      2.00000
    170      -1.4731      2.00000
    171      -1.4323      2.00000
    172      -1.4323      2.00000
    173      -1.4124      2.00000
    174      -1.4024      2.00000
    175      -1.4016      2.00000
    176      -1.3993      2.00000
    177      -1.3993      2.00000
    178      -1.3878      2.00000
    179      -1.3878      2.00000
    180      -1.3561      2.00000
    181      -1.3215      2.00000
    182      -1.3215      2.00000
    183      -1.2698      2.00000
    184      -1.2698      2.00000
    185      -1.1772      2.00000
    186      -1.1657      2.00000
    187      -1.1657      2.00000
    188      -1.1305      2.00000
    189      -1.1305      2.00000
    190      -1.1259      2.00000
    191      -0.3977      2.00000
    192      -0.1326      2.00000
    193      -0.1326      2.00000
    194      -0.0913      2.00000
    195       0.0789      2.00000
    196       0.0789      2.00000
    197       0.1381      2.00000
    198       0.9497      0.00000
    199       0.9497      0.00000
    200       1.0154      0.00000
    201       1.3977      0.00000
    202       1.3977      0.00000
    203       1.4179      0.00000
    204       2.2126      0.00000
    205       2.2601      0.00000
    206       2.2601      0.00000
    207       2.5502      0.00000
    208       2.8259      0.00000
    209       2.8259      0.00000
    210       3.4846      0.00000
    211       3.5628      0.00000
    212       3.5629      0.00000
    213       3.7028      0.00000
    214       3.7029      0.00000
    215       3.7298      0.00000
    216       4.0457      0.00000
    217       4.5077      0.00000
    218       5.2862      0.00000
    219       5.3188      0.00000
    220       5.3188      0.00000
    221       5.3531      0.00000
    222       5.4222      0.00000
    223       5.4223      0.00000
    224       5.4692      0.00000
    225       5.5079      0.00000
    226       5.5079      0.00000
    227       5.6807      0.00000
    228       5.7338      0.00000
    229       5.7338      0.00000
    230       6.1152      0.00000
    231       6.2193      0.00000
    232       6.9062      0.00000
    233       6.9998      0.00000
    234       6.9998      0.00000
    235       7.0332      0.00000
    236       7.0333      0.00000
    237       7.0433      0.00000
    238       7.0709      0.00000
    239       7.1680      0.00000
    240       7.1682      0.00000
    241       7.1841      0.00000
    242       7.2239      0.00000
    243       7.2240      0.00000
    244       7.3813      0.00000
    245       7.3825      0.00000
    246       7.4712      0.00000
    247       7.5657      0.00000
    248       7.5721      0.00000
    249       7.6238      0.00000
    250       7.8320      0.00000
    251       7.8872      0.00000
    252       8.0361      0.00000

 k-point     2 :       0.1250   -0.0000    0.0000
  band No.  band energies     occupation 
      1      -8.0525      2.00000
      2      -6.9349      2.00000
      3      -6.1995      2.00000
      4      -6.0292      2.00000
      5      -6.0146      2.00000
      6      -5.9934      2.00000
      7      -5.8904      2.00000
      8      -5.8298      2.00000
      9      -5.7941      2.00000
     10      -5.7901      2.00000
     11      -5.5258      2.00000
     12      -5.4923      2.00000
     13      -5.4745      2.00000
     14      -5.4446      2.00000
     15      -5.3995      2.00000
     16      -5.3693      2.00000
     17      -5.1579      2.00000
     18      -5.1234      2.00000
     19      -5.1194      2.00000
     20      -5.0906      2.00000
     21      -5.0401      2.00000
     22      -5.0300      2.00000
     23      -5.0283      2.00000
     24      -4.9729      2.00000
     25      -4.9471      2.00000
     26      -4.8621      2.00000
     27      -4.8611      2.00000
     28      -4.8386      2.00000
     29      -4.8080      2.00000
     30      -4.7972      2.00000
     31      -4.7868      2.00000
     32      -4.7650      2.00000
     33      -4.7637      2.00000
     34      -4.7509      2.00000
     35      -4.7315      2.00000
     36      -4.6743      2.00000
     37      -4.6574      2.00000
     38      -4.6335      2.00000
     39      -4.5754      2.00000
     40      -4.5665      2.00000
     41      -4.3147      2.00000
     42      -4.2930      2.00000
     43      -4.2808      2.00000
     44      -4.2510      2.00000
     45      -4.2442      2.00000
     46      -4.2379      2.00000
     47      -4.1772      2.00000
     48      -4.1413      2.00000
     49      -4.1141      2.00000
     50      -4.0866      2.00000
     51      -4.0315      2.00000
     52      -4.0209      2.00000
     53      -3.9983      2.00000
     54      -3.9463      2.00000
     55      -3.8007      2.00000
     56      -3.7412      2.00000
     57      -3.7254      2.00000
     58      -3.7001      2.00000
     59      -3.6735      2.00000
     60      -3.6704      2.00000
     61      -3.6620      2.00000
     62      -3.6344      2.00000
     63      -3.6068      2.00000
     64      -3.5877      2.00000
     65      -3.5874      2.00000
     66      -3.5633      2.00000
     67      -3.5614      2.00000
     68      -3.5452      2.00000
     69      -3.5102      2.00000
     70      -3.4978      2.00000
     71      -3.4954      2.00000
     72      -3.4636      2.00000
     73      -3.4494      2.00000
     74      -3.4485      2.00000
     75      -3.4336      2.00000
     76      -3.4170      2.00000
     77      -3.3707      2.00000
     78      -3.3558      2.00000
     79      -3.3307      2.00000
     80      -3.3195      2.00000
     81      -3.2988      2.00000
     82      -3.2921      2.00000
     83      -3.2664      2.00000
     84      -3.2567      2.00000
     85      -3.2461      2.00000
     86      -3.2253      2.00000
     87      -3.1855      2.00000
     88      -3.1839      2.00000
     89      -3.1714      2.00000
     90      -3.1492      2.00000
     91      -3.1295      2.00000
     92      -3.1287      2.00000
     93      -3.0812      2.00000
     94      -3.0798      2.00000
     95      -3.0198      2.00000
     96      -3.0179      2.00000
     97      -2.9290      2.00000
     98      -2.9007      2.00000
     99      -2.8999      2.00000
    100      -2.8184      2.00000
    101      -2.7929      2.00000
    102      -2.7848      2.00000
    103      -2.7706      2.00000
    104      -2.7682      2.00000
    105      -2.7570      2.00000
    106      -2.7173      2.00000
    107      -2.6464      2.00000
    108      -2.6461      2.00000
    109      -2.6056      2.00000
    110      -2.5974      2.00000
    111      -2.5851      2.00000
    112      -2.5610      2.00000
    113      -2.5453      2.00000
    114      -2.5336      2.00000
    115      -2.5284      2.00000
    116      -2.4862      2.00000
    117      -2.4781      2.00000
    118      -2.4742      2.00000
    119      -2.4573      2.00000
    120      -2.4047      2.00000
    121      -2.3696      2.00000
    122      -2.2848      2.00000
    123      -2.2708      2.00000
    124      -2.2493      2.00000
    125      -2.2401      2.00000
    126      -2.2286      2.00000
    127      -2.2008      2.00000
    128      -2.1999      2.00000
    129      -2.1587      2.00000
    130      -2.1469      2.00000
    131      -2.1284      2.00000
    132      -2.1230      2.00000
    133      -2.1107      2.00000
    134      -2.0521      2.00000
    135      -2.0293      2.00000
    136      -2.0127      2.00000
    137      -1.9883      2.00000
    138      -1.9617      2.00000
    139      -1.9543      2.00000
    140      -1.9507      2.00000
    141      -1.9352      2.00000
    142      -1.9218      2.00000
    143      -1.8648      2.00000
    144      -1.8557      2.00000
    145      -1.8447      2.00000
    146      -1.7956      2.00000
    147      -1.7555      2.00000
    148      -1.7554      2.00000
    149      -1.7309      2.00000
    150      -1.7168      2.00000
    151      -1.6957      2.00000
    152      -1.6882      2.00000
    153      -1.6736      2.00000
    154      -1.6375      2.00000
    155      -1.6299      2.00000
    156      -1.6158      2.00000
    157      -1.6008      2.00000
    158      -1.5982      2.00000
    159      -1.5709      2.00000
    160      -1.5695      2.00000
    161      -1.5319      2.00000
    162      -1.5255      2.00000
    163      -1.5110      2.00000
    164      -1.4833      2.00000
    165      -1.4679      2.00000
    166      -1.4619      2.00000
    167      -1.4432      2.00000
    168      -1.4340      2.00000
    169      -1.4103      2.00000
    170      -1.4020      2.00000
    171      -1.3950      2.00000
    172      -1.3797      2.00000
    173      -1.3601      2.00000
    174      -1.3516      2.00000
    175      -1.3311      2.00000
    176      -1.3022      2.00000
    177      -1.2634      2.00000
    178      -1.2488      2.00000
    179      -1.2390      2.00000
    180      -1.2356      2.00000
    181      -1.2110      2.00000
    182      -1.1934      2.00000
    183      -1.1848      2.00000
    184      -1.1646      2.00000
    185      -1.1256      2.00000
    186      -1.1203      2.00000
    187      -1.0697      2.00000
    188      -1.0122      2.00000
    189      -0.9953      2.00000
    190      -0.9362      2.00000
    191      -0.3824      2.00000
    192      -0.3112      2.00000
    193      -0.1858      2.00000
    194      -0.1331      2.00000
    195       0.2243      2.00000
    196       0.2452      2.00000
    197       0.5328      2.19067
    198       0.9101      0.00000
    199       0.9748      0.00000
    200       1.1970      0.00000
    201       1.3774      0.00000
    202       1.4044      0.00000
    203       1.4928      0.00000
    204       1.9242      0.00000
    205       2.2841      0.00000
    206       2.3490      0.00000
    207       2.6577      0.00000
    208       2.8348      0.00000
    209       2.9195      0.00000
    210       3.0147      0.00000
    211       3.2155      0.00000
    212       3.6654      0.00000
    213       3.6826      0.00000
    214       3.8318      0.00000
    215       3.9946      0.00000
    216       4.1503      0.00000
    217       4.4105      0.00000
    218       4.8364      0.00000
    219       5.0491      0.00000
    220       5.1659      0.00000
    221       5.2065      0.00000
    222       5.2147      0.00000
    223       5.3334      0.00000
    224       5.4007      0.00000
    225       5.5487      0.00000
    226       5.6111      0.00000
    227       5.7214      0.00000
    228       5.7661      0.00000
    229       5.8308      0.00000
    230       6.1995      0.00000
    231       6.3563      0.00000
    232       6.4532      0.00000
    233       6.6230      0.00000
    234       6.6628      0.00000
    235       6.7026      0.00000
    236       6.7564      0.00000
    237       6.8912      0.00000
    238       6.8915      0.00000
    239       6.9485      0.00000
    240       7.0376      0.00000
    241       7.0909      0.00000
    242       7.1929      0.00000
    243       7.3728      0.00000
    244       7.4559      0.00000
    245       7.4627      0.00000
    246       7.5442      0.00000
    247       7.6701      0.00000
    248       7.7318      0.00000
    249       7.7785      0.00000
    250       7.8591      0.00000
    251       7.9630      0.00000
    252       7.9649      0.00000

 k-point     3 :       0.2500   -0.0000    0.0000
  band No.  band energies     occupation 
      1      -7.9020      2.00000
      2      -6.7962      2.00000
      3      -6.5385      2.00000
      4      -6.0602      2.00000
      5      -6.0490      2.00000
      6      -5.8675      2.00000
      7      -5.7718      2.00000
      8      -5.7573      2.00000
      9      -5.6902      2.00000
     10      -5.6516      2.00000
     11      -5.6337      2.00000
     12      -5.5411      2.00000
     13      -5.4132      2.00000
     14      -5.3875      2.00000
     15      -5.3542      2.00000
     16      -5.3068      2.00000
     17      -5.2168      2.00000
     18      -5.1092      2.00000
     19      -5.0944      2.00000
     20      -5.0907      2.00000
     21      -5.0395      2.00000
     22      -5.0030      2.00000
     23      -4.9821      2.00000
     24      -4.9407      2.00000
     25      -4.9404      2.00000
     26      -4.9196      2.00000
     27      -4.9001      2.00000
     28      -4.9001      2.00000
     29      -4.8719      2.00000
     30      -4.8526      2.00000
     31      -4.7884      2.00000
     32      -4.7213      2.00000
     33      -4.7128      2.00000
     34      -4.6948      2.00000
     35      -4.6773      2.00000
     36      -4.5851      2.00000
     37      -4.5731      2.00000
     38      -4.5351      2.00000
     39      -4.5062      2.00000
     40      -4.4835      2.00000
     41      -4.3981      2.00000
     42      -4.3661      2.00000
     43      -4.3334      2.00000
     44      -4.2902      2.00000
     45      -4.2828      2.00000
     46      -4.2608      2.00000
     47      -4.2071      2.00000
     48      -4.1342      2.00000
     49      -4.0956      2.00000
     50      -4.0601      2.00000
     51      -4.0570      2.00000
     52      -4.0248      2.00000
     53      -3.9906      2.00000
     54      -3.9848      2.00000
     55      -3.9151      2.00000
     56      -3.8513      2.00000
[...]
  0.000   0.000   0.000   2.000   0.000   0.000   0.000   0.000   0.000   0.000   0.000   0.000   0.000   0.000   0.000   0.000
  0.000   0.000   0.000   0.000   2.000   0.000   0.000   0.000   0.000   0.000   0.000   0.000   0.000   0.000   0.000   0.000
  0.000   0.000   0.000   0.000   0.000   0.000   0.000   0.000   0.000   0.000   0.000   0.000   0.000   0.000   0.000   0.000
  0.000   0.000   0.000   0.000   0.000   0.000   0.000   0.000   0.000   0.000   0.000   0.000   0.000   0.000   0.000   0.000
  0.000   0.000   0.000   0.000   0.000   0.000   0.000   0.000   0.000   0.000   0.000   0.000   0.000   0.000   0.000   0.000
  0.000   0.000   0.000   0.000   0.000   0.000   0.000   0.000   0.000   0.000   0.000   0.000   0.000   0.000   0.000   0.000
  0.000   0.000   0.000   0.000   0.000   0.000   0.000   0.000   0.000   0.000   0.000   0.000   0.000   0.000   0.000   0.000
  0.000   0.000   0.000   0.000   0.000   0.000   0.000   0.000   0.000   0.000   1.000   0.000   0.000   0.000   0.000   0.000
  0.000   0.000   0.000   0.000   0.000   0.000   0.000   0.000   0.000   0.000   0.000   0.000   0.000   0.000   0.000   0.000
  0.000   0.000   0.000   0.000   0.000   0.000   0.000   0.000   0.000   0.000   0.000   0.000   0.000   0.000   0.000   0.000
  0.000   0.000   0.000   0.000   0.000   0.000   0.000   0.000   0.000   0.000   0.000   0.000   0.000   0.000   0.000   0.000
  0.000   0.000   0.000   0.000   0.000   0.000   0.000   0.000   0.000   0.000   0.000   0.000   0.000   0.000   0.000   0.000
  0.000   0.000   0.000   0.000   0.000   0.000   0.000   0.000   0.000   0.000   0.000   0.000   0.000   0.000   0.000   0.000
  0.000   0.000   0.000   0.000   0.000   0.000   0.000   0.000   0.000   0.000   0.000   0.000   0.000   0.000   0.000   0.000
  0.000   0.000   0.000   0.000   0.000   0.000   0.000   0.000   0.000   0.000   0.000   0.000   0.000   0.000   0.000   0.000


------------------------ aborting loop because EDIFF is reached ----------------------------------------





 total charge

# of ion       s       p       d       tot
------------------------------------------
    1        0.549   0.236   8.767   9.553
    2        0.540   0.241   8.766   9.547
    3        0.540   0.241   8.766   9.547
    4        0.540   0.241   8.766   9.547
    5        0.547   0.241   8.761   9.549
    6        0.540   0.241   8.766   9.547
    7        0.540   0.241   8.766   9.547
    8        0.540   0.241   8.766   9.547
    9        0.544   0.239   8.766   9.550
   10        0.528   0.306   8.766   9.600
   11        0.520   0.307   8.780   9.607
   12        0.528   0.306   8.766   9.600
   13        0.520   0.307   8.780   9.607
   14        0.520   0.307   8.780   9.607
   15        0.516   0.307   8.774   9.597
   16        0.528   0.306   8.766   9.600
   17        0.516   0.307   8.774   9.597
   18        0.516   0.307   8.774   9.597
   19        0.517   0.296   8.768   9.581
   20        0.582   0.348   8.714   9.644
   21        0.582   0.348   8.714   9.644
   22        0.508   0.304   8.779   9.591
   23        0.582   0.348   8.714   9.644
   24        0.508   0.304   8.779   9.591
   25        0.517   0.296   8.768   9.581
   26        0.517   0.296   8.768   9.581
   27        0.508   0.304   8.779   9.591
   28        0.538   0.226   8.753   9.517
   29        0.595   0.253   8.720   9.569
   30        0.595   0.253   8.720   9.569
   31        0.595   0.253   8.720   9.569
   32        0.595   0.253   8.720   9.569
   33        0.595   0.253   8.720   9.569
   34        0.595   0.253   8.720   9.569
   35        0.537   0.227   8.756   9.520
   36        0.645   0.551   2.863   4.059
--------------------------------------------------
tot         19.689  10.293 309.327 339.309
 
    CHARGE:  cpu time    0.5943: real time    0.5944
    FORLOC:  cpu time    0.0108: real time    0.0108
    FORNL :  cpu time    2.2732: real time    2.2736
    STRESS:  cpu time    7.3070: real time    7.3087
    FORCOR:  cpu time    0.0771: real time    0.0772
    FORHAR:  cpu time    0.0214: real time    0.0216
    OFIELD:  cpu time    0.0004: real time    0.0004

  FORCE on cell =-STRESS in cart. coord.  units (eV):
  Direction    XX          YY          ZZ          XY          YZ          ZX
  --------------------------------------------------------------------------------------
  Alpha Z   996.98502   996.98502   996.98502
  Ewald  116253.45158116253.45195************    -0.00033    -0.00009    -0.00018
  Hartree124722.04340124722.04339************    -0.00000    -0.00003    -0.00005
  E(xc)   -1748.58754 -1748.58753 -1756.16564    -0.00001     0.00000     0.00000
  Local  ************************253212.29387     0.00170     0.00006     0.00012
  n-local   -69.81000   -23.31353   -17.35624    22.64625    -1.60963     1.47996
  augment  2363.62595  2363.62740  2385.00960    -0.00125     0.00005     0.00006
  Kinetic  5387.88119  5391.71844  5458.48769     3.04675     0.42688    -0.38647
  Fock        0.00000     0.00000     0.00000     0.00000     0.00000     0.00000
  -------------------------------------------------------------------------------------
  Total     -24.13368   -24.13368     2.39202    -0.00000     0.00000    -0.00000
  in kB     -25.89565   -25.89565     2.56666    -0.00000     0.00000    -0.00000
  external pressure =      -16.41 kB  Pullay stress =        0.00 kB


 VOLUME and BASIS-vectors are now :
 -----------------------------------------------------------------------------
  energy-cutoff  :      500.00
  volume of cell :     1493.16
      direct lattice vectors                 reciprocal lattice vectors
     8.813512802  0.000000000  0.000000000     0.113462137 -0.065507406  0.000000000
     4.406756909  7.632725690  0.000000000     0.000000000  0.131014796  0.000000000
     0.000000000  0.000000000 22.196203232     0.000000000  0.000000000  0.045052750

  length of vectors
     8.813512802  8.813512802 22.196203232     0.131014796  0.131014796  0.045052750


 FORCES acting on ions
    electron-ion (+dipol)            ewald-force                    non-local-force                 convergence-correction
 -----------------------------------------------------------------------------------------------
   -.197E-04 -.162E-04 0.244E+04   0.519E-04 0.433E-04 -.244E+04   -.118E-16 0.262E-17 -.703E+00   -.188E-03 -.121E-03 -.229E+00
   0.454E+00 -.314E+00 0.245E+04   -.460E+00 0.145E+00 -.244E+04   0.288E-01 0.143E+00 -.349E+00   -.210E-01 0.120E-01 -.222E+00
   -.454E+00 -.314E+00 0.245E+04   0.460E+00 0.145E+00 -.244E+04   -.288E-01 0.143E+00 -.349E+00   0.212E-01 0.139E-01 -.222E+00
   -.449E-01 0.551E+00 0.245E+04   -.104E+00 -.471E+00 -.244E+04   0.138E+00 -.465E-01 -.349E+00   -.131E-04 -.242E-01 -.222E+00
   0.739E-05 -.241E-04 0.244E+04   0.951E-04 0.174E-05 -.245E+04   0.850E-18 -.121E-17 0.197E+00   0.419E-02 0.258E-02 -.125E+00
   0.448E-01 0.551E+00 0.245E+04   0.104E+00 -.471E+00 -.244E+04   -.138E+00 -.465E-01 -.349E+00   -.144E-02 -.233E-01 -.222E+00
   -.499E+00 -.236E+00 0.245E+04   0.356E+00 0.326E+00 -.244E+04   0.109E+00 -.964E-01 -.349E+00   0.227E-01 0.114E-01 -.222E+00
   0.499E+00 -.237E+00 0.245E+04   -.356E+00 0.326E+00 -.244E+04   -.109E+00 -.964E-01 -.349E+00   -.209E-01 0.104E-01 -.222E+00
   0.198E-04 -.416E-04 0.245E+04   0.166E-03 -.200E-04 -.245E+04   0.645E-18 0.292E-18 -.375E+00   -.454E-02 -.238E-02 -.136E+00
   0.438E+01 0.253E+01 0.772E+03   -.400E+01 -.231E+01 -.772E+03   -.392E+00 -.226E+00 -.621E+00   -.220E-01 -.125E-01 -.829E-01
   0.138E-04 -.180E+00 0.774E+03   0.148E-03 0.177E+00 -.774E+03   -.291E-08 -.438E-01 -.598E-01   0.373E-02 -.144E-01 -.648E-01
   -.438E+01 0.253E+01 0.772E+03   0.400E+01 -.231E+01 -.772E+03   0.392E+00 -.226E+00 -.621E+00   0.209E-01 -.120E-01 -.845E-01
   -.156E+00 0.899E-01 0.774E+03   0.153E+00 -.886E-01 -.774E+03   -.379E-01 0.219E-01 -.598E-01   -.105E-01 0.108E-01 -.646E-01
   0.156E+00 0.899E-01 0.774E+03   -.154E+00 -.886E-01 -.774E+03   0.379E-01 0.219E-01 -.598E-01   0.175E-01 0.100E-01 -.664E-01
   0.321E-04 0.532E+01 0.778E+03   0.235E-03 -.546E+01 -.777E+03   0.212E-09 0.318E-02 -.521E+00   -.166E-02 0.560E-01 -.907E-01
   -.209E-04 -.506E+01 0.772E+03   0.162E-03 0.462E+01 -.772E+03   0.301E-07 0.453E+00 -.621E+00   -.240E-03 0.241E-01 -.840E-01
   0.460E+01 -.266E+01 0.778E+03   -.473E+01 0.273E+01 -.777E+03   0.275E-02 -.159E-02 -.521E+00   0.480E-01 -.294E-01 -.913E-01
   -.460E+01 -.266E+01 0.778E+03   0.473E+01 0.273E+01 -.777E+03   -.275E-02 -.159E-02 -.521E+00   -.475E-01 -.279E-01 -.905E-01
   -.429E-04 -.238E+01 -.918E+03   0.563E-04 0.252E+01 0.917E+03   -.416E-08 -.624E-01 0.486E+00   0.511E-02 -.555E-01 0.183E+00
   -.170E+02 -.982E+01 -.909E+03   0.180E+02 0.104E+02 0.910E+03   -.102E+01 -.590E+00 -.142E+01   -.157E-01 -.844E-02 0.107E+00
   0.170E+02 -.982E+01 -.909E+03   -.180E+02 0.104E+02 0.910E+03   0.102E+01 -.590E+00 -.142E+01   0.829E-02 -.871E-02 0.107E+00
   -.192E+02 0.111E+02 -.900E+03   0.188E+02 -.109E+02 0.900E+03   0.400E+00 -.231E+00 0.570E+00   -.169E-01 0.873E-02 0.849E-01
   -.915E-05 0.196E+02 -.909E+03   0.137E-03 -.208E+02 0.910E+03   0.785E-07 0.118E+01 -.142E+01   -.381E-02 0.121E-01 0.107E+00
   0.192E+02 0.111E+02 -.900E+03   -.188E+02 -.109E+02 0.900E+03   -.400E+00 -.231E+00 0.570E+00   0.183E-01 0.986E-02 0.844E-01
   0.206E+01 0.119E+01 -.918E+03   -.218E+01 -.126E+01 0.917E+03   0.541E-01 0.312E-01 0.486E+00   0.531E-01 0.299E-01 0.183E+00
   -.206E+01 0.119E+01 -.918E+03   0.218E+01 -.126E+01 0.917E+03   -.541E-01 0.312E-01 0.486E+00   -.525E-01 0.319E-01 0.184E+00
   0.897E-05 -.221E+02 -.900E+03   0.199E-03 0.217E+02 0.900E+03   0.308E-07 0.462E+00 0.570E+00   -.283E-03 -.193E-01 0.849E-01
   -.961E-05 -.101E-04 -.245E+04   0.272E-04 0.296E-04 0.245E+04   -.802E-18 -.521E-18 0.508E+00   0.157E-02 0.687E-03 0.101E+00
   -.577E+01 -.204E+02 -.247E+04   0.725E+01 0.226E+02 0.247E+04   -.143E+01 -.215E+01 -.586E+00   -.488E-01 0.254E-02 0.963E-01
   0.577E+01 -.204E+02 -.247E+04   -.725E+01 0.226E+02 0.247E+04   0.143E+01 -.215E+01 -.586E+00   0.424E-01 0.335E-02 0.967E-01
   -.206E+02 0.521E+01 -.247E+04   0.232E+02 -.501E+01 0.247E+04   -.258E+01 -.161E+00 -.586E+00   -.224E-01 -.434E-01 0.958E-01
   0.206E+02 0.521E+01 -.247E+04   -.232E+02 -.501E+01 0.247E+04   0.258E+01 -.161E+00 -.586E+00   0.160E-01 -.424E-01 0.970E-01
   -.148E+02 0.152E+02 -.247E+04   0.159E+02 -.176E+02 0.247E+04   -.115E+01 0.231E+01 -.586E+00   0.242E-01 0.349E-01 0.964E-01
   0.148E+02 0.152E+02 -.247E+04   -.159E+02 -.176E+02 0.247E+04   0.115E+01 0.231E+01 -.586E+00   -.290E-01 0.350E-01 0.970E-01
   0.337E-04 -.340E-04 -.245E+04   0.143E-03 -.455E-04 0.245E+04   0.138E-17 -.704E-17 0.635E+00   -.296E-02 -.170E-02 0.961E-01
   -.248E-04 0.234E-05 -.106E+04   0.528E-04 0.493E-05 0.106E+04   0.897E-18 -.948E-18 0.256E+01   0.437E-03 0.328E-03 0.494E-01
 -----------------------------------------------------------------------------------------------
   -.828E-03 -.778E-03 0.826E+01   -.433E-13 0.225E-12 -.796E-11   -.664E-15 0.880E-15 -.747E+01   -.148E-01 -.523E-02 -.589E+00
 
 
 POSITION                                       TOTAL-FORCE (eV/Angst)
 -----------------------------------------------------------------------------------
      0.00000      0.00000      5.28038         0.000000     -0.000000     -0.154641
      2.93784      0.00000      5.28038         0.002910     -0.012949     -0.054936
      5.87568      0.00000      5.28038        -0.002910     -0.012949     -0.054936
      1.46892      2.54424      5.28038        -0.009759      0.008995     -0.054936
      4.40676      2.54424      5.28038         0.000000     -0.000000     -0.067538
      7.34459      2.54424      5.28038         0.009759      0.008995     -0.054936
      2.93784      5.08848      5.28038        -0.012669      0.003954     -0.054936
      5.87568      5.08848      5.28038         0.012669      0.003954     -0.054936
      8.81351      5.08848      5.28038         0.000000     -0.000000     -0.075761
      1.46892      0.84808      7.67911        -0.031132     -0.017974      0.120805
      4.40676      0.84808      7.67911        -0.000000     -0.062707     -0.023463
      7.34459      0.84808      7.67911         0.031132     -0.017974      0.120805
      2.93784      3.39232      7.67911        -0.054306      0.031354     -0.023463
      5.87568      3.39232      7.67911         0.054306      0.031354     -0.023463
      8.81351      3.39232      7.67911        -0.000000     -0.083586      0.114895
      4.40676      5.93656      7.67911         0.000000      0.035948      0.120805
      7.34459      5.93656      7.67911        -0.072387      0.041793      0.114895
     10.28243      5.93656      7.67911         0.072387      0.041793      0.114895
      8.81351      1.70341     10.09804         0.000000      0.013348     -0.006857
      2.93277      1.69323     10.04724        -0.002456     -0.001418     -0.011295
      5.88075      1.69323     10.04724         0.002456     -0.001418     -0.011295
     10.26617      4.24979     10.06844         0.007289     -0.004208     -0.001508
      4.40676      4.24626     10.04724         0.000000      0.002836     -0.011295
      7.36086      4.24979     10.06844        -0.007289     -0.004208     -0.001508
     11.74508      6.78102     10.09804        -0.011560     -0.006674     -0.006857
      5.88195      6.78102     10.09804         0.011560     -0.006674     -0.006857
      8.81351      6.76586     10.06844         0.000000      0.008417     -0.001508
      0.00000      0.00000     12.50054         0.000000     -0.000000     -0.004985
      2.99863      0.09131     12.57640         0.006456      0.007398      0.008040
      5.81488      0.09131     12.57640        -0.006456      0.007398      0.008040
      1.57839      2.55123     12.57640         0.009635      0.001892      0.008040
      7.23512      2.55123     12.57640        -0.009635      0.001892      0.008040
      2.98652      4.99018     12.57640         0.003179     -0.009290      0.008040
      5.82700      4.99018     12.57640        -0.003179     -0.009290      0.008040
      8.81351      5.08848     12.50707         0.000000     -0.000000      0.017889
      4.40676      2.54424     12.20058         0.000000     -0.000000     -0.011313
 -----------------------------------------------------------------------------------
    total drift:                               -0.015655     -0.006008      0.202842


--------------------------------------------------------------------------------------------------------



  FREE ENERGIE OF THE ION-ELECTRON SYSTEM (eV)
  ---------------------------------------------------
  free  energy   TOTEN  =      -117.68722141 eV

  energy  without entropy=     -117.68722141  energy(sigma->0) =     -117.68722141
 


--------------------------------------------------------------------------------------------------------


    POTLOK:  cpu time    0.0697: real time    0.0698


--------------------------------------------------------------------------------------------------------


 stress matrix after NEB project (eV)
    -24.13368     -0.00000     -0.00000
     -0.00000    -24.13368      0.00000
     -0.00000      0.00000      2.39202
  FORCES: max atom, RMS     0.017889    0.008726
  FORCE total and by dimension    0.052354    0.017889
  Stress total and by dimension   34.213898   24.133681
     LOOP+:  cpu time  109.5861: real time  109.8528
 -----------------------------------------------------------------------------
|                                                                             |
|           W    W    AA    RRRRR   N    N  II  N    N   GGGG   !!!           |
|           W    W   A  A   R    R  NN   N  II  NN   N  G    G  !!!           |
|           W    W  A    A  R    R  N N  N  II  N N  N  G       !!!           |
|           W WW W  AAAAAA  RRRRR   N  N N  II  N  N N  G  GGG   !            |
|           WW  WW  A    A  R   R   N   NN  II  N   NN  G    G                |
|           W    W  A    A  R    R  N    N  II  N    N   GGGG   !!!           |
|                                                                             |
|     Tetrahedron method does not include variations of the Fermi             |
|     occupations, so forces and stress will be inaccurate. We suggest        |
|     using a different smearing scheme ISMEAR = 1 or 2 for metals in         |
|     relaxations.                                                            |
|                                                                             |
 -----------------------------------------------------------------------------

    4ORBIT:  cpu time    0.0000: real time    0.0000



 total charge

# of ion       s       p       d       tot
------------------------------------------
    1        0.549   0.236   8.767   9.553
    2        0.540   0.241   8.766   9.547
    3        0.540   0.241   8.766   9.547
    4        0.540   0.241   8.766   9.547
    5        0.547   0.241   8.761   9.549
    6        0.540   0.241   8.766   9.547
    7        0.540   0.241   8.766   9.547
    8        0.540   0.241   8.766   9.547
    9        0.544   0.239   8.766   9.550
   10        0.528   0.306   8.766   9.600
   11        0.520   0.307   8.780   9.607
   12        0.528   0.306   8.766   9.600
   13        0.520   0.307   8.780   9.607
   14        0.520   0.307   8.780   9.607
   15        0.516   0.307   8.774   9.597
   16        0.528   0.306   8.766   9.600
   17        0.516   0.307   8.774   9.597
   18        0.516   0.307   8.774   9.597
   19        0.517   0.296   8.768   9.581
   20        0.582   0.348   8.714   9.644
   21        0.582   0.348   8.714   9.644
   22        0.508   0.304   8.779   9.591
   23        0.582   0.348   8.714   9.644
   24        0.508   0.304   8.779   9.591
   25        0.517   0.296   8.768   9.581
   26        0.517   0.296   8.768   9.581
   27        0.508   0.304   8.779   9.591
   28        0.538   0.226   8.753   9.517
   29        0.595   0.253   8.720   9.569
   30        0.595   0.253   8.720   9.569
   31        0.595   0.253   8.720   9.569
   32        0.595   0.253   8.720   9.569
   33        0.595   0.253   8.720   9.569
   34        0.595   0.253   8.720   9.569
   35        0.537   0.227   8.756   9.520
   36        0.645   0.551   2.863   4.059
--------------------------------------------------
tot         19.689  10.293 309.327 339.309
 
 BZINTS: Fermi energy:    0.749665;  390.000000 electrons
         Band energy:-0.118032E+04;  BLOECHL correction:   -0.032251

 total amount of memory used by VASP MPI-rank0   121909. kBytes
=======================================================================

   base      :      30000. kBytes
   nonlr-proj:      14321. kBytes
   fftplans  :       4330. kBytes
   grid      :      17098. kBytes
   one-center:        559. kBytes
   wavefun   :      55601. kBytes
 
  
  
 General timing and accounting informations for this job:
 ========================================================
  
                  Total CPU time used (sec):      117.954
                            User time (sec):      114.330
                          System time (sec):        3.625
                         Elapsed time (sec):      118.820
  
                   Maximum memory used (kb):      376212.
                   Average memory used (kb):          N/A
  
                          Minor page faults:        75931
                          Major page faults:            0
                 Voluntary context switches:         6529
