PROCAR new format
# of k-points:   10         # of bands:  252         # of ions:   36

 k-point     1 :    0.00000000 0.00000000 0.00000000     weight = 0.01562500

band     1 # energy   -8.10340453 # occ.  2.00000000
 
ion      s      p      d    tot
    1  0.006  0.001  0.000  0.007
    2  0.006  0.000  0.000  0.006
    3  0.006  0.000  0.000  0.006
    4  0.006  0.000  0.000  0.006
    5  0.006  0.000  0.000  0.006
    6  0.006  0.000  0.000  0.006
    7  0.006  0.000  0.000  0.006
    8  0.006  0.000  0.000  0.006
    9  0.006  0.000  0.000  0.006
   10  0.025  0.000  0.000  0.025
   11  0.026  0.000  0.000  0.026
   12  0.025  0.000  0.000  0.025
   13  0.026  0.000  0.000  0.026
   14  0.026  0.000  0.000  0.026
   15  0.024  0.000  0.000  0.024
   16  0.025  0.000  0.000  0.025
   17  0.024  0.000  0.000  0.024
   18  0.024  0.000  0.000  0.024
   19  0.022  0.000  0.000  0.023
   20  0.030  0.000  0.000  0.031
   21  0.030  0.000  0.000  0.031
   22  0.024  0.000  0.000  0.024
   23  0.030  0.000  0.000  0.031
   24  0.024  0.000  0.000  0.024
   25  0.022  0.000  0.000  0.023
   26  0.022  0.000  0.000  0.023
   27  0.024  0.000  0.000  0.024
   28  0.005  0.000  0.000  0.005
   29  0.006  0.000  0.000  0.006
   30  0.006  0.000  0.000  0.006
   31  0.006  0.000  0.000  0.006
   32  0.006  0.000  0.000  0.006
   33  0.006  0.000  0.000  0.006
   34  0.006  0.000  0.000  0.006
   35  0.005  0.000  0.000  0.005
   36  0.017  0.002  0.000  0.018
tot    0.570  0.012  0.004  0.586
 
band     2 # energy   -6.98407652 # occ.  2.00000000
 
ion      s      p      d    tot
    1  0.016  0.000  0.001  0.017
    2  0.016  0.000  0.001  0.017
    3  0.016  0.000  0.001  0.017
    4  0.016  0.000  0.001  0.017
    5  0.015  0.000  0.001  0.017
    6  0.016  0.000  0.001  0.017
    7  0.016  0.000  0.001  0.017
    8  0.016  0.000  0.001  0.017
    9  0.016  0.001  0.001  0.018
   10  0.012  0.001  0.002  0.016
   11  0.011  0.001  0.002  0.015
   12  0.012  0.001  0.002  0.016
   13  0.011  0.001  0.002  0.015
   14  0.011  0.001  0.002  0.015
   15  0.013  0.001  0.002  0.016
   16  0.012  0.001  0.002  0.016
   17  0.013  0.001  0.002  0.016
   18  0.013  0.001  0.002  0.016
   19  0.008  0.001  0.003  0.012
   20  0.015  0.002  0.002  0.019
   21  0.015  0.002  0.002  0.019
   22  0.008  0.001  0.002  0.012
   23  0.015  0.002  0.002  0.019
   24  0.008  0.001  0.002  0.012
   25  0.008  0.001  0.003  0.012
   26  0.008  0.001  0.003  0.012
   27  0.008  0.001  0.002  0.012
   28  0.013  0.000  0.001  0.014
   29  0.017  0.001  0.002  0.019
   30  0.017  0.001  0.002  0.019
   31  0.017  0.001  0.002  0.019
   32  0.017  0.001  0.002  0.019
   33  0.017  0.001  0.002  0.019
   34  0.017  0.001  0.002  0.019
   35  0.013  0.000  0.001  0.014
   36  0.041  0.001  0.001  0.043
tot    0.514  0.033  0.064  0.611
 
band     3 # energy   -6.06241225 # occ.  2.00000000
 
ion      s      p      d    tot
    1  0.010  0.000  0.001  0.011
    2  0.005  0.000  0.003  0.009
    3  0.005  0.000  0.003  0.008
    4  0.005  0.000  0.003  0.009
    5  0.008  0.000  0.003  0.010
    6  0.005  0.000  0.003  0.008
    7  0.005  0.000  0.003  0.008
    8  0.005  0.000  0.003  0.008
    9  0.001  0.000  0.004  0.006
   10  0.000  0.001  0.004  0.005
   11  0.000  0.001  0.002  0.003
   12  0.000  0.001  0.004  0.005
   13  0.000  0.001  0.002  0.003
   14  0.000  0.001  0.001  0.003
   15  0.005  0.001  0.001  0.007
   16  0.000  0.001  0.004  0.005
   17  0.005  0.001  0.001  0.007
   18  0.005  0.001  0.001  0.007
   19  0.013  0.000  0.013  0.027
   20  0.000  0.001  0.033  0.034
   21  0.000  0.001  0.033  0.034
   22  0.017  0.001  0.011  0.029
   23  0.000  0.001  0.033  0.034
   24  0.017  0.001  0.011  0.029
   25  0.013  0.000  0.013  0.027
   26  0.013  0.000  0.013  0.027
   27  0.017  0.001  0.011  0.029
   28  0.006  0.000  0.014  0.021
   29  0.018  0.001  0.019  0.038
   30  0.018  0.001  0.019  0.038
   31  0.018  0.001  0.019  0.038
   32  0.018  0.001  0.019  0.038
   33  0.018  0.001  0.019  0.038
   34  0.018  0.001  0.019  0.038
   35  0.007  0.000  0.013  0.020
   36  0.061  0.000  0.014  0.075
tot    0.339  0.022  0.371  0.732
 
band     4 # energy   -6.00125071 # occ.  2.00000000
 
ion      s      p      d    tot
    1  0.002  0.001  0.004  0.006
    2  0.001  0.000  0.004  0.005
    3  0.001  0.000  0.004  0.005
    4  0.001  0.000  0.004  0.005
    5  0.000  0.000  0.000  0.000
    6  0.001  0.000  0.004  0.005
    7  0.001  0.000  0.004  0.005
    8  0.001  0.000  0.004  0.005
    9  0.015  0.001  0.000  0.016
   10  0.009  0.000  0.020  0.029
   11  0.005  0.002  0.009  0.016
   12  0.009  0.000  0.020  0.029
   13  0.005  0.002  0.009  0.016
   14  0.005  0.002  0.009  0.016
   15  0.017  0.001  0.005  0.024
   16  0.009  0.000  0.020  0.029
   17  0.017  0.001  0.005  0.024
   18  0.017  0.001  0.005  0.024
   19  0.000  0.001  0.023  0.024
   20  0.029  0.001  0.031  0.061
   21  0.029  0.001  0.031  0.061
   22  0.015  0.002  0.004  0.021
   23  0.029  0.001  0.031  0.061
   24  0.015  0.002  0.004  0.021
   25  0.000  0.001  0.023  0.024
   26  0.000  0.001  0.023  0.024
   27  0.015  0.002  0.004  0.021
   28  0.007  0.000  0.001  0.008
   29  0.005  0.000  0.007  0.012
   30  0.005  0.000  0.007  0.012
   31  0.005  0.000  0.007  0.012
   32  0.005  0.000  0.007  0.012
   33  0.005  0.000  0.007  0.012
   34  0.005  0.000  0.007  0.012
   35  0.022  0.001  0.001  0.024
   36  0.007  0.009  0.012  0.028
tot    0.309  0.042  0.360  0.711
 
band     5 # energy   -5.98055835 # occ.  2.00000000
 
ion      s      p      d    tot
    1  0.000  0.001  0.008  0.008
    2  0.001  0.000  0.003  0.004
    3  0.003  0.001  0.002  0.006
    4  0.005  0.001  0.003  0.009
    5  0.000  0.001  0.005  0.006
    6  0.003  0.001  0.002  0.005
    7  0.006  0.001  0.003  0.009
    8  0.000  0.000  0.003  0.003
    9  0.000  0.000  0.001  0.001
   10  0.008  0.000  0.026  0.034
   11  0.013  0.003  0.019  0.035
   12  0.037  0.002  0.006  0.046
   13  0.044  0.001  0.011  0.056
   14  0.009  0.003  0.020  0.032
   15  0.000  0.002  0.007  0.009
   16  0.011  0.001  0.023  0.036
   17  0.000  0.000  0.010  0.011
   18  0.000  0.002  0.006  0.009
   19  0.004  0.003  0.006  0.013
   20  0.014  0.002  0.035  0.051
   21  0.070  0.001  0.014  0.085
   22  0.013  0.002  0.005  0.020
   23  0.021  0.002  0.032  0.055
   24  0.003  0.001  0.020  0.024
   25  0.002  0.003  0.005  0.011
   26  0.012  0.000  0.013  0.025
   27  0.004  0.001  0.018  0.023
   28  0.000  0.000  0.001  0.002
   29  0.002  0.000  0.003  0.005
   30  0.007  0.001  0.005  0.013
   31  0.001  0.000  0.003  0.004
   32  0.007  0.001  0.005  0.013
   33  0.002  0.000  0.003  0.005
   34  0.002  0.001  0.003  0.006
   35  0.000  0.000  0.004  0.004
   36  0.000  0.006  0.013  0.019
tot    0.305  0.046  0.348  0.699
 
band     6 # energy   -5.98054535 # occ.  2.00000000
 
ion      s      p      d    tot
    1  0.000  0.001  0.008  0.008
    2  0.005  0.001  0.003  0.009
    3  0.002  0.001  0.003  0.006
    4  0.001  0.000  0.002  0.003
    5  0.000  0.001  0.005  0.006
    6  0.003  0.001  0.003  0.007
    7  0.000  0.000  0.002  0.003
    8  0.006  0.001  0.003  0.009
    9  0.000  0.000  0.001  0.001
   10  0.030  0.002  0.011  0.043
   11  0.031  0.002  0.015  0.047
   12  0.000  0.000  0.031  0.031
   13  0.000  0.004  0.022  0.026
   14  0.035  0.001  0.014  0.050
   15  0.000  0.001  0.008  0.010
   16  0.026  0.002  0.013  0.041
   17  0.000  0.003  0.005  0.008
   18  0.000  0.001  0.009  0.010
   19  0.009  0.001  0.010  0.020
   20  0.056  0.001  0.019  0.077
   21  0.000  0.002  0.040  0.042
   22  0.000  0.001  0.024  0.025
   23  0.049  0.001  0.022  0.072
   24  0.011  0.001  0.009  0.021
   25  0.010  0.001  0.011  0.022
   26  0.000  0.004  0.003  0.007
   27  0.009  0.001  0.011  0.021
   28  0.000  0.000  0.001  0.002
   29  0.005  0.001  0.004  0.011
   30  0.000  0.000  0.002  0.003
   31  0.006  0.001  0.005  0.012
   32  0.000  0.000  0.002  0.003
   33  0.005  0.001  0.004  0.011
   34  0.004  0.001  0.004  0.010
   35  0.000  0.000  0.004  0.004
   36  0.000  0.006  0.013  0.019
tot    0.305  0.046  0.348  0.699
 
band     7 # energy   -5.93693280 # occ.  2.00000000
 
ion      s      p      d    tot
    1  0.023  0.000  0.017  0.040
    2  0.016  0.000  0.018  0.034
    3  0.016  0.000  0.018  0.034
    4  0.016  0.000  0.018  0.034
    5  0.011  0.000  0.019  0.030
    6  0.016  0.000  0.018  0.034
    7  0.016  0.000  0.018  0.034
    8  0.016  0.000  0.018  0.034
    9  0.017  0.000  0.015  0.033
   10  0.003  0.000  0.030  0.033
   11  0.014  0.000  0.023  0.037
   12  0.003  0.000  0.030  0.033
   13  0.014  0.000  0.023  0.037
   14  0.014  0.000  0.023  0.037
   15  0.007  0.000  0.025  0.033
   16  0.003  0.000  0.030  0.033
   17  0.007  0.000  0.025  0.033
   18  0.007  0.000  0.025  0.033
   19  0.005  0.000  0.006  0.011
   20  0.001  0.000  0.017  0.018
   21  0.001  0.000  0.017  0.018
   22  0.000  0.000  0.009  0.009
   23  0.001  0.000  0.017  0.018
   24  0.000  0.000  0.009  0.009
   25  0.005  0.000  0.006  0.011
   26  0.005  0.000  0.006  0.011
   27  0.000  0.000  0.009  0.009
   28  0.000  0.000  0.001  0.001
   29  0.000  0.000  0.001  0.001
   30  0.000  0.000  0.001  0.001
   31  0.000  0.000  0.001  0.001
   32  0.000  0.000  0.001  0.001
   33  0.000  0.000  0.001  0.001
   34  0.000  0.000  0.001  0.001
   35  0.001  0.000  0.000  0.001
   36  0.000  0.000  0.003  0.003
tot    0.244  0.007  0.494  0.745
 
band     8 # energy   -5.88875514 # occ.  2.00000000
 
ion      s      p      d    tot
    1  0.005  0.001  0.002  0.008
    2  0.001  0.001  0.006  0.008
    3  0.001  0.001  0.006  0.008
    4  0.001  0.001  0.006  0.008
    5  0.020  0.002  0.000  0.022
    6  0.001  0.001  0.006  0.008
    7  0.001  0.001  0.006  0.008
    8  0.001  0.001  0.006  0.008
    9  0.000  0.000  0.003  0.003
   10  0.025  0.003  0.001  0.029
   11  0.019  0.001  0.023  0.042
   12  0.025  0.003  0.001  0.029
   13  0.019  0.001  0.023  0.042
   14  0.019  0.001  0.023  0.042
   15  0.001  0.001  0.023  0.025
   16  0.025  0.003  0.001  0.029
   17  0.001  0.001  0.023  0.025
   18  0.001  0.001  0.023  0.025
   19  0.020  0.002  0.008  0.030
   20  0.008  0.003  0.018  0.028
   21  0.008  0.003  0.018  0.028
   22  0.008  0.000  0.025  0.034
   23  0.008  0.003  0.018  0.028
   24  0.008  0.000  0.025  0.034
   25  0.020  0.002  0.008  0.030
   26  0.020  0.002  0.008  0.030
   27  0.008  0.000  0.025  0.034
   28  0.015  0.001  0.000  0.016
   29  0.000  0.000  0.005  0.005
   30  0.000  0.000  0.005  0.005
   31  0.000  0.000  0.005  0.005
   32  0.000  0.000  0.005  0.005
   33  0.000  0.000  0.005  0.005
   34  0.000  0.000  0.005  0.005
   35  0.002  0.001  0.004  0.006
   36  0.000  0.000  0.000  0.000
tot    0.291  0.038  0.368  0.697
 
band     9 # energy   -5.86645562 # occ.  2.00000000
 
ion      s      p      d    tot
    1  0.000  0.001  0.003  0.004
    2  0.007  0.001  0.004  0.012
    3  0.008  0.001  0.004  0.014
    4  0.001  0.001  0.004  0.006
    5  0.000  0.000  0.005  0.005
    6  0.000  0.000  0.003  0.004
    7  0.006  0.001  0.003  0.011
    8  0.003  0.001  0.003  0.007
    9  0.000  0.001  0.011  0.012
   10  0.019  0.001  0.015  0.035
   11  0.000  0.001  0.028  0.029
   12  0.012  0.002  0.011  0.025
   13  0.007  0.001  0.016  0.024
   14  0.011  0.001  0.009  0.021
   15  0.002  0.001  0.039  0.042
   16  0.001  0.005  0.003  0.008
   17  0.036  0.001  0.021  0.058
   18  0.056  0.001  0.010  0.068
   19  0.001  0.000  0.035  0.036
   20  0.000  0.001  0.016  0.017
   21  0.000  0.001  0.014  0.015
   22  0.022  0.002  0.014  0.037
   23  0.000  0.002  0.011  0.013
   24  0.033  0.001  0.011  0.046
   25  0.033  0.002  0.006  0.041
   26  0.021  0.001  0.017  0.039
   27  0.001  0.004  0.017  0.022
   28  0.000  0.000  0.006  0.007
   29  0.000  0.000  0.002  0.002
   30  0.001  0.000  0.002  0.003
   31  0.002  0.000  0.002  0.004
   32  0.003  0.001  0.003  0.006
   33  0.004  0.001  0.002  0.006
   34  0.005  0.001  0.002  0.008
   35  0.000  0.001  0.004  0.005
   36  0.000  0.000  0.001  0.001
tot    0.295  0.041  0.357  0.693
 
band    10 # energy   -5.86643250 # occ.  2.00000000
 
ion      s      p      d    tot
    1  0.000  0.001  0.003  0.004
    2  0.002  0.001  0.003  0.006
    3  0.000  0.000  0.003  0.004
    4  0.007  0.001  0.004  0.012
    5  0.000  0.000  0.005  0.005
    6  0.009  0.001  0.004  0.014
    7  0.002  0.001  0.004  0.007
    8  0.005  0.001  0.004  0.011
    9  0.000  0.001  0.011  0.012
   10  0.002  0.004  0.004  0.011
   11  0.011  0.001  0.007  0.020
   12  0.009  0.003  0.009  0.020
   13  0.005  0.001  0.019  0.025
   14  0.001  0.001  0.026  0.028
   15  0.061  0.001  0.007  0.070
   16  0.020  0.000  0.016  0.037
   17  0.027  0.001  0.026  0.054
   18  0.007  0.001  0.037  0.045
   19  0.035  0.002  0.004  0.041
   20  0.000  0.002  0.011  0.013
   21  0.000  0.002  0.013  0.015
   22  0.016  0.002  0.015  0.033
   23  0.000  0.001  0.016  0.017
   24  0.004  0.003  0.017  0.024
   25  0.004  0.000  0.032  0.036
   26  0.016  0.001  0.022  0.038
   27  0.036  0.001  0.011  0.048
   28  0.000  0.000  0.006  0.007
   29  0.005  0.001  0.003  0.008
   30  0.004  0.001  0.003  0.007
   31  0.003  0.001  0.002  0.005
   32  0.001  0.000  0.002  0.003
   33  0.001  0.000  0.002  0.003
   34  0.000  0.000  0.002  0.002
   35  0.000  0.001  0.004  0.005
   36  0.000  0.000  0.001  0.001
tot    0.295  0.041  0.357  0.693
 
band    11 # energy   -5.49725479 # occ.  2.00000000
 
ion      s      p      d    tot
    1  0.000  0.001  0.004  0.004
    2  0.002  0.001  0.005  0.007
    3  0.008  0.001  0.004  0.014
    4  0.000  0.000  0.004  0.005
    5  0.000  0.001  0.009  0.010
    6  0.003  0.000  0.003  0.007
    7  0.009  0.001  0.004  0.014
    8  0.005  0.001  0.003  0.009
    9  0.000  0.000  0.007  0.007
   10  0.000  0.001  0.048  0.049
   11  0.020  0.001  0.015  0.036
   12  0.006  0.001  0.023  0.030
   13  0.015  0.001  0.023  0.038
   14  0.000  0.000  0.044  0.044
   15  0.002  0.000  0.019  0.021
   16  0.008  0.001  0.013  0.023
   17  0.001  0.001  0.017  0.019
   18  0.000  0.001  0.011  0.012
   19  0.003  0.000  0.018  0.022
   20  0.000  0.000  0.093  0.094
   21  0.011  0.001  0.040  0.052
   22  0.003  0.001  0.020  0.024
   23  0.015  0.001  0.020  0.036
   24  0.000  0.001  0.029  0.030
   25  0.000  0.001  0.010  0.011
   26  0.002  0.000  0.016  0.019
   27  0.004  0.001  0.017  0.023
   28  0.000  0.000  0.009  0.009
   29  0.006  0.001  0.007  0.014
   30  0.010  0.001  0.007  0.018
   31  0.004  0.001  0.006  0.011
   32  0.000  0.000  0.004  0.004
   33  0.008  0.001  0.006  0.015
   34  0.001  0.000  0.004  0.006
   35  0.000  0.000  0.002  0.003
   36  0.000  0.006  0.012  0.018
tot    0.149  0.032  0.575  0.757
 
band    12 # energy   -5.49725063 # occ.  2.00000000
 
ion      s      p      d    tot
    1  0.000  0.001  0.004  0.004
    2  0.007  0.001  0.003  0.011
    3  0.001  0.000  0.004  0.005
    4  0.009  0.001  0.004  0.013
    5  0.000  0.001  0.009  0.010
    6  0.006  0.001  0.004  0.012
    7  0.000  0.000  0.004  0.004
    8  0.004  0.001  0.005  0.009
    9  0.000  0.000  0.007  0.007
   10  0.009  0.001  0.008  0.019
   11  0.003  0.000  0.040  0.043
   12  0.004  0.001  0.033  0.038
   13  0.009  0.000  0.032  0.041
   14  0.023  0.001  0.011  0.035
   15  0.000  0.001  0.012  0.014
   16  0.001  0.001  0.043  0.045
   17  0.001  0.001  0.014  0.016
   18  0.002  0.000  0.020  0.022
   19  0.001  0.001  0.011  0.012
   20  0.018  0.001  0.009  0.028
   21  0.007  0.001  0.062  0.069
   22  0.002  0.001  0.024  0.027
   23  0.003  0.000  0.082  0.085
   24  0.005  0.002  0.015  0.021
   25  0.004  0.000  0.020  0.023
   26  0.001  0.000  0.013  0.015
   27  0.001  0.001  0.027  0.029
   28  0.000  0.000  0.009  0.009
   29  0.003  0.001  0.004  0.008
   30  0.000  0.000  0.005  0.005
   31  0.006  0.001  0.005  0.012
   32  0.010  0.001  0.007  0.018
   33  0.002  0.000  0.005  0.007
   34  0.009  0.001  0.007  0.017
   35  0.000  0.000  0.002  0.003
   36  0.000  0.006  0.012  0.018
tot    0.149  0.032  0.575  0.757
 
band    13 # energy   -5.48965260 # occ.  2.00000000
 
ion      s      p      d    tot
    1  0.009  0.001  0.000  0.010
    2  0.000  0.001  0.005  0.006
    3  0.000  0.001  0.005  0.006
    4  0.000  0.001  0.005  0.006
    5  0.009  0.001  0.001  0.012
    6  0.000  0.001  0.005  0.006
    7  0.000  0.001  0.005  0.006
    8  0.000  0.001  0.005  0.006
    9  0.000  0.000  0.001  0.001
   10  0.001  0.001  0.018  0.020
   11  0.011  0.002  0.007  0.020
   12  0.001  0.001  0.018  0.020
   13  0.011  0.002  0.007  0.020
   14  0.011  0.002  0.007  0.020
   15  0.004  0.000  0.032  0.037
   16  0.001  0.001  0.019  0.021
   17  0.004  0.000  0.032  0.037
   18  0.004  0.000  0.032  0.037
   19  0.012  0.002  0.004  0.018
   20  0.002  0.001  0.041  0.044
   21  0.002  0.001  0.041  0.044
   22  0.005  0.000  0.037  0.042
   23  0.002  0.002  0.041  0.044
   24  0.005  0.000  0.037  0.042
   25  0.012  0.002  0.004  0.018
   26  0.012  0.002  0.004  0.018
   27  0.005  0.000  0.037  0.042
   28  0.022  0.002  0.000  0.024
   29  0.000  0.001  0.014  0.016
   30  0.000  0.001  0.014  0.016
   31  0.000  0.001  0.014  0.016
   32  0.000  0.001  0.014  0.016
   33  0.000  0.001  0.014  0.016
   34  0.000  0.001  0.014  0.016
   35  0.001  0.000  0.003  0.004
   36  0.028  0.004  0.000  0.031
tot    0.175  0.036  0.544  0.755
 
band    14 # energy   -5.46285207 # occ.  2.00000000
 
ion      s      p      d    tot
    1  0.005  0.001  0.003  0.009
    2  0.000  0.001  0.009  0.010
    3  0.000  0.001  0.009  0.010
    4  0.000  0.001  0.009  0.010
    5  0.007  0.000  0.001  0.008
    6  0.000  0.001  0.009  0.010
    7  0.000  0.001  0.009  0.010
    8  0.000  0.001  0.009  0.010
    9  0.022  0.002  0.001  0.025
   10  0.009  0.001  0.035  0.045
   11  0.000  0.000  0.041  0.042
   12  0.009  0.001  0.035  0.045
   13  0.000  0.000  0.041  0.042
   14  0.000  0.000  0.041  0.042
   15  0.014  0.002  0.006  0.023
   16  0.009  0.001  0.035  0.045
   17  0.014  0.002  0.006  0.023
   18  0.014  0.002  0.006  0.023
   19  0.000  0.000  0.026  0.027
   20  0.004  0.002  0.040  0.046
   21  0.004  0.002  0.040  0.046
   22  0.007  0.001  0.011  0.019
   23  0.004  0.002  0.040  0.046
   24  0.007  0.001  0.011  0.019
   25  0.000  0.000  0.026  0.027
   26  0.000  0.000  0.026  0.027
   27  0.007  0.001  0.011  0.019
   28  0.002  0.000  0.001  0.003
   29  0.000  0.000  0.004  0.005
   30  0.000  0.000  0.004  0.005
   31  0.000  0.000  0.004  0.005
   32  0.000  0.000  0.004  0.005
   33  0.000  0.000  0.004  0.005
   34  0.000  0.000  0.004  0.005
   35  0.010  0.001  0.001  0.013
   36  0.008  0.002  0.003  0.013
tot    0.160  0.032  0.568  0.760
 
band    15 # energy   -5.39336902 # occ.  2.00000000
 
ion      s      p      d    tot
    1  0.000  0.001  0.013  0.014
    2  0.000  0.000  0.005  0.005
    3  0.009  0.001  0.004  0.014
    4  0.003  0.001  0.005  0.009
    5  0.000  0.000  0.006  0.006
    6  0.008  0.001  0.004  0.013
    7  0.006  0.001  0.005  0.012
    8  0.002  0.000  0.005  0.007
    9  0.000  0.001  0.005  0.007
   10  0.011  0.000  0.019  0.030
   11  0.000  0.001  0.019  0.020
   12  0.000  0.001  0.032  0.032
   13  0.000  0.001  0.016  0.017
   14  0.000  0.001  0.020  0.021
   15  0.008  0.001  0.028  0.037
   16  0.007  0.000  0.023  0.031
   17  0.000  0.000  0.058  0.058
   18  0.011  0.002  0.012  0.026
   19  0.011  0.001  0.029  0.041
   20  0.000  0.001  0.027  0.027
   21  0.000  0.002  0.022  0.023
   22  0.001  0.001  0.028  0.030
   23  0.000  0.001  0.025  0.026
   24  0.019  0.001  0.018  0.038
   25  0.016  0.001  0.011  0.029
   26  0.001  0.000  0.064  0.065
   27  0.013  0.001  0.021  0.035
   28  0.000  0.001  0.005  0.006
   29  0.000  0.000  0.007  0.007
   30  0.007  0.001  0.003  0.011
   31  0.005  0.001  0.004  0.009
   32  0.005  0.001  0.005  0.010
   33  0.007  0.001  0.003  0.011
   34  0.000  0.001  0.007  0.008
   35  0.000  0.001  0.009  0.010
   36  0.000  0.000  0.005  0.005
tot    0.149  0.029  0.571  0.749
 
band    16 # energy   -5.39336404 # occ.  2.00000000
 
ion      s      p      d    tot
    1  0.000  0.001  0.013  0.014
    2  0.009  0.001  0.004  0.014
    3  0.000  0.000  0.005  0.006
    4  0.006  0.001  0.004  0.011
    5  0.000  0.000  0.006  0.006
    6  0.002  0.001  0.005  0.007
    7  0.003  0.000  0.004  0.008
    8  0.007  0.001  0.005  0.013
    9  0.000  0.001  0.005  0.007
   10  0.001  0.001  0.030  0.032
   11  0.000  0.001  0.018  0.019
   12  0.012  0.000  0.017  0.030
   13  0.000  0.001  0.021  0.022
   14  0.000  0.001  0.016  0.018
   15  0.005  0.001  0.037  0.044
   16  0.005  0.000  0.026  0.031
   17  0.013  0.002  0.007  0.022
   18  0.002  0.000  0.053  0.055
   19  0.008  0.001  0.040  0.049
   20  0.000  0.002  0.022  0.024
   21  0.000  0.000  0.027  0.028
   22  0.021  0.001  0.017  0.038
   23  0.000  0.001  0.024  0.025
   24  0.003  0.001  0.027  0.030
   25  0.002  0.000  0.059  0.061
   26  0.018  0.001  0.005  0.025
   27  0.009  0.001  0.024  0.033
   28  0.000  0.001  0.005  0.006
   29  0.008  0.001  0.003  0.011
   30  0.001  0.000  0.006  0.008
   31  0.003  0.001  0.005  0.009
   32  0.003  0.001  0.005  0.009
   33  0.001  0.001  0.006  0.008
   34  0.007  0.001  0.003  0.011
   35  0.000  0.001  0.009  0.010
   36  0.000  0.000  0.005  0.005
tot    0.149  0.029  0.571  0.749
 
band    17 # energy   -5.13935127 # occ.  2.00000000
 
ion      s      p      d    tot
    1  0.013  0.000  0.005  0.018
    2  0.000  0.001  0.017  0.018
    3  0.000  0.001  0.017  0.018
    4  0.000  0.001  0.017  0.017
    5  0.001  0.000  0.001  0.002
    6  0.000  0.001  0.016  0.017
    7  0.000  0.001  0.017  0.018
    8  0.000  0.001  0.016  0.017
    9  0.022  0.001  0.002  0.025
   10  0.001  0.001  0.015  0.017
   11  0.000  0.000  0.012  0.012
   12  0.001  0.001  0.014  0.016
   13  0.000  0.000  0.012  0.012
   14  0.000  0.000  0.011  0.011
   15  0.000  0.000  0.031  0.032
   16  0.001  0.001  0.014  0.015
   17  0.000  0.000  0.031  0.031
   18  0.000  0.000  0.030  0.030
   19  0.001  0.000  0.031  0.031
   20  0.000  0.000  0.036  0.036
   21  0.000  0.000  0.032  0.032
   22  0.000  0.000  0.027  0.027
   23  0.000  0.000  0.029  0.029
   24  0.000  0.000  0.027  0.027
   25  0.001  0.000  0.029  0.030
   26  0.001  0.000  0.030  0.031
   27  0.000  0.000  0.027  0.027
   28  0.001  0.000  0.013  0.015
   29  0.000  0.001  0.026  0.027
   30  0.000  0.001  0.025  0.027
   31  0.000  0.001  0.027  0.028
   32  0.000  0.001  0.027  0.028
   33  0.000  0.001  0.026  0.027
   34  0.000  0.001  0.027  0.028
   35  0.018  0.001  0.001  0.020
   36  0.020  0.000  0.009  0.029
tot    0.083  0.016  0.727  0.826
 
band    18 # energy   -5.13929371 # occ.  2.00000000
 
ion      s      p      d    tot
    1  0.000  0.000  0.020  0.020
    2  0.001  0.000  0.009  0.010
    3  0.004  0.001  0.007  0.012
    4  0.010  0.001  0.007  0.018
    5  0.000  0.001  0.012  0.013
    6  0.005  0.001  0.007  0.012
    7  0.010  0.001  0.007  0.018
    8  0.001  0.000  0.009  0.011
    9  0.000  0.001  0.007  0.007
   10  0.000  0.000  0.011  0.011
   11  0.000  0.000  0.038  0.039
   12  0.000  0.001  0.024  0.024
   13  0.002  0.001  0.036  0.039
   14  0.001  0.000  0.038  0.039
   15  0.000  0.000  0.007  0.008
   16  0.000  0.000  0.010  0.010
   17  0.001  0.000  0.008  0.008
   18  0.000  0.000  0.007  0.008
   19  0.000  0.000  0.007  0.007
   20  0.000  0.001  0.062  0.063
   21  0.002  0.001  0.102  0.105
   22  0.001  0.000  0.011  0.013
   23  0.000  0.001  0.057  0.058
   24  0.000  0.000  0.015  0.015
   25  0.000  0.000  0.008  0.008
   26  0.000  0.000  0.015  0.015
   27  0.000  0.000  0.015  0.016
   28  0.000  0.001  0.002  0.002
   29  0.006  0.000  0.018  0.024
   30  0.012  0.001  0.029  0.043
   31  0.002  0.001  0.014  0.017
   32  0.012  0.001  0.029  0.042
   33  0.001  0.000  0.013  0.014
   34  0.004  0.000  0.016  0.021
   35  0.000  0.000  0.024  0.024
   36  0.000  0.005  0.029  0.034
tot    0.077  0.022  0.729  0.828
 
band    19 # energy   -5.13928323 # occ.  2.00000000
 
ion      s      p      d    tot
    1  0.000  0.000  0.020  0.020
    2  0.010  0.001  0.006  0.017
    3  0.006  0.000  0.008  0.015
    4  0.000  0.000  0.008  0.009
    5  0.000  0.001  0.011  0.013
    6  0.005  0.000  0.009  0.015
    7  0.001  0.001  0.007  0.009
    8  0.009  0.001  0.007  0.016
    9  0.000  0.001  0.007  0.007
   10  0.000  0.000  0.018  0.018
   11  0.002  0.001  0.036  0.038
   12  0.000  0.000  0.006  0.006
   13  0.000  0.000  0.038  0.039
   14  0.001  0.001  0.037  0.039
   15  0.001  0.000  0.007  0.008
   16  0.000  0.001  0.021  0.021
   17  0.000  0.000  0.007  0.007
   18  0.001  0.000  0.008  0.009
   19  0.000  0.000  0.012  0.012
   20  0.001  0.001  0.082  0.084
   21  0.000  0.001  0.046  0.047
   22  0.000  0.000  0.016  0.017
   23  0.001  0.001  0.094  0.096
   24  0.001  0.000  0.013  0.014
   25  0.000  0.000  0.013  0.013
   26  0.000  0.000  0.005  0.005
   27  0.001  0.000  0.012  0.013
   28  0.000  0.001  0.002  0.002
   29  0.007  0.001  0.022  0.030
   30  0.000  0.000  0.011  0.012
   31  0.011  0.001  0.025  0.037
   32  0.001  0.000  0.010  0.011
   33  0.011  0.001  0.028  0.040
   34  0.008  0.001  0.023  0.033
   35  0.000  0.000  0.024  0.024
   36  0.000  0.005  0.029  0.034
tot    0.077  0.022  0.729  0.828
 
band    20 # energy   -5.09642248 # occ.  2.00000000
 
ion      s      p      d    tot
    1  0.001  0.000  0.000  0.001
    2  0.000  0.000  0.007  0.007
    3  0.000  0.000  0.007  0.007
    4  0.000  0.000  0.007  0.007
    5  0.003  0.000  0.008  0.011
    6  0.000  0.000  0.007  0.007
    7  0.000  0.000  0.007  0.007
    8  0.000  0.000  0.007  0.007
    9  0.001  0.000  0.005  0.007
   10  0.000  0.000  0.013  0.013
   11  0.000  0.000  0.030  0.031
   12  0.000  0.000  0.013  0.013
   13  0.000  0.000  0.030  0.031
   14  0.000  0.000  0.030  0.031
   15  0.000  0.000  0.023  0.023
   16  0.000  0.000  0.013  0.013
   17  0.000  0.000  0.023  0.023
   18  0.000  0.000  0.023  0.023
   19  0.000  0.001  0.024  0.024
   20  0.001  0.000  0.045  0.046
   21  0.001  0.000  0.045  0.046
   22  0.001  0.000  0.030  0.031
   23  0.001  0.000  0.045  0.046
   24  0.001  0.000  0.030  0.031
   25  0.000  0.001  0.024  0.024
   26  0.000  0.001  0.024  0.024
   27  0.001  0.000  0.030  0.031
   28  0.027  0.000  0.006  0.034
   29  0.000  0.000  0.032  0.033
   30  0.000  0.000  0.032  0.033
   31  0.000  0.000  0.032  0.033
   32  0.000  0.000  0.032  0.033
   33  0.000  0.000  0.032  0.033
   34  0.000  0.000  0.032  0.033
   35  0.017  0.000  0.008  0.025
   36  0.005  0.002  0.004  0.011
tot    0.059  0.012  0.759  0.830
 
band    21 # energy   -5.05372256 # occ.  2.00000000
 
ion      s      p      d    tot
    1  0.000  0.002  0.007  0.009
    2  0.011  0.001  0.018  0.030
    3  0.010  0.001  0.013  0.023
    4  0.010  0.001  0.018  0.029
    5  0.000  0.000  0.027  0.028
    6  0.000  0.000  0.013  0.014
    7  0.009  0.001  0.013  0.022
    8  0.000  0.000  0.013  0.014
    9  0.000  0.000  0.038  0.038
   10  0.002  0.001  0.031  0.033
   11  0.000  0.000  0.019  0.019
   12  0.000  0.000  0.014  0.014
   13  0.000  0.000  0.018  0.019
   14  0.000  0.000  0.013  0.013
   15  0.000  0.000  0.028  0.029
   16  0.000  0.000  0.012  0.013
   17  0.000  0.000  0.028  0.029
   18  0.000  0.000  0.034  0.034
   19  0.000  0.000  0.016  0.016
   20  0.000  0.000  0.016  0.016
   21  0.000  0.000  0.022  0.022
   22  0.000  0.000  0.025  0.026
   23  0.000  0.000  0.022  0.023
   24  0.001  0.001  0.031  0.032
   25  0.000  0.001  0.016  0.017
   26  0.000  0.000  0.016  0.016
   27  0.000  0.000  0.025  0.025
   28  0.000  0.000  0.031  0.031
   29  0.000  0.000  0.015  0.015
   30  0.010  0.001  0.010  0.021
   31  0.000  0.000  0.016  0.016
   32  0.013  0.001  0.023  0.037
   33  0.011  0.001  0.010  0.022
   34  0.014  0.001  0.023  0.038
   35  0.000  0.001  0.003  0.005
   36  0.000  0.002  0.018  0.021
tot    0.092  0.019  0.696  0.808
 
band    22 # energy   -5.05370033 # occ.  2.00000000
 
ion      s      p      d    tot
    1  0.000  0.002  0.007  0.009
    2  0.002  0.000  0.012  0.014
    3  0.004  0.000  0.016  0.021
    4  0.003  0.000  0.012  0.015
    5  0.000  0.000  0.027  0.028
    6  0.013  0.001  0.016  0.030
    7  0.005  0.000  0.017  0.022
    8  0.013  0.001  0.016  0.030
    9  0.000  0.000  0.038  0.038
   10  0.000  0.000  0.007  0.007
   11  0.000  0.000  0.014  0.015
   12  0.001  0.000  0.024  0.026
   13  0.000  0.000  0.015  0.015
   14  0.000  0.000  0.020  0.021
   15  0.000  0.000  0.032  0.033
   16  0.001  0.001  0.026  0.027