PROCAR new format
# of k-points:   10         # of bands:  252         # of ions:   38

 k-point     1 :    0.00000000 0.00000000 0.00000000     weight = 0.01562500

band     1 # energy  -21.69576091 # occ.  2.00000000
 
ion      s      p      d    tot
    1  0.000  0.000  0.000  0.000
    2  0.000  0.000  0.000  0.000
    3  0.000  0.000  0.000  0.000
    4  0.000  0.000  0.000  0.000
    5  0.000  0.000  0.000  0.000
    6  0.000  0.000  0.000  0.000
    7  0.000  0.000  0.000  0.000
    8  0.000  0.000  0.000  0.000
    9  0.000  0.000  0.000  0.000
   10  0.000  0.000  0.000  0.000
   11  0.000  0.000  0.000  0.000
   12  0.000  0.000  0.000  0.000
   13  0.000  0.000  0.000  0.000
   14  0.000  0.000  0.000  0.000
   15  0.000  0.000  0.000  0.000
   16  0.000  0.000  0.000  0.000
   17  0.000  0.000  0.000  0.000
   18  0.000  0.000  0.000  0.000
   19  0.000  0.000  0.000  0.000
   20  0.000  0.000  0.000  0.000
   21  0.000  0.000  0.000  0.000
   22  0.000  0.000  0.000  0.000
   23  0.000  0.000  0.000  0.000
   24  0.000  0.000  0.000  0.000
   25  0.000  0.000  0.000  0.000
   26  0.000  0.000  0.000  0.000
   27  0.000  0.000  0.000  0.000
   28  0.000  0.000  0.000  0.000
   29  0.000  0.000  0.000  0.000
   30  0.000  0.000  0.000  0.000
   31  0.000  0.000  0.000  0.000
   32  0.000  0.000  0.000  0.000
   33  0.000  0.000  0.000  0.000
   34  0.000  0.000  0.000  0.000
   35  0.000  0.000  0.000  0.000
   36  0.000  0.000  0.000  0.001
   37  0.153  0.109  0.000  0.263
   38  0.636  0.090  0.000  0.727
tot    0.790  0.200  0.000  0.990
 
band     2 # energy   -7.90905152 # occ.  2.00000000
 
ion      s      p      d    tot
    1  0.000  0.000  0.000  0.000
    2  0.000  0.000  0.000  0.000
    3  0.000  0.000  0.000  0.000
    4  0.000  0.000  0.000  0.000
    5  0.000  0.000  0.000  0.000
    6  0.000  0.000  0.000  0.000
    7  0.000  0.000  0.000  0.000
    8  0.000  0.000  0.000  0.000
    9  0.000  0.000  0.000  0.000
   10  0.000  0.000  0.000  0.000
   11  0.000  0.000  0.000  0.000
   12  0.000  0.000  0.000  0.000
   13  0.000  0.000  0.000  0.000
   14  0.000  0.000  0.000  0.000
   15  0.000  0.000  0.000  0.000
   16  0.000  0.000  0.000  0.000
   17  0.000  0.000  0.000  0.000
   18  0.000  0.000  0.000  0.000
   19  0.000  0.000  0.000  0.000
   20  0.002  0.001  0.002  0.005
   21  0.002  0.001  0.002  0.005
   22  0.000  0.000  0.000  0.000
   23  0.002  0.001  0.002  0.005
   24  0.000  0.000  0.000  0.000
   25  0.000  0.000  0.000  0.000
   26  0.000  0.000  0.000  0.000
   27  0.000  0.000  0.000  0.000
   28  0.000  0.000  0.000  0.000
   29  0.001  0.000  0.001  0.002
   30  0.001  0.000  0.001  0.002
   31  0.001  0.000  0.001  0.002
   32  0.001  0.000  0.001  0.002
   33  0.001  0.000  0.001  0.002
   34  0.001  0.000  0.001  0.002
   35  0.000  0.000  0.000  0.000
   36  0.078  0.023  0.072  0.173
   37  0.279  0.013  0.000  0.292
   38  0.124  0.160  0.000  0.284
tot    0.496  0.200  0.085  0.780
 
band     3 # energy   -6.40549502 # occ.  2.00000000
 
ion      s      p      d    tot
    1  0.005  0.001  0.000  0.006
    2  0.005  0.001  0.000  0.006
    3  0.005  0.001  0.000  0.006
    4  0.005  0.001  0.000  0.006
    5  0.005  0.001  0.000  0.006
    6  0.005  0.001  0.000  0.006
    7  0.005  0.001  0.000  0.006
    8  0.005  0.001  0.000  0.006
    9  0.005  0.000  0.000  0.006
   10  0.021  0.000  0.000  0.022
   11  0.022  0.000  0.000  0.022
   12  0.021  0.000  0.000  0.022
   13  0.022  0.000  0.000  0.022
   14  0.022  0.000  0.000  0.022
   15  0.020  0.000  0.000  0.020
   16  0.021  0.000  0.000  0.022
   17  0.020  0.000  0.000  0.020
   18  0.020  0.000  0.000  0.020
   19  0.021  0.000  0.001  0.021
   20  0.027  0.000  0.001  0.027
   21  0.027  0.000  0.001  0.027
   22  0.021  0.000  0.000  0.021
   23  0.027  0.000  0.001  0.027
   24  0.021  0.000  0.000  0.021
   25  0.021  0.000  0.001  0.021
   26  0.021  0.000  0.001  0.021
   27  0.021  0.000  0.000  0.021
   28  0.005  0.000  0.000  0.006
   29  0.006  0.001  0.000  0.007
   30  0.006  0.001  0.000  0.007
   31  0.006  0.001  0.000  0.007
   32  0.006  0.001  0.000  0.007
   33  0.006  0.001  0.000  0.007
   34  0.006  0.001  0.000  0.007
   35  0.005  0.000  0.000  0.006
   36  0.017  0.002  0.000  0.018
   37  0.005  0.004  0.000  0.009
   38  0.007  0.027  0.000  0.035
tot    0.512  0.045  0.008  0.565
 
band     4 # energy   -5.67871015 # occ.  2.00000000
 
ion      s      p      d    tot
    1  0.005  0.000  0.001  0.006
    2  0.007  0.000  0.000  0.008
    3  0.007  0.000  0.000  0.008
    4  0.007  0.000  0.000  0.008
    5  0.008  0.000  0.000  0.008
    6  0.007  0.000  0.000  0.008
    7  0.007  0.000  0.000  0.008
    8  0.007  0.000  0.000  0.008
    9  0.008  0.000  0.000  0.009
   10  0.008  0.001  0.009  0.017
   11  0.011  0.000  0.004  0.015
   12  0.008  0.001  0.009  0.017
   13  0.011  0.000  0.004  0.015
   14  0.011  0.000  0.004  0.015
   15  0.013  0.000  0.003  0.017
   16  0.008  0.001  0.009  0.017
   17  0.013  0.000  0.003  0.017
   18  0.013  0.000  0.003  0.017
   19  0.001  0.001  0.005  0.006
   20  0.007  0.003  0.018  0.028
   21  0.007  0.003  0.018  0.028
   22  0.000  0.001  0.003  0.004
   23  0.007  0.003  0.018  0.028
   24  0.000  0.001  0.003  0.004
   25  0.001  0.001  0.005  0.006
   26  0.001  0.001  0.005  0.006
   27  0.000  0.001  0.003  0.004
   28  0.002  0.000  0.002  0.004
   29  0.006  0.000  0.005  0.012
   30  0.006  0.000  0.005  0.012
   31  0.006  0.000  0.005  0.012
   32  0.006  0.000  0.005  0.012
   33  0.006  0.000  0.005  0.012
   34  0.006  0.000  0.005  0.012
   35  0.002  0.000  0.001  0.003
   36  0.080  0.000  0.012  0.092
   37  0.000  0.060  0.000  0.061
   38  0.021  0.141  0.000  0.162
tot    0.327  0.224  0.173  0.724
 
band     5 # energy   -5.39267319 # occ.  2.00000000
 
ion      s      p      d    tot
    1  0.003  0.000  0.001  0.004
    2  0.001  0.000  0.000  0.001
    3  0.001  0.000  0.000  0.001
    4  0.001  0.000  0.000  0.001
    5  0.000  0.000  0.000  0.000
    6  0.001  0.000  0.000  0.001
    7  0.001  0.000  0.000  0.001
    8  0.001  0.000  0.000  0.001
    9  0.000  0.000  0.000  0.000
   10  0.007  0.000  0.015  0.022
   11  0.003  0.000  0.021  0.024
   12  0.007  0.000  0.015  0.022
   13  0.003  0.000  0.021  0.024
   14  0.003  0.000  0.021  0.024
   15  0.001  0.001  0.015  0.016
   16  0.007  0.000  0.015  0.022
   17  0.001  0.001  0.015  0.016
   18  0.001  0.001  0.015  0.016
   19  0.013  0.000  0.024  0.037
   20  0.003  0.000  0.061  0.064
   21  0.003  0.000  0.061  0.064
   22  0.017  0.000  0.021  0.039
   23  0.003  0.000  0.061  0.064
   24  0.017  0.000  0.021  0.039
   25  0.013  0.000  0.024  0.037
   26  0.013  0.000  0.024  0.037
   27  0.017  0.000  0.021  0.039
   28  0.001  0.001  0.004  0.006
   29  0.000  0.001  0.008  0.008
   30  0.000  0.001  0.008  0.008
   31  0.000  0.001  0.008  0.008
   32  0.000  0.001  0.008  0.008
   33  0.000  0.001  0.008  0.008
   34  0.000  0.001  0.008  0.008
   35  0.002  0.001  0.003  0.006
   36  0.028  0.001  0.006  0.035
   37  0.000  0.028  0.000  0.028
   38  0.006  0.050  0.000  0.056
tot    0.173  0.090  0.535  0.798
 
band     6 # energy   -5.22631244 # occ.  2.00000000
 
ion      s      p      d    tot
    1  0.018  0.000  0.014  0.032
    2  0.011  0.000  0.016  0.026
    3  0.011  0.000  0.016  0.026
    4  0.011  0.000  0.016  0.026
    5  0.007  0.000  0.014  0.020
    6  0.011  0.000  0.016  0.026
    7  0.011  0.000  0.016  0.026
    8  0.011  0.000  0.016  0.026
    9  0.009  0.000  0.014  0.023
   10  0.001  0.000  0.025  0.026
   11  0.000  0.000  0.005  0.006
   12  0.001  0.000  0.025  0.026
   13  0.000  0.000  0.005  0.006
   14  0.000  0.000  0.005  0.006
   15  0.001  0.001  0.004  0.006
   16  0.001  0.000  0.025  0.026
   17  0.001  0.001  0.004  0.006
   18  0.001  0.001  0.004  0.006
   19  0.000  0.001  0.016  0.016
   20  0.001  0.000  0.058  0.059
   21  0.001  0.000  0.058  0.059
   22  0.006  0.000  0.004  0.010
   23  0.001  0.000  0.058  0.059
   24  0.006  0.000  0.004  0.010
   25  0.000  0.001  0.016  0.016
   26  0.000  0.001  0.016  0.016
   27  0.006  0.000  0.004  0.010
   28  0.007  0.000  0.003  0.010
   29  0.007  0.000  0.007  0.015
   30  0.007  0.000  0.007  0.015
   31  0.007  0.000  0.007  0.015
   32  0.007  0.000  0.007  0.015
   33  0.007  0.000  0.007  0.015
   34  0.007  0.000  0.007  0.015
   35  0.014  0.000  0.003  0.017
   36  0.000  0.000  0.032  0.032
   37  0.001  0.008  0.000  0.009
   38  0.001  0.010  0.000  0.011
tot    0.188  0.027  0.555  0.770
 
band     7 # energy   -5.12922381 # occ.  2.00000000
 
ion      s      p      d    tot
    1  0.000  0.000  0.008  0.008
    2  0.001  0.000  0.002  0.003
    3  0.001  0.000  0.002  0.003
    4  0.001  0.000  0.002  0.003
    5  0.000  0.000  0.003  0.003
    6  0.000  0.000  0.002  0.003
    7  0.001  0.000  0.002  0.003
    8  0.000  0.000  0.002  0.003
    9  0.000  0.000  0.002  0.002
   10  0.000  0.001  0.018  0.019
   11  0.001  0.000  0.022  0.023
   12  0.008  0.001  0.018  0.026
   13  0.001  0.000  0.022  0.023
   14  0.000  0.001  0.025  0.026
   15  0.004  0.000  0.010  0.014
   16  0.008  0.001  0.018  0.026
   17  0.004  0.000  0.010  0.014
   18  0.000  0.000  0.017  0.017
   19  0.016  0.001  0.034  0.050
   20  0.000  0.000  0.157  0.157
   21  0.020  0.000  0.046  0.066
   22  0.000  0.001  0.033  0.033
   23  0.020  0.000  0.044  0.064
   24  0.000  0.001  0.042  0.043
   25  0.000  0.001  0.025  0.026
   26  0.015  0.001  0.034  0.050
   27  0.000  0.001  0.033  0.033
   28  0.000  0.000  0.004  0.004
   29  0.000  0.000  0.007  0.007
   30  0.000  0.000  0.005  0.005
   31  0.000  0.000  0.007  0.007
   32  0.001  0.000  0.005  0.006
   33  0.000  0.000  0.005  0.005
   34  0.001  0.000  0.005  0.006
   35  0.000  0.000  0.001  0.001
   36  0.000  0.001  0.012  0.013
   37  0.000  0.005  0.000  0.005
   38  0.000  0.010  0.000  0.010
tot    0.100  0.029  0.681  0.810
 
band     8 # energy   -5.12917235 # occ.  2.00000000
 
ion      s      p      d    tot
    1  0.000  0.000  0.008  0.008
    2  0.000  0.000  0.003  0.003
    3  0.000  0.000  0.002  0.002
    4  0.000  0.000  0.003  0.003
    5  0.000  0.000  0.003  0.003
    6  0.001  0.000  0.002  0.003
    7  0.000  0.000  0.002  0.002
    8  0.001  0.000  0.002  0.003
    9  0.000  0.000  0.002  0.002
   10  0.011  0.001  0.017  0.029
   11  0.000  0.001  0.024  0.025
   12  0.003  0.001  0.018  0.021
   13  0.000  0.001  0.024  0.025
   14  0.001  0.000  0.021  0.022
   15  0.001  0.000  0.015  0.016
   16  0.003  0.001  0.018  0.021
   17  0.001  0.000  0.015  0.016
   18  0.005  0.001  0.008  0.013
   19  0.005  0.001  0.028  0.034
   20  0.027  0.000  0.007  0.034
   21  0.007  0.000  0.118  0.125
   22  0.000  0.001  0.039  0.040
   23  0.006  0.000  0.120  0.127
   24  0.000  0.000  0.029  0.030
   25  0.021  0.000  0.037  0.058
   26  0.005  0.001  0.028  0.034
   27  0.000  0.001  0.039  0.040
   28  0.000  0.000  0.004  0.004
   29  0.000  0.000  0.004  0.005
   30  0.001  0.000  0.006  0.007
   31  0.000  0.000  0.004  0.005
   32  0.000  0.000  0.006  0.006
   33  0.000  0.000  0.006  0.007
   34  0.000  0.000  0.006  0.006
   35  0.000  0.000  0.001  0.001
   36  0.000  0.001  0.012  0.013
   37  0.000  0.005  0.000  0.005
   38  0.000  0.010  0.000  0.010
tot    0.100  0.029  0.681  0.810
 
band     9 # energy   -5.12346296 # occ.  2.00000000
 
ion      s      p      d    tot
    1  0.006  0.000  0.008  0.013
    2  0.007  0.000  0.018  0.024
    3  0.007  0.000  0.018  0.024
    4  0.007  0.000  0.018  0.024
    5  0.012  0.000  0.023  0.036
    6  0.007  0.000  0.018  0.024
    7  0.007  0.000  0.018  0.024
    8  0.007  0.000  0.018  0.024
    9  0.004  0.000  0.015  0.020
   10  0.001  0.001  0.002  0.004
   11  0.001  0.000  0.036  0.038
   12  0.001  0.001  0.002  0.004
   13  0.001  0.000  0.036  0.038
   14  0.001  0.000  0.036  0.037
   15  0.001  0.000  0.022  0.023
   16  0.001  0.001  0.002  0.004
   17  0.001  0.000  0.022  0.023
   18  0.001  0.000  0.022  0.023
   19  0.005  0.000  0.010  0.015
   20  0.001  0.000  0.072  0.073
   21  0.002  0.000  0.071  0.073
   22  0.002  0.000  0.016  0.019
   23  0.002  0.000  0.071  0.073
   24  0.002  0.000  0.016  0.019
   25  0.005  0.000  0.010  0.016
   26  0.005  0.000  0.010  0.015
   27  0.002  0.000  0.016  0.019
   28  0.000  0.000  0.001  0.001
   29  0.001  0.000  0.009  0.011
   30  0.001  0.000  0.009  0.011
   31  0.001  0.000  0.009  0.011
   32  0.001  0.000  0.009  0.011
   33  0.001  0.000  0.009  0.011
   34  0.001  0.000  0.009  0.011
   35  0.002  0.000  0.000  0.002
   36  0.006  0.000  0.009  0.016
   37  0.000  0.000  0.000  0.000
   38  0.000  0.000  0.000  0.000
tot    0.113  0.009  0.692  0.815
 
band    10 # energy   -5.10764752 # occ.  2.00000000
 
ion      s      p      d    tot
    1  0.000  0.000  0.005  0.005
    2  0.001  0.001  0.007  0.009
    3  0.001  0.000  0.003  0.004
    4  0.001  0.001  0.007  0.009
    5  0.000  0.000  0.008  0.009
    6  0.000  0.000  0.004  0.005
    7  0.001  0.000  0.002  0.003
    8  0.000  0.000  0.004  0.004
    9  0.000  0.000  0.001  0.001
   10  0.000  0.000  0.097  0.098
   11  0.025  0.001  0.030  0.056
   12  0.005  0.001  0.042  0.048
   13  0.022  0.001  0.039  0.061
   14  0.000  0.001  0.088  0.089
   15  0.006  0.000  0.032  0.038
   16  0.006  0.001  0.032  0.039
   17  0.005  0.001  0.028  0.033
   18  0.000  0.002  0.006  0.008
   19  0.001  0.000  0.017  0.018
   20  0.000  0.001  0.028  0.030
   21  0.007  0.001  0.037  0.044
   22  0.008  0.001  0.014  0.023
   23  0.008  0.001  0.038  0.047
   24  0.000  0.000  0.025  0.025
   25  0.000  0.000  0.030  0.030
   26  0.001  0.000  0.019  0.020
   27  0.009  0.001  0.012  0.023
   28  0.000  0.000  0.001  0.001
   29  0.000  0.000  0.002  0.002
   30  0.001  0.000  0.003  0.004
   31  0.000  0.000  0.002  0.003
   32  0.001  0.000  0.004  0.005
   33  0.001  0.000  0.004  0.005
   34  0.001  0.000  0.004  0.006
   35  0.000  0.000  0.006  0.006
   36  0.000  0.000  0.004  0.005
   37  0.000  0.000  0.000  0.000
   38  0.000  0.000  0.000  0.000
tot    0.110  0.015  0.686  0.811
 
band    11 # energy   -5.10764422 # occ.  2.00000000
 
ion      s      p      d    tot
    1  0.000  0.000  0.005  0.005
    2  0.000  0.000  0.002  0.002
    3  0.001  0.000  0.006  0.007
    4  0.000  0.000  0.002  0.002
    5  0.000  0.000  0.008  0.009
    6  0.001  0.001  0.005  0.006
    7  0.001  0.000  0.007  0.008
    8  0.001  0.001  0.005  0.007
    9  0.000  0.000  0.001  0.001
   10  0.007  0.001  0.017  0.025
   11  0.006  0.001  0.074  0.081
   12  0.002  0.000  0.072  0.075
   13  0.010  0.001  0.065  0.076
   14  0.031  0.001  0.016  0.048
   15  0.001  0.001  0.012  0.015
   16  0.001  0.000  0.082  0.084
   17  0.002  0.001  0.016  0.020
   18  0.007  0.000  0.038  0.045
   19  0.000  0.000  0.027  0.027
   20  0.010  0.001  0.041  0.051
   21  0.003  0.001  0.032  0.036
   22  0.004  0.000  0.020  0.024
   23  0.002  0.001  0.031  0.034
   24  0.012  0.001  0.009  0.022
   25  0.001  0.000  0.014  0.015
   26  0.000  0.000  0.025  0.025
   27  0.002  0.000  0.022  0.025
   28  0.000  0.000  0.001  0.001
   29  0.001  0.000  0.004  0.006
   30  0.001  0.000  0.003  0.004
   31  0.001  0.000  0.004  0.006
   32  0.000  0.000  0.003  0.003
   33  0.001  0.000  0.003  0.003
   34  0.000  0.000  0.003  0.003
   35  0.000  0.000  0.006  0.006
   36  0.000  0.000  0.004  0.005
   37  0.000  0.000  0.000  0.000
   38  0.000  0.000  0.000  0.000
tot    0.110  0.015  0.686  0.811
 
band    12 # energy   -5.09028484 # occ.  2.00000000
 
ion      s      p      d    tot
    1  0.000  0.000  0.000  0.000
    2  0.000  0.000  0.006  0.006
    3  0.000  0.000  0.006  0.006
    4  0.000  0.000  0.006  0.006
    5  0.005  0.001  0.002  0.008
    6  0.000  0.000  0.006  0.006
    7  0.000  0.000  0.006  0.006
    8  0.000  0.000  0.006  0.006
    9  0.001  0.000  0.006  0.007
   10  0.006  0.001  0.009  0.016
   11  0.014  0.001  0.031  0.046
   12  0.006  0.001  0.008  0.016
   13  0.014  0.001  0.031  0.046
   14  0.014  0.001  0.031  0.046
   15  0.002  0.000  0.054  0.057
   16  0.006  0.001  0.008  0.016
   17  0.002  0.000  0.054  0.057
   18  0.002  0.000  0.054  0.056
   19  0.011  0.000  0.033  0.045
   20  0.007  0.001  0.016  0.024
   21  0.007  0.001  0.016  0.024
   22  0.000  0.000  0.044  0.045
   23  0.007  0.001  0.016  0.024
   24  0.000  0.000  0.044  0.045
   25  0.011  0.000  0.033  0.045
   26  0.011  0.000  0.033  0.045
   27  0.000  0.000  0.044  0.045
   28  0.004  0.001  0.004  0.009
   29  0.000  0.000  0.005  0.005
   30  0.000  0.000  0.005  0.005
   31  0.000  0.000  0.005  0.005
   32  0.000  0.000  0.005  0.005
   33  0.000  0.000  0.005  0.005
   34  0.000  0.000  0.005  0.005
   35  0.001  0.000  0.004  0.005
   36  0.000  0.000  0.000  0.001
   37  0.000  0.000  0.000  0.000
   38  0.000  0.000  0.000  0.000
tot    0.135  0.019  0.642  0.796
 
band    13 # energy   -5.07233142 # occ.  2.00000000
 
ion      s      p      d    tot
    1  0.000  0.001  0.025  0.025
    2  0.001  0.000  0.006  0.007
    3  0.001  0.000  0.006  0.007
    4  0.001  0.000  0.006  0.007
    5  0.000  0.000  0.000  0.000
    6  0.001  0.000  0.006  0.007
    7  0.001  0.000  0.006  0.007
    8  0.001  0.000  0.006  0.007
    9  0.006  0.001  0.001  0.007
   10  0.005  0.000  0.094  0.100
   11  0.002  0.001  0.040  0.042
   12  0.005  0.000  0.094  0.100
   13  0.002  0.001  0.040  0.042
   14  0.002  0.001  0.040  0.042
   15  0.010  0.001  0.014  0.025
   16  0.005  0.000  0.094  0.100
   17  0.010  0.001  0.014  0.025
   18  0.010  0.001  0.014  0.025
   19  0.001  0.000  0.025  0.027
   20  0.002  0.001  0.007  0.009
   21  0.002  0.001  0.007  0.009
   22  0.000  0.000  0.021  0.022
   23  0.002  0.001  0.007  0.009
   24  0.000  0.000  0.021  0.022
   25  0.001  0.000  0.025  0.027
   26  0.001  0.000  0.025  0.027
   27  0.000  0.000  0.021  0.022
   28  0.004  0.000  0.008  0.012
   29  0.001  0.000  0.008  0.009
   30  0.001  0.000  0.008  0.009
   31  0.001  0.000  0.008  0.009
   32  0.001  0.000  0.008  0.009
   33  0.001  0.000  0.008  0.009
   34  0.001  0.000  0.008  0.009
   35  0.001  0.000  0.002  0.003
   36  0.001  0.001  0.001  0.002
   37  0.000  0.003  0.000  0.003
   38  0.000  0.004  0.000  0.004
tot    0.086  0.018  0.725  0.828
 
band    14 # energy   -5.05704967 # occ.  2.00000000
 
ion      s      p      d    tot
    1  0.000  0.001  0.011  0.011
    2  0.002  0.001  0.009  0.012
    3  0.004  0.001  0.005  0.009
    4  0.003  0.001  0.008  0.013
    5  0.000  0.000  0.010  0.010
    6  0.000  0.000  0.008  0.008
    7  0.004  0.001  0.005  0.010
    8  0.000  0.000  0.009  0.009
    9  0.000  0.000  0.010  0.011
   10  0.019  0.000  0.019  0.038
   11  0.000  0.000  0.025  0.026
   12  0.003  0.000  0.043  0.047
   13  0.000  0.000  0.022  0.023
   14  0.000  0.000  0.035  0.036
   15  0.006  0.000  0.063  0.070
   16  0.007  0.000  0.038  0.045
   17  0.003  0.000  0.080  0.083
   18  0.017  0.000  0.008  0.025
   19  0.001  0.000  0.032  0.033
   20  0.003  0.000  0.024  0.028
   21  0.001  0.000  0.022  0.023
   22  0.002  0.000  0.039  0.041
   23  0.001  0.000  0.022  0.024
   24  0.012  0.000  0.011  0.023
   25  0.003  0.000  0.019  0.022
   26  0.000  0.000  0.036  0.037
   27  0.004  0.000  0.033  0.037
   28  0.000  0.000  0.011  0.011
   29  0.002  0.000  0.006  0.008
   30  0.001  0.000  0.004  0.005
   31  0.001  0.000  0.006  0.007
   32  0.004  0.001  0.004  0.009
   33  0.000  0.000  0.004  0.005
   34  0.004  0.001  0.005  0.009
   35  0.000  0.000  0.005  0.005
   36  0.000  0.000  0.002  0.003
   37  0.000  0.000  0.000  0.000
   38  0.000  0.001  0.000  0.001
tot    0.107  0.013  0.695  0.815
 
band    15 # energy   -5.05702939 # occ.  2.00000000
 
ion      s      p      d    tot
    1  0.000  0.001  0.011  0.011
    2  0.002  0.000  0.006  0.008
    3  0.001  0.001  0.010  0.012
    4  0.001  0.000  0.007  0.008
    5  0.000  0.000  0.010  0.010
    6  0.004  0.001  0.007  0.012
    7  0.000  0.000  0.010  0.011
    8  0.005  0.001  0.006  0.011
    9  0.000  0.000  0.010  0.011
   10  0.000  0.001  0.048  0.048
   11  0.000  0.000  0.030  0.030
   12  0.016  0.000  0.024  0.040
   13  0.000  0.000  0.033  0.033
   14  0.000  0.000  0.020  0.020
   15  0.011  0.000  0.037  0.049
   16  0.012  0.000  0.029  0.042
   17  0.015  0.000  0.021  0.036
   18  0.000  0.000  0.093  0.093
   19  0.002  0.000  0.026  0.028
   20  0.000  0.000  0.021  0.022
   21  0.003  0.000  0.024  0.027
   22  0.010  0.000  0.016  0.026
   23  0.002  0.000  0.023  0.026
   24  0.000  0.000  0.044  0.044
   25  0.000  0.000  0.040  0.040
   26  0.002  0.000  0.022  0.024
   27  0.008  0.000  0.022  0.030
   28  0.000  0.000  0.011  0.011
   29  0.002  0.000  0.004  0.006
   30  0.003  0.001  0.006  0.009
   31  0.003  0.000  0.004  0.007
   32  0.000  0.000  0.005  0.006
   33  0.004  0.001  0.005  0.010
   34  0.000  0.000  0.005  0.005
   35  0.000  0.000  0.005  0.005
   36  0.000  0.000  0.002  0.003
   37  0.000  0.000  0.000  0.000
   38  0.000  0.001  0.000  0.001
tot    0.107  0.013  0.695  0.815
 
band    16 # energy   -5.05580318 # occ.  2.00000000
 
ion      s      p      d    tot
    1  0.000  0.000  0.005  0.006
    2  0.002  0.000  0.011  0.013
    3  0.002  0.000  0.011  0.012
    4  0.002  0.000  0.011  0.013
    5  0.001  0.000  0.000  0.002
    6  0.002  0.000  0.011  0.012
    7  0.002  0.000  0.011  0.012
    8  0.002  0.000  0.011  0.012
    9  0.007  0.000  0.017  0.024
   10  0.003  0.000  0.014  0.017
   11  0.000  0.000  0.012  0.012
   12  0.003  0.000  0.014  0.017
   13  0.000  0.000  0.012  0.012
   14  0.000  0.000  0.012  0.012
   15  0.001  0.000  0.044  0.045
   16  0.003  0.000  0.014  0.017
   17  0.001  0.000  0.044  0.045
   18  0.001  0.000  0.044  0.045
   19  0.002  0.001  0.015  0.017
   20  0.003  0.000  0.030  0.032
   21  0.003  0.000  0.029  0.032
   22  0.002  0.000  0.057  0.059
   23  0.003  0.000  0.029  0.032
   24  0.001  0.000  0.058  0.059
   25  0.002  0.001  0.014  0.017
   26  0.002  0.001  0.015  0.017
   27  0.002  0.000  0.057  0.059
   28  0.009  0.000  0.000  0.010
   29  0.005  0.000  0.015  0.019
   30  0.005  0.000  0.014  0.019
   31  0.005  0.000  0.015  0.019
   32  0.005  0.000  0.014  0.019
   33  0.005  0.000  0.014  0.019
   34  0.005  0.000  0.014  0.019
   35  0.007  0.000  0.032  0.039
   36  0.000  0.001  0.004  0.004
   37  0.000  0.000  0.000  0.000
   38  0.000  0.000  0.000  0.000
tot    0.093  0.008  0.721  0.822
 
band    17 # energy   -5.04812836 # occ.  2.00000000
 
ion      s      p      d    tot
    1  0.000  0.000  0.008  0.008
    2  0.001  0.000  0.008  0.009
    3  0.000  0.000  0.008  0.008
    4  0.001  0.000  0.008  0.009
    5  0.000  0.000  0.004  0.004
    6  0.002  0.000  0.005  0.007
    7  0.000  0.000  0.008  0.008
    8  0.002  0.000  0.005  0.007
    9  0.000  0.000  0.018  0.018
   10  0.000  0.000  0.040  0.040
   11  0.001  0.000  0.045  0.046
   12  0.000  0.000  0.015  0.015
   13  0.001  0.000  0.046  0.047
   14  0.003  0.000  0.010  0.013
   15  0.001  0.000  0.050  0.051
   16  0.000  0.000  0.015  0.015
   17  0.001  0.000  0.051  0.052
   18  0.004  0.000  0.028  0.032
   19  0.002  0.000  0.072  0.074
   20  0.000  0.000  0.050  0.050
   21  0.000  0.000  0.021  0.021
   22  0.002  0.000  0.051  0.053
   23  0.000  0.000  0.022  0.022
   24  0.009  0.000  0.032  0.041
   25  0.007  0.000  0.007  0.014
   26  0.002  0.000  0.074  0.076
   27  0.002  0.000  0.050  0.052
   28  0.000  0.000  0.006  0.006
   29  0.001  0.000  0.007  0.008
   30  0.001  0.000  0.003  0.005
   31  0.001  0.000  0.007  0.008
   32  0.000  0.000  0.007  0.008
   33  0.001  0.000  0.003  0.005
   34  0.000  0.000  0.008  0.008
   35  0.000  0.000  0.012  0.012
   36  0.000  0.000  0.001  0.002
   37  0.000  0.000  0.000  0.000
   38  0.000  0.000  0.000  0.000
tot    0.044  0.006  0.801  0.851
 
band    18 # energy   -5.04804621 # occ.  2.00000000
 
ion      s      p      d    tot
    1  0.000  0.000  0.008  0.008
    2  0.001  0.000  0.006  0.007
    3  0.002  0.000  0.006  0.008
    4  0.001  0.000  0.006  0.007
    5  0.000  0.000  0.004  0.004
    6  0.000  0.000  0.009  0.009
    7  0.002  0.000  0.006  0.008
    8  0.000  0.000  0.009  0.009
    9  0.000  0.000  0.018  0.018
   10  0.000  0.000  0.006  0.006
   11  0.002  0.000  0.022  0.025
   12  0.000  0.000  0.032  0.032
   13  0.002  0.000  0.021  0.023
   14  0.000  0.000  0.057  0.057
   15  0.003  0.000  0.036  0.039
   16  0.000  0.000  0.031  0.031
   17  0.003  0.000  0.035  0.038
   18  0.000  0.000  0.058  0.058
   19  0.005  0.000  0.030  0.035
   20  0.000  0.000  0.012  0.012
   21  0.000  0.000  0.041  0.041
   22  0.007  0.000  0.038  0.045
   23  0.000  0.000  0.040  0.040
   24  0.000  0.000  0.056  0.056
   25  0.000  0.000  0.095  0.095
   26  0.005  0.000  0.028  0.033
   27  0.006  0.000  0.039  0.045
   28  0.000  0.000  0.006  0.006
   29  0.001  0.000  0.004  0.006
   30  0.000  0.000  0.009  0.009
   31  0.001  0.000  0.005  0.006
   32  0.001  0.000  0.004  0.006
   33  0.000  0.000  0.009  0.009
   34  0.001  0.000  0.004  0.006
   35  0.000  0.000  0.012  0.012
   36  0.000  0.000  0.001  0.002
   37  0.000  0.000  0.000  0.000
   38  0.000  0.000  0.000  0.000
tot    0.044  0.006  0.801  0.851
 
band    19 # energy   -4.95582122 # occ.  2.00000000
 
ion      s      p      d    tot
    1  0.004  0.000  0.000  0.004
    2  0.000  0.000  0.006  0.006
    3  0.000  0.000  0.006  0.006
    4  0.000  0.000  0.006  0.006
    5  0.002  0.001  0.017  0.020
    6  0.000  0.000  0.006  0.006
    7  0.000  0.000  0.006  0.006
    8  0.000  0.000  0.006  0.006
    9  0.000  0.000  0.003  0.003
   10  0.001  0.000  0.005  0.006
   11  0.001  0.001  0.074  0.075
   12  0.001  0.000  0.005  0.006
   13  0.001  0.001  0.074  0.075
   14  0.001  0.001  0.074  0.075
   15  0.002  0.000  0.024  0.027
   16  0.001  0.000  0.005  0.006
   17  0.002  0.000  0.024  0.027
   18  0.002  0.000  0.024  0.027
   19  0.000  0.000  0.027  0.028
   20  0.004  0.000  0.033  0.037
   21  0.004  0.000  0.032  0.037
   22  0.005  0.001  0.004  0.010
   23  0.004  0.000  0.032  0.037
   24  0.005  0.001  0.004  0.010
   25  0.000  0.000  0.027  0.028
   26  0.000  0.000  0.027  0.028
   27  0.005  0.001  0.004  0.010
   28  0.011  0.000  0.012  0.023
   29  0.003  0.000  0.015  0.019
   30  0.003  0.000  0.015  0.019
   31  0.003  0.000  0.015  0.019
   32  0.003  0.000  0.015  0.019
   33  0.003  0.000  0.015  0.019
   34  0.003  0.000  0.015  0.019
   35  0.000  0.001  0.005  0.006
   36  0.001  0.003  0.025  0.029
   37  0.002  0.022  0.000  0.025
   38  0.002  0.028  0.000  0.030
tot    0.080  0.065  0.692  0.837
 
band    20 # energy   -4.93457214 # occ.  2.00000000
 
ion      s      p      d    tot
    1  0.000  0.000  0.001  0.001
    2  0.001  0.000  0.004  0.005
    3  0.002  0.001  0.004  0.006
    4  0.000  0.000  0.005  0.005
    5  0.000  0.001  0.012  0.012
    6  0.000  0.000  0.006  0.006
    7  0.001  0.001  0.006  0.008
    8  0.001  0.000  0.006  0.008
    9  0.000  0.000  0.006  0.007
   10  0.000  0.000  0.005  0.005
   11  0.003  0.000  0.039  0.042
   12  0.000  0.000  0.012  0.013
   13  0.001  0.000  0.050  0.052
   14  0.000  0.000  0.058  0.058
   15  0.001  0.000  0.021  0.022
   16  0.000  0.001  0.024  0.025
   17  0.000  0.000  0.020  0.021
   18  0.000  0.000  0.019  0.019
   19  0.000  0.001  0.020  0.020
   20  0.000  0.000  0.093  0.093
   21  0.001  0.000  0.085  0.085
   22  0.000  0.000  0.030  0.030
   23  0.001  0.000  0.072  0.073
   24  0.000  0.000  0.036  0.036
   25  0.000  0.000  0.002  0.002
   26  0.000  0.000  0.009  0.009
   27  0.000  0.000  0.020  0.021
   28  0.000  0.000  0.001  0.001
   29  0.001  0.001  0.010  0.011
   30  0.000  0.001  0.010  0.011
   31  0.001  0.000  0.008  0.009
   32  0.000  0.000  0.007  0.007
   33  0.000  0.000  0.008  0.009
   34  0.000  0.000  0.007  0.007
   35  0.000  0.000  0.001  0.001
   36  0.000  0.000  0.021  0.021
   37  0.000  0.027  0.000  0.027
   38  0.000  0.057  0.000  0.057
tot    0.015  0.094  0.738  0.846
 
band    21 # energy   -4.93456934 # occ.  2.00000000
 
ion      s      p      d    tot
    1  0.000  0.000  0.001  0.001
    2  0.000  0.000  0.006  0.007
    3  0.000  0.000  0.006  0.006
    4  0.002  0.001  0.005  0.008
    5  0.000  0.001  0.012  0.012
    6  0.002  0.001  0.004  0.007
    7  0.000  0.000  0.004  0.005
    8  0.001  0.000  0.004  0.005
    9  0.000  0.000  0.006  0.007
   10  0.000  0.001  0.023  0.023
   11  0.000  0.000  0.059  0.059
   12  0.000  0.001  0.015  0.016
   13  0.002  0.000  0.048  0.049
   14  0.002  0.000  0.040  0.043
   15  0.000  0.000  0.019  0.019
   16  0.000  0.000  0.003  0.003