PROCAR new format
# of k-points:   10         # of bands:  252         # of ions:   38

 k-point     1 :    0.00000000 0.00000000 0.00000000     weight = 0.01562500

band     1 # energy  -18.95237826 # occ.  2.00000000
 
ion      s      p      d    tot
    1  0.000  0.000  0.000  0.000
    2  0.000  0.000  0.000  0.000
    3  0.000  0.000  0.000  0.000
    4  0.000  0.000  0.000  0.000
    5  0.000  0.000  0.000  0.000
    6  0.000  0.000  0.000  0.000
    7  0.000  0.000  0.000  0.000
    8  0.000  0.000  0.000  0.000
    9  0.000  0.000  0.000  0.000
   10  0.000  0.000  0.000  0.000
   11  0.000  0.000  0.000  0.000
   12  0.000  0.000  0.000  0.000
   13  0.000  0.000  0.000  0.000
   14  0.000  0.000  0.000  0.000
   15  0.000  0.000  0.000  0.000
   16  0.000  0.000  0.000  0.000
   17  0.000  0.000  0.000  0.000
   18  0.000  0.000  0.000  0.000
   19  0.000  0.000  0.000  0.000
   20  0.000  0.000  0.000  0.000
   21  0.000  0.000  0.000  0.000
   22  0.000  0.000  0.000  0.000
   23  0.000  0.000  0.000  0.000
   24  0.000  0.000  0.000  0.000
   25  0.000  0.000  0.000  0.000
   26  0.000  0.000  0.000  0.000
   27  0.000  0.000  0.000  0.000
   28  0.000  0.000  0.000  0.000
   29  0.000  0.000  0.000  0.000
   30  0.000  0.000  0.000  0.000
   31  0.000  0.000  0.000  0.000
   32  0.000  0.000  0.000  0.000
   33  0.000  0.000  0.000  0.000
   34  0.000  0.000  0.000  0.000
   35  0.000  0.000  0.000  0.000
   36  0.013  0.020  0.034  0.068
   37  0.742  0.017  0.000  0.758
   38  0.118  0.024  0.000  0.142
tot    0.873  0.062  0.034  0.969
 
band     2 # energy   -7.94600062 # occ.  2.00000000
 
ion      s      p      d    tot
    1  0.005  0.000  0.000  0.005
    2  0.005  0.000  0.000  0.005
    3  0.005  0.000  0.000  0.005
    4  0.005  0.000  0.000  0.005
    5  0.005  0.000  0.000  0.005
    6  0.005  0.000  0.000  0.005
    7  0.005  0.000  0.000  0.005
    8  0.005  0.000  0.000  0.005
    9  0.005  0.000  0.000  0.005
   10  0.022  0.000  0.000  0.022
   11  0.022  0.000  0.000  0.022
   12  0.022  0.000  0.000  0.022
   13  0.022  0.000  0.000  0.022
   14  0.022  0.000  0.000  0.022
   15  0.020  0.000  0.000  0.020
   16  0.022  0.000  0.000  0.022
   17  0.020  0.000  0.000  0.020
   18  0.020  0.000  0.000  0.020
   19  0.021  0.000  0.000  0.022
   20  0.031  0.000  0.001  0.032
   21  0.031  0.000  0.001  0.032
   22  0.022  0.000  0.000  0.022
   23  0.031  0.000  0.001  0.032
   24  0.022  0.000  0.000  0.022
   25  0.021  0.000  0.000  0.022
   26  0.021  0.000  0.000  0.022
   27  0.022  0.000  0.000  0.022
   28  0.005  0.000  0.000  0.005
   29  0.006  0.000  0.000  0.007
   30  0.006  0.000  0.000  0.007
   31  0.006  0.000  0.000  0.007
   32  0.006  0.000  0.000  0.007
   33  0.006  0.000  0.000  0.007
   34  0.006  0.000  0.000  0.007
   35  0.005  0.000  0.000  0.005
   36  0.032  0.000  0.011  0.044
   37  0.001  0.046  0.000  0.047
   38  0.016  0.002  0.000  0.017
tot    0.553  0.057  0.017  0.627
 
band     3 # energy   -7.39858198 # occ.  2.00000000
 
ion      s      p      d    tot
    1  0.003  0.000  0.000  0.003
    2  0.003  0.000  0.000  0.003
    3  0.003  0.000  0.000  0.003
    4  0.003  0.000  0.000  0.003
    5  0.003  0.000  0.000  0.003
    6  0.003  0.000  0.000  0.003
    7  0.003  0.000  0.000  0.003
    8  0.003  0.000  0.000  0.003
    9  0.003  0.000  0.000  0.003
   10  0.006  0.000  0.000  0.006
   11  0.006  0.000  0.000  0.006
   12  0.006  0.000  0.000  0.006
   13  0.006  0.000  0.000  0.006
   14  0.006  0.000  0.000  0.006
   15  0.008  0.000  0.000  0.008
   16  0.006  0.000  0.000  0.006
   17  0.008  0.000  0.000  0.008
   18  0.008  0.000  0.000  0.008
   19  0.001  0.000  0.000  0.002
   20  0.000  0.001  0.005  0.006
   21  0.000  0.001  0.005  0.006
   22  0.002  0.000  0.000  0.002
   23  0.000  0.001  0.005  0.006
   24  0.002  0.000  0.000  0.002
   25  0.001  0.000  0.000  0.002
   26  0.001  0.000  0.000  0.002
   27  0.002  0.000  0.000  0.002
   28  0.000  0.000  0.000  0.000
   29  0.000  0.000  0.000  0.001
   30  0.000  0.000  0.000  0.001
   31  0.000  0.000  0.000  0.001
   32  0.000  0.000  0.000  0.001
   33  0.000  0.000  0.000  0.001
   34  0.000  0.000  0.000  0.001
   35  0.000  0.000  0.000  0.000
   36  0.076  0.033  0.125  0.234
   37  0.022  0.429  0.000  0.451
   38  0.144  0.015  0.000  0.159
tot    0.338  0.485  0.145  0.968
 
band     4 # energy   -6.69094384 # occ.  2.00000000
 
ion      s      p      d    tot
    1  0.015  0.000  0.001  0.017
    2  0.015  0.000  0.001  0.016
    3  0.015  0.000  0.001  0.016
    4  0.015  0.000  0.001  0.016
    5  0.015  0.000  0.001  0.016
    6  0.015  0.000  0.001  0.016
    7  0.015  0.000  0.001  0.016
    8  0.015  0.000  0.001  0.016
    9  0.015  0.000  0.001  0.016
   10  0.010  0.001  0.002  0.013
   11  0.009  0.001  0.002  0.013
   12  0.010  0.001  0.002  0.013
   13  0.009  0.001  0.002  0.013
   14  0.009  0.001  0.002  0.013
   15  0.009  0.001  0.002  0.012
   16  0.010  0.001  0.002  0.013
   17  0.009  0.001  0.002  0.012
   18  0.009  0.001  0.002  0.012
   19  0.012  0.001  0.003  0.016
   20  0.012  0.001  0.004  0.016
   21  0.012  0.001  0.004  0.016
   22  0.014  0.001  0.003  0.018
   23  0.012  0.001  0.004  0.016
   24  0.014  0.001  0.003  0.018
   25  0.012  0.001  0.003  0.016
   26  0.012  0.001  0.003  0.016
   27  0.014  0.001  0.003  0.018
   28  0.015  0.000  0.001  0.016
   29  0.015  0.001  0.001  0.017
   30  0.015  0.001  0.001  0.017
   31  0.015  0.001  0.001  0.017
   32  0.015  0.001  0.001  0.017
   33  0.015  0.001  0.001  0.017
   34  0.015  0.001  0.001  0.017
   35  0.016  0.000  0.001  0.017
   36  0.003  0.009  0.023  0.035
   37  0.004  0.040  0.000  0.043
   38  0.013  0.001  0.000  0.014
tot    0.469  0.078  0.088  0.635
 
band     5 # energy   -5.81850929 # occ.  2.00000000
 
ion      s      p      d    tot
    1  0.002  0.000  0.004  0.006
    2  0.005  0.000  0.003  0.009
    3  0.005  0.000  0.003  0.009
    4  0.005  0.000  0.003  0.009
    5  0.005  0.000  0.003  0.008
    6  0.005  0.000  0.003  0.009
    7  0.005  0.000  0.003  0.009
    8  0.005  0.000  0.003  0.009
    9  0.010  0.000  0.002  0.012
   10  0.002  0.001  0.001  0.005
   11  0.001  0.001  0.001  0.003
   12  0.002  0.001  0.001  0.005
   13  0.001  0.001  0.001  0.003
   14  0.001  0.001  0.001  0.003
   15  0.001  0.001  0.001  0.002
   16  0.002  0.001  0.001  0.005
   17  0.001  0.001  0.001  0.002
   18  0.001  0.001  0.001  0.002
   19  0.007  0.001  0.015  0.023
   20  0.015  0.001  0.026  0.042
   21  0.015  0.001  0.026  0.042
   22  0.000  0.001  0.014  0.015
   23  0.015  0.001  0.026  0.042
   24  0.000  0.001  0.014  0.015
   25  0.007  0.001  0.015  0.023
   26  0.007  0.001  0.015  0.023
   27  0.000  0.001  0.014  0.015
   28  0.018  0.000  0.014  0.032
   29  0.023  0.000  0.018  0.042
   30  0.023  0.000  0.018  0.042
   31  0.023  0.000  0.018  0.042
   32  0.023  0.000  0.018  0.042
   33  0.023  0.000  0.018  0.042
   34  0.023  0.000  0.018  0.042
   35  0.030  0.000  0.014  0.044
   36  0.012  0.002  0.018  0.033
   37  0.000  0.000  0.000  0.000
   38  0.000  0.000  0.000  0.000
tot    0.328  0.019  0.357  0.704
 
band     6 # energy   -5.77166044 # occ.  2.00000000
 
ion      s      p      d    tot
    1  0.000  0.000  0.008  0.008
    2  0.003  0.001  0.002  0.006
    3  0.000  0.000  0.003  0.003
    4  0.003  0.001  0.002  0.006
    5  0.000  0.001  0.005  0.006
    6  0.005  0.001  0.003  0.010
    7  0.000  0.000  0.003  0.003
    8  0.005  0.001  0.003  0.010
    9  0.000  0.000  0.001  0.001
   10  0.037  0.002  0.005  0.045
   11  0.011  0.003  0.019  0.033
   12  0.009  0.001  0.025  0.035
   13  0.011  0.003  0.019  0.033
   14  0.044  0.001  0.012  0.056
   15  0.000  0.002  0.007  0.009
   16  0.009  0.001  0.025  0.035
   17  0.000  0.002  0.007  0.009
   18  0.000  0.000  0.010  0.011
   19  0.003  0.003  0.006  0.012
   20  0.069  0.001  0.011  0.081
   21  0.017  0.002  0.035  0.054
   22  0.003  0.001  0.020  0.025
   23  0.017  0.002  0.035  0.054
   24  0.013  0.002  0.006  0.021
   25  0.014  0.000  0.014  0.027
   26  0.003  0.003  0.006  0.012
   27  0.003  0.001  0.020  0.025
   28  0.000  0.000  0.001  0.002
   29  0.007  0.001  0.005  0.013
   30  0.002  0.001  0.003  0.006
   31  0.007  0.001  0.005  0.013
   32  0.001  0.000  0.003  0.005
   33  0.002  0.001  0.003  0.006
   34  0.001  0.000  0.003  0.005
   35  0.000  0.000  0.004  0.004
   36  0.000  0.004  0.009  0.013
   37  0.000  0.000  0.000  0.000
   38  0.000  0.000  0.000  0.000
tot    0.304  0.044  0.346  0.695
 
band     7 # energy   -5.77161747 # occ.  2.00000000
 
ion      s      p      d    tot
    1  0.000  0.000  0.008  0.008
    2  0.003  0.001  0.003  0.007
    3  0.006  0.001  0.003  0.009
    4  0.003  0.001  0.003  0.007
    5  0.000  0.001  0.005  0.006
    6  0.000  0.000  0.002  0.003
    7  0.006  0.001  0.003  0.009
    8  0.000  0.000  0.002  0.003
    9  0.000  0.000  0.001  0.001
   10  0.000  0.000  0.032  0.032
   11  0.033  0.001  0.014  0.049
   12  0.028  0.002  0.012  0.041
   13  0.033  0.001  0.014  0.048
   14  0.000  0.004  0.021  0.025
   15  0.000  0.001  0.009  0.010
   16  0.028  0.002  0.012  0.041
   17  0.000  0.001  0.009  0.010
   18  0.000  0.003  0.006  0.008
   19  0.010  0.001  0.011  0.022
   20  0.000  0.002  0.043  0.045
   21  0.051  0.001  0.019  0.072
   22  0.010  0.001  0.011  0.022
   23  0.052  0.001  0.019  0.072
   24  0.000  0.001  0.025  0.026
   25  0.000  0.004  0.003  0.007
   26  0.010  0.001  0.011  0.022
   27  0.010  0.001  0.011  0.022
   28  0.000  0.000  0.001  0.002
   29  0.000  0.000  0.003  0.003
   30  0.005  0.001  0.004  0.010
   31  0.000  0.000  0.003  0.003
   32  0.005  0.001  0.004  0.011
   33  0.005  0.001  0.004  0.010
   34  0.005  0.001  0.004  0.011
   35  0.000  0.000  0.004  0.004
   36  0.000  0.004  0.009  0.013
   37  0.000  0.000  0.000  0.000
   38  0.000  0.000  0.000  0.000
tot    0.304  0.044  0.346  0.695
 
band     8 # energy   -5.73193022 # occ.  2.00000000
 
ion      s      p      d    tot
    1  0.012  0.000  0.017  0.028
    2  0.013  0.000  0.015  0.028
    3  0.013  0.000  0.015  0.028
    4  0.013  0.000  0.015  0.028
    5  0.006  0.000  0.015  0.021
    6  0.013  0.000  0.015  0.028
    7  0.013  0.000  0.015  0.028
    8  0.013  0.000  0.015  0.028
    9  0.024  0.000  0.010  0.034
   10  0.006  0.000  0.027  0.034
   11  0.019  0.001  0.019  0.040
   12  0.006  0.000  0.027  0.034
   13  0.019  0.001  0.019  0.040
   14  0.019  0.001  0.019  0.040
   15  0.000  0.000  0.029  0.029
   16  0.006  0.000  0.027  0.034
   17  0.000  0.000  0.029  0.029
   18  0.000  0.000  0.029  0.029
   19  0.007  0.000  0.009  0.016
   20  0.000  0.000  0.021  0.022
   21  0.000  0.000  0.021  0.022
   22  0.004  0.000  0.010  0.015
   23  0.000  0.000  0.021  0.022
   24  0.004  0.000  0.010  0.015
   25  0.007  0.000  0.009  0.016
   26  0.007  0.000  0.009  0.016
   27  0.004  0.000  0.010  0.015
   28  0.000  0.000  0.003  0.003
   29  0.001  0.000  0.003  0.004
   30  0.001  0.000  0.003  0.004
   31  0.001  0.000  0.003  0.004
   32  0.001  0.000  0.003  0.004
   33  0.001  0.000  0.003  0.004
   34  0.001  0.000  0.003  0.004
   35  0.000  0.000  0.001  0.002
   36  0.004  0.000  0.003  0.007
   37  0.000  0.000  0.000  0.001
   38  0.000  0.000  0.000  0.000
tot    0.240  0.010  0.499  0.749
 
band     9 # energy   -5.72575074 # occ.  2.00000000
 
ion      s      p      d    tot
    1  0.011  0.000  0.001  0.012
    2  0.004  0.000  0.008  0.013
    3  0.004  0.000  0.008  0.013
    4  0.004  0.000  0.008  0.013
    5  0.017  0.000  0.003  0.021
    6  0.004  0.000  0.008  0.013
    7  0.004  0.000  0.008  0.013
    8  0.004  0.000  0.008  0.013
    9  0.001  0.002  0.010  0.013
   10  0.000  0.001  0.028  0.028
   11  0.005  0.003  0.011  0.019
   12  0.000  0.001  0.028  0.028
   13  0.005  0.003  0.011  0.019
   14  0.006  0.003  0.011  0.019
   15  0.034  0.002  0.010  0.046
   16  0.000  0.001  0.028  0.028
   17  0.034  0.002  0.010  0.046
   18  0.035  0.002  0.010  0.046
   19  0.004  0.000  0.021  0.026
   20  0.021  0.001  0.010  0.032
   21  0.021  0.001  0.010  0.032
   22  0.011  0.003  0.006  0.019
   23  0.021  0.001  0.010  0.032
   24  0.011  0.003  0.006  0.019
   25  0.004  0.000  0.021  0.026
   26  0.004  0.000  0.021  0.026
   27  0.011  0.003  0.006  0.019
   28  0.000  0.000  0.003  0.003
   29  0.001  0.000  0.005  0.006
   30  0.001  0.000  0.005  0.006
   31  0.001  0.000  0.005  0.006
   32  0.001  0.000  0.005  0.006
   33  0.001  0.000  0.005  0.006
   34  0.001  0.000  0.005  0.006
   35  0.000  0.000  0.000  0.001
   36  0.009  0.009  0.004  0.021
   37  0.001  0.010  0.000  0.011
   38  0.003  0.000  0.000  0.003
tot    0.301  0.054  0.359  0.713
 
band    10 # energy   -5.70988178 # occ.  2.00000000
 
ion      s      p      d    tot
    1  0.012  0.002  0.001  0.015
    2  0.000  0.001  0.005  0.006
    3  0.000  0.001  0.005  0.006
    4  0.000  0.001  0.005  0.006
    5  0.010  0.001  0.001  0.012
    6  0.000  0.001  0.005  0.006
    7  0.000  0.001  0.005  0.006
    8  0.000  0.001  0.005  0.006
    9  0.000  0.000  0.000  0.001
   10  0.028  0.003  0.003  0.033
   11  0.013  0.000  0.026  0.039
   12  0.028  0.003  0.003  0.033
   13  0.013  0.000  0.026  0.039
   14  0.013  0.000  0.025  0.039
   15  0.002  0.002  0.015  0.019
   16  0.028  0.003  0.003  0.033
   17  0.002  0.002  0.015  0.019
   18  0.002  0.002  0.015  0.019
   19  0.019  0.003  0.004  0.026
   20  0.001  0.002  0.029  0.032
   21  0.001  0.002  0.029  0.032
   22  0.020  0.000  0.021  0.041
   23  0.001  0.002  0.029  0.032
   24  0.019  0.000  0.021  0.041
   25  0.018  0.003  0.004  0.025
   26  0.019  0.003  0.004  0.026
   27  0.020  0.000  0.021  0.041
   28  0.015  0.001  0.000  0.016
   29  0.001  0.000  0.005  0.006
   30  0.001  0.000  0.005  0.006
   31  0.001  0.000  0.005  0.006
   32  0.001  0.000  0.005  0.006
   33  0.001  0.000  0.005  0.006
   34  0.001  0.000  0.005  0.006
   35  0.003  0.001  0.005  0.009
   36  0.000  0.000  0.000  0.001
   37  0.000  0.001  0.000  0.002
   38  0.000  0.000  0.000  0.000
tot    0.294  0.040  0.363  0.698
 
band    11 # energy   -5.67852147 # occ.  2.00000000
 
ion      s      p      d    tot
    1  0.000  0.001  0.003  0.003
    2  0.004  0.001  0.003  0.008
    3  0.000  0.000  0.003  0.004
    4  0.005  0.001  0.003  0.009
    5  0.000  0.000  0.005  0.005
    6  0.007  0.001  0.004  0.013
    7  0.000  0.000  0.004  0.004
    8  0.007  0.001  0.004  0.013
    9  0.000  0.001  0.010  0.012
   10  0.000  0.005  0.003  0.008
   11  0.009  0.001  0.011  0.022
   12  0.015  0.001  0.013  0.030
   13  0.009  0.001  0.012  0.022
   14  0.000  0.001  0.027  0.028
   15  0.047  0.001  0.014  0.063
   16  0.016  0.001  0.013  0.030
   17  0.046  0.001  0.015  0.062
   18  0.000  0.001  0.039  0.040
   19  0.029  0.002  0.011  0.042
   20  0.000  0.003  0.010  0.013
   21  0.000  0.001  0.014  0.016
   22  0.029  0.001  0.013  0.043
   23  0.000  0.001  0.015  0.016
   24  0.000  0.004  0.018  0.021
   25  0.000  0.000  0.037  0.037
   26  0.028  0.002  0.012  0.042
   27  0.030  0.001  0.012  0.043
   28  0.000  0.000  0.007  0.007
   29  0.005  0.001  0.002  0.008
   30  0.003  0.001  0.003  0.006
   31  0.005  0.001  0.002  0.008
   32  0.000  0.000  0.002  0.002
   33  0.003  0.000  0.003  0.006
   34  0.000  0.000  0.002  0.002
   35  0.000  0.001  0.004  0.005
   36  0.000  0.000  0.001  0.001
   37  0.000  0.000  0.000  0.000
   38  0.000  0.000  0.000  0.000
tot    0.297  0.041  0.354  0.693
 
band    12 # energy   -5.67849769 # occ.  2.00000000
 
ion      s      p      d    tot
    1  0.000  0.001  0.003  0.003
    2  0.004  0.001  0.004  0.009
    3  0.008  0.001  0.004  0.013
    4  0.004  0.001  0.004  0.008
    5  0.000  0.000  0.005  0.005
    6  0.001  0.000  0.003  0.004
    7  0.008  0.001  0.004  0.013
    8  0.001  0.000  0.003  0.004
    9  0.000  0.001  0.010  0.012
   10  0.021  0.000  0.017  0.037
   11  0.003  0.001  0.022  0.026
   12  0.005  0.003  0.007  0.016
   13  0.003  0.001  0.022  0.026
   14  0.012  0.001  0.007  0.020
   15  0.015  0.001  0.031  0.047
   16  0.005  0.004  0.006  0.015
   17  0.016  0.001  0.030  0.048
   18  0.062  0.002  0.006  0.069
   19  0.009  0.001  0.029  0.039
   20  0.000  0.001  0.016  0.016
   21  0.000  0.002  0.012  0.014
   22  0.010  0.003  0.016  0.029
   23  0.000  0.002  0.012  0.014
   24  0.039  0.001  0.011  0.051
   25  0.038  0.002  0.003  0.043
   26  0.010  0.001  0.028  0.039
   27  0.009  0.003  0.016  0.028
   28  0.000  0.000  0.007  0.007
   29  0.000  0.000  0.002  0.003
   30  0.002  0.000  0.002  0.005
   31  0.000  0.000  0.002  0.003
   32  0.005  0.001  0.003  0.008
   33  0.002  0.000  0.002  0.005
   34  0.005  0.001  0.003  0.008
   35  0.000  0.001  0.004  0.005
   36  0.000  0.000  0.001  0.001
   37  0.000  0.000  0.000  0.000
   38  0.000  0.000  0.000  0.000
tot    0.297  0.041  0.355  0.693
 
band    13 # energy   -5.29259797 # occ.  2.00000000
 
ion      s      p      d    tot
    1  0.000  0.001  0.004  0.005
    2  0.001  0.001  0.005  0.006
    3  0.009  0.001  0.004  0.014
    4  0.001  0.001  0.005  0.006
    5  0.000  0.001  0.009  0.011
    6  0.004  0.001  0.003  0.008
    7  0.009  0.001  0.004  0.014
    8  0.004  0.001  0.003  0.008
    9  0.000  0.000  0.007  0.007
   10  0.000  0.001  0.051  0.051
   11  0.018  0.001  0.019  0.038
   12  0.008  0.001  0.018  0.027
   13  0.018  0.001  0.019  0.038
   14  0.000  0.000  0.045  0.045
   15  0.002  0.000  0.018  0.020
   16  0.008  0.001  0.018  0.027
   17  0.002  0.000  0.018  0.020
   18  0.000  0.001  0.011  0.012
   19  0.003  0.000  0.018  0.022
   20  0.000  0.000  0.091  0.091
   21  0.014  0.001  0.028  0.043
   22  0.003  0.001  0.019  0.023
   23  0.014  0.001  0.028  0.043
   24  0.000  0.001  0.029  0.029
   25  0.000  0.001  0.011  0.012
   26  0.003  0.000  0.018  0.022
   27  0.003  0.001  0.019  0.023
   28  0.000  0.000  0.009  0.009
   29  0.004  0.001  0.006  0.011
   30  0.009  0.001  0.005  0.016
   31  0.004  0.001  0.006  0.011
   32  0.001  0.000  0.004  0.005
   33  0.009  0.001  0.005  0.016
   34  0.001  0.000  0.004  0.005
   35  0.000  0.000  0.002  0.003
   36  0.000  0.004  0.007  0.012
   37  0.000  0.000  0.000  0.000
   38  0.000  0.000  0.000  0.000
tot    0.151  0.031  0.571  0.753
 
band    14 # energy   -5.29254418 # occ.  2.00000000
 
ion      s      p      d    tot
    1  0.000  0.001  0.004  0.005
    2  0.008  0.001  0.004  0.013
    3  0.000  0.000  0.004  0.005
    4  0.008  0.001  0.004  0.013
    5  0.000  0.001  0.009  0.011
    6  0.005  0.001  0.005  0.011
    7  0.000  0.000  0.004  0.005
    8  0.005  0.001  0.005  0.011
    9  0.000  0.000  0.007  0.007
   10  0.011  0.002  0.007  0.019
   11  0.006  0.000  0.036  0.043
   12  0.003  0.001  0.040  0.043
   13  0.006  0.000  0.036  0.043
   14  0.024  0.001  0.011  0.036
   15  0.001  0.001  0.013  0.015
   16  0.003  0.001  0.040  0.043
   17  0.001  0.001  0.013  0.015
   18  0.002  0.000  0.021  0.023
   19  0.001  0.001  0.013  0.015
   20  0.018  0.001  0.007  0.027
   21  0.005  0.000  0.070  0.075
   22  0.001  0.001  0.025  0.027
   23  0.005  0.000  0.070  0.075
   24  0.004  0.002  0.015  0.021
   25  0.004  0.000  0.020  0.025
   26  0.001  0.001  0.013  0.015
   27  0.001  0.001  0.025  0.027
   28  0.000  0.000  0.009  0.009
   29  0.005  0.001  0.004  0.011
   30  0.000  0.000  0.005  0.005
   31  0.005  0.001  0.004  0.011
   32  0.008  0.001  0.006  0.016
   33  0.000  0.000  0.005  0.005
   34  0.008  0.001  0.006  0.016
   35  0.000  0.000  0.002  0.003
   36  0.000  0.004  0.007  0.012
   37  0.000  0.000  0.000  0.000
   38  0.000  0.000  0.000  0.000
tot    0.151  0.031  0.571  0.753
 
band    15 # energy   -5.27562727 # occ.  2.00000000
 
ion      s      p      d    tot
    1  0.014  0.002  0.002  0.018
    2  0.000  0.001  0.007  0.007
    3  0.000  0.001  0.007  0.007
    4  0.000  0.001  0.007  0.007
    5  0.000  0.000  0.002  0.002
    6  0.000  0.001  0.007  0.007
    7  0.000  0.001  0.007  0.007
    8  0.000  0.001  0.007  0.007
    9  0.013  0.001  0.000  0.014
   10  0.010  0.001  0.012  0.024
   11  0.003  0.000  0.043  0.047
   12  0.010  0.001  0.012  0.024
   13  0.003  0.000  0.043  0.047
   14  0.003  0.000  0.043  0.047
   15  0.003  0.001  0.020  0.024
   16  0.010  0.001  0.012  0.024
   17  0.003  0.001  0.020  0.024
   18  0.003  0.001  0.020  0.024
   19  0.004  0.001  0.011  0.016
   20  0.001  0.000  0.060  0.061
   21  0.000  0.000  0.060  0.061
   22  0.010  0.001  0.019  0.030
   23  0.000  0.000  0.060  0.061
   24  0.010  0.001  0.019  0.030
   25  0.004  0.001  0.011  0.016
   26  0.004  0.001  0.011  0.016
   27  0.010  0.001  0.019  0.030
   28  0.016  0.001  0.000  0.017
   29  0.000  0.000  0.008  0.008
   30  0.000  0.000  0.008  0.008
   31  0.000  0.000  0.008  0.008
   32  0.000  0.000  0.008  0.008
   33  0.000  0.000  0.008  0.008
   34  0.000  0.000  0.008  0.008
   35  0.004  0.001  0.003  0.008
   36  0.002  0.000  0.001  0.003
   37  0.000  0.000  0.000  0.000
   38  0.000  0.000  0.000  0.000
tot    0.141  0.025  0.593  0.760
 
band    16 # energy   -5.21787290 # occ.  2.00000000
 
ion      s      p      d    tot
    1  0.004  0.000  0.001  0.005
    2  0.000  0.001  0.008  0.009
    3  0.000  0.001  0.008  0.009
    4  0.000  0.001  0.008  0.009
    5  0.019  0.002  0.000  0.021
    6  0.000  0.001  0.008  0.009
    7  0.000  0.001  0.008  0.009
    8  0.000  0.001  0.008  0.009
    9  0.005  0.001  0.002  0.009
   10  0.000  0.000  0.042  0.043
   11  0.007  0.002  0.010  0.018
   12  0.000  0.000  0.042  0.043
   13  0.007  0.002  0.010  0.018
   14  0.007  0.002  0.010  0.018
   15  0.010  0.001  0.023  0.034
   16  0.000  0.000  0.042  0.043
   17  0.010  0.001  0.023  0.034
   18  0.010  0.001  0.023  0.034
   19  0.009  0.001  0.035  0.044
   20  0.009  0.002  0.010  0.020
   21  0.009  0.002  0.010  0.020
   22  0.001  0.000  0.033  0.034
   23  0.009  0.002  0.010  0.020
   24  0.000  0.000  0.033  0.034
   25  0.009  0.001  0.035  0.045
   26  0.009  0.001  0.035  0.044
   27  0.001  0.000  0.033  0.034
   28  0.001  0.001  0.003  0.005
   29  0.000  0.001  0.008  0.009
   30  0.000  0.001  0.008  0.009
   31  0.000  0.001  0.008  0.009
   32  0.000  0.001  0.008  0.009
   33  0.000  0.001  0.008  0.009
   34  0.000  0.001  0.008  0.009
   35  0.006  0.000  0.000  0.006
   36  0.012  0.010  0.002  0.024
   37  0.001  0.006  0.000  0.007
   38  0.002  0.000  0.000  0.002
tot    0.155  0.046  0.565  0.766
 
band    17 # energy   -5.20011301 # occ.  2.00000000
 
ion      s      p      d    tot
    1  0.000  0.001  0.013  0.014
    2  0.009  0.001  0.004  0.014
    3  0.001  0.000  0.005  0.006
    4  0.009  0.001  0.004  0.014
    5  0.000  0.000  0.005  0.005
    6  0.004  0.001  0.005  0.010
    7  0.001  0.000  0.005  0.006
    8  0.004  0.001  0.005  0.010
    9  0.000  0.001  0.006  0.007
   10  0.000  0.001  0.030  0.030
   11  0.000  0.001  0.019  0.021
   12  0.009  0.000  0.021  0.030
   13  0.000  0.001  0.019  0.021
   14  0.000  0.001  0.017  0.018
   15  0.011  0.002  0.019  0.032
   16  0.009  0.000  0.021  0.030
   17  0.011  0.002  0.019  0.032
   18  0.000  0.000  0.061  0.061
   19  0.013  0.001  0.019  0.033
   20  0.000  0.002  0.021  0.023
   21  0.000  0.001  0.025  0.026
   22  0.016  0.001  0.019  0.036
   23  0.000  0.001  0.025  0.026
   24  0.000  0.000  0.031  0.031
   25  0.000  0.000  0.065  0.065
   26  0.013  0.001  0.019  0.033
   27  0.016  0.001  0.019  0.036
   28  0.000  0.001  0.005  0.006
   29  0.006  0.001  0.004  0.011
   30  0.000  0.000  0.006  0.007
   31  0.006  0.001  0.004  0.011
   32  0.006  0.001  0.003  0.010
   33  0.000  0.000  0.006  0.007
   34  0.006  0.001  0.003  0.010
   35  0.000  0.001  0.009  0.010
   36  0.000  0.000  0.003  0.003
   37  0.000  0.000  0.000  0.000
   38  0.000  0.000  0.000  0.000
tot    0.151  0.029  0.568  0.748
 
band    18 # energy   -5.20008995 # occ.  2.00000000
 
ion      s      p      d    tot
    1  0.000  0.001  0.013  0.014
    2  0.000  0.001  0.005  0.006
    3  0.009  0.001  0.004  0.014
    4  0.000  0.001  0.005  0.006
    5  0.000  0.000  0.005  0.005
    6  0.005  0.001  0.004  0.010
    7  0.009  0.001  0.004  0.014
    8  0.005  0.001  0.004  0.010
    9  0.000  0.001  0.006  0.007
   10  0.012  0.000  0.018  0.030
   11  0.000  0.001  0.018  0.019
   12  0.003  0.001  0.027  0.030
   13  0.000  0.001  0.018  0.019
   14  0.000  0.001  0.020  0.021
   15  0.004  0.001  0.047  0.051
   16  0.003  0.001  0.027  0.030
   17  0.004  0.001  0.047  0.051
   18  0.015  0.002  0.005  0.022
   19  0.004  0.001  0.049  0.054
   20  0.000  0.000  0.027  0.027
   21  0.000  0.001  0.023  0.024
   22  0.005  0.001  0.027  0.033
   23  0.000  0.001  0.023  0.024
   24  0.022  0.001  0.016  0.038
   25  0.017  0.001  0.004  0.023
   26  0.004  0.001  0.050  0.054
   27  0.005  0.001  0.027  0.033
   28  0.000  0.001  0.005  0.006
   29  0.002  0.000  0.005  0.007
   30  0.008  0.001  0.003  0.012
   31  0.002  0.000  0.005  0.007
   32  0.002  0.001  0.006  0.009
   33  0.008  0.001  0.003  0.012
   34  0.002  0.001  0.006  0.009
   35  0.000  0.001  0.009  0.010
   36  0.000  0.000  0.003  0.003
   37  0.000  0.000  0.000  0.000
   38  0.000  0.000  0.000  0.000
tot    0.151  0.029  0.568  0.748
 
band    19 # energy   -4.91355834 # occ.  2.00000000
 
ion      s      p      d    tot
    1  0.000  0.000  0.017  0.017
    2  0.002  0.001  0.006  0.009
    3  0.002  0.000  0.010  0.011
    4  0.002  0.001  0.006  0.009
    5  0.000  0.001  0.015  0.016
    6  0.008  0.001  0.007  0.016
    7  0.002  0.000  0.010  0.011
    8  0.008  0.001  0.007  0.016
    9  0.000  0.001  0.004  0.004
   10  0.000  0.000  0.020  0.020
   11  0.000  0.000  0.044  0.044
   12  0.000  0.000  0.012  0.012
   13  0.000  0.000  0.044  0.044
   14  0.001  0.000  0.045  0.046
   15  0.000  0.000  0.008  0.009
   16  0.000  0.000  0.012  0.012
   17  0.000  0.000  0.008  0.009
   18  0.001  0.000  0.016  0.017
   19  0.000  0.000  0.010  0.010
   20  0.001  0.001  0.094  0.096
   21  0.000  0.001  0.062  0.063
   22  0.000  0.000  0.022  0.022
   23  0.000  0.001  0.062  0.063
   24  0.001  0.000  0.017  0.019
   25  0.000  0.000  0.016  0.017
   26  0.000  0.000  0.010  0.010
   27  0.000  0.000  0.022  0.022
   28  0.000  0.001  0.005  0.006
   29  0.013  0.001  0.022  0.036
   30  0.002  0.000  0.015  0.018
   31  0.013  0.001  0.022  0.036
   32  0.004  0.001  0.010  0.014
   33  0.002  0.000  0.015  0.018
   34  0.004  0.001  0.010  0.014
   35  0.000  0.000  0.027  0.027
   36  0.000  0.004  0.011  0.016
   37  0.000  0.000  0.000  0.000
   38  0.000  0.000  0.000  0.000
tot    0.067  0.019  0.743  0.829
 
band    20 # energy   -4.91352690 # occ.  2.00000000
 
ion      s      p      d    tot
    1  0.000  0.000  0.017  0.017
    2  0.005  0.000  0.009  0.015
    3  0.006  0.001  0.006  0.013
    4  0.006  0.000  0.009  0.015
    5  0.000  0.001  0.015  0.016
    6  0.000  0.000  0.008  0.008
    7  0.006  0.001  0.006  0.013
    8  0.000  0.000  0.008  0.008
    9  0.000  0.001  0.004  0.004
   10  0.000  0.000  0.010  0.010
   11  0.001  0.000  0.045  0.046
   12  0.000  0.000  0.017  0.017
   13  0.001  0.000  0.045  0.046
   14  0.000  0.000  0.043  0.043
   15  0.000  0.000  0.014  0.014
   16  0.000  0.000  0.017  0.017
   17  0.000  0.000  0.014  0.014
   18  0.000  0.000  0.006  0.006
   19  0.000  0.000  0.014  0.014
   20  0.000  0.001  0.052  0.053
   21  0.001  0.001  0.083  0.085
   22  0.001  0.000  0.019  0.020
   23  0.001  0.001  0.083  0.085
   24  0.000  0.000  0.023  0.024
   25  0.000  0.000  0.007  0.007
   26  0.000  0.000  0.014  0.014
   27  0.001  0.000  0.019  0.020
   28  0.000  0.001  0.005  0.006
   29  0.000  0.000  0.009  0.009
   30  0.010  0.001  0.016  0.027
   31  0.000  0.000  0.009  0.009
   32  0.009  0.001  0.021  0.031
   33  0.010  0.001  0.016  0.027
   34  0.008  0.001  0.021  0.031
   35  0.000  0.000  0.027  0.027
   36  0.000  0.004  0.011  0.016
   37  0.000  0.000  0.000  0.000
   38  0.000  0.000  0.000  0.000
tot    0.067  0.019  0.743  0.829
 
band    21 # energy   -4.91027410 # occ.  2.00000000
 
ion      s      p      d    tot
    1  0.010  0.000  0.005  0.015
    2  0.000  0.001  0.012  0.013
    3  0.000  0.001  0.012  0.013
    4  0.000  0.001  0.012  0.013
    5  0.001  0.000  0.004  0.006
    6  0.000  0.001  0.012  0.013
    7  0.000  0.001  0.012  0.013
    8  0.000  0.001  0.012  0.013
    9  0.018  0.001  0.001  0.020
   10  0.001  0.000  0.019  0.020
   11  0.000  0.000  0.027  0.028
   12  0.001  0.000  0.019  0.020
   13  0.000  0.000  0.027  0.028
   14  0.000  0.000  0.027  0.028
   15  0.000  0.000  0.027  0.027
   16  0.001  0.000  0.019  0.020