PROCAR new format
# of k-points:   10         # of bands:  252         # of ions:   37

 k-point     1 :    0.00000000 0.00000000 0.00000000     weight = 0.01562500

band     1 # energy  -14.64475578 # occ.  2.00000000
 
ion      s      p      d    tot
    1  0.000  0.000  0.000  0.000
    2  0.000  0.000  0.000  0.000
    3  0.000  0.000  0.000  0.000
    4  0.000  0.000  0.000  0.000
    5  0.000  0.000  0.000  0.000
    6  0.000  0.000  0.000  0.000
    7  0.000  0.000  0.000  0.000
    8  0.000  0.000  0.000  0.000
    9  0.000  0.000  0.000  0.000
   10  0.000  0.000  0.000  0.000
   11  0.000  0.000  0.000  0.000
   12  0.000  0.000  0.000  0.000
   13  0.000  0.000  0.000  0.000
   14  0.000  0.000  0.000  0.000
   15  0.000  0.000  0.000  0.000
   16  0.000  0.000  0.000  0.000
   17  0.000  0.000  0.000  0.000
   18  0.000  0.000  0.000  0.000
   19  0.000  0.000  0.000  0.000
   20  0.000  0.000  0.000  0.001
   21  0.000  0.000  0.000  0.001
   22  0.000  0.000  0.000  0.000
   23  0.000  0.000  0.000  0.001
   24  0.000  0.000  0.000  0.000
   25  0.000  0.000  0.000  0.000
   26  0.000  0.000  0.000  0.000
   27  0.000  0.000  0.000  0.000
   28  0.000  0.000  0.000  0.000
   29  0.000  0.000  0.000  0.000
   30  0.000  0.000  0.000  0.000
   31  0.000  0.000  0.000  0.000
   32  0.000  0.000  0.000  0.000
   33  0.000  0.000  0.000  0.000
   34  0.000  0.000  0.000  0.000
   35  0.000  0.000  0.000  0.000
   36  0.086  0.066  0.172  0.324
   37  0.594  0.031  0.000  0.624
tot    0.682  0.098  0.173  0.952
 
band     2 # energy   -8.73073864 # occ.  2.00000000
 
ion      s      p      d    tot
    1  0.006  0.001  0.000  0.007
    2  0.006  0.001  0.000  0.007
    3  0.006  0.001  0.000  0.007
    4  0.006  0.001  0.000  0.007
    5  0.006  0.001  0.000  0.007
    6  0.006  0.001  0.000  0.007
    7  0.006  0.001  0.000  0.007
    8  0.006  0.001  0.000  0.007
    9  0.006  0.001  0.000  0.007
   10  0.023  0.000  0.000  0.023
   11  0.023  0.000  0.000  0.024
   12  0.023  0.000  0.000  0.023
   13  0.023  0.000  0.000  0.024
   14  0.023  0.000  0.000  0.024
   15  0.023  0.000  0.000  0.023
   16  0.023  0.000  0.000  0.023
   17  0.023  0.000  0.000  0.023
   18  0.023  0.000  0.000  0.023
   19  0.024  0.000  0.000  0.025
   20  0.027  0.000  0.000  0.027
   21  0.027  0.000  0.000  0.027
   22  0.025  0.000  0.000  0.025
   23  0.027  0.000  0.000  0.027
   24  0.025  0.000  0.000  0.025
   25  0.024  0.000  0.000  0.025
   26  0.024  0.000  0.000  0.025
   27  0.025  0.000  0.000  0.025
   28  0.007  0.001  0.000  0.008
   29  0.008  0.001  0.000  0.009
   30  0.008  0.001  0.000  0.009
   31  0.008  0.001  0.000  0.009
   32  0.008  0.001  0.000  0.009
   33  0.008  0.001  0.000  0.009
   34  0.008  0.001  0.000  0.009
   35  0.007  0.001  0.000  0.008
   36  0.015  0.004  0.001  0.019
   37  0.002  0.000  0.000  0.002
tot    0.567  0.019  0.002  0.588
 
band     3 # energy   -7.48666068 # occ.  2.00000000
 
ion      s      p      d    tot
    1  0.017  0.001  0.000  0.019
    2  0.017  0.001  0.000  0.018
    3  0.017  0.001  0.000  0.018
    4  0.017  0.001  0.000  0.018
    5  0.017  0.001  0.000  0.018
    6  0.017  0.001  0.000  0.018
    7  0.017  0.001  0.000  0.018
    8  0.017  0.001  0.000  0.018
    9  0.017  0.001  0.000  0.019
   10  0.012  0.002  0.001  0.014
   11  0.011  0.002  0.001  0.014
   12  0.012  0.002  0.001  0.014
   13  0.011  0.002  0.001  0.014
   14  0.011  0.002  0.001  0.014
   15  0.012  0.002  0.001  0.014
   16  0.012  0.002  0.001  0.014
   17  0.012  0.002  0.001  0.014
   18  0.012  0.002  0.001  0.014
   19  0.007  0.002  0.000  0.010
   20  0.008  0.003  0.000  0.011
   21  0.008  0.003  0.000  0.011
   22  0.007  0.002  0.000  0.010
   23  0.008  0.003  0.000  0.011
   24  0.007  0.002  0.000  0.010
   25  0.007  0.002  0.000  0.010
   26  0.007  0.002  0.000  0.010
   27  0.007  0.002  0.000  0.010
   28  0.016  0.001  0.001  0.017
   29  0.019  0.001  0.001  0.021
   30  0.019  0.001  0.001  0.021
   31  0.019  0.001  0.001  0.021
   32  0.019  0.001  0.001  0.021
   33  0.019  0.001  0.001  0.021
   34  0.019  0.001  0.001  0.021
   35  0.016  0.001  0.001  0.017
   36  0.037  0.003  0.013  0.053
   37  0.003  0.000  0.000  0.003
tot    0.513  0.056  0.031  0.600
 
band     4 # energy   -6.03887915 # occ.  2.00000000
 
ion      s      p      d    tot
    1  0.011  0.000  0.003  0.014
    2  0.011  0.000  0.003  0.014
    3  0.011  0.000  0.003  0.014
    4  0.011  0.000  0.003  0.014
    5  0.007  0.000  0.003  0.010
    6  0.011  0.000  0.003  0.014
    7  0.011  0.000  0.003  0.014
    8  0.011  0.000  0.003  0.014
    9  0.016  0.000  0.002  0.018
   10  0.001  0.003  0.001  0.005
   11  0.004  0.004  0.000  0.008
   12  0.001  0.003  0.001  0.005
   13  0.004  0.004  0.000  0.008
   14  0.004  0.004  0.000  0.008
   15  0.000  0.002  0.001  0.003
   16  0.001  0.003  0.001  0.005
   17  0.000  0.002  0.001  0.003
   18  0.000  0.002  0.001  0.003
   19  0.003  0.002  0.004  0.009
   20  0.019  0.003  0.010  0.033
   21  0.019  0.003  0.010  0.032
   22  0.002  0.002  0.004  0.007
   23  0.019  0.003  0.010  0.032
   24  0.002  0.002  0.004  0.007
   25  0.003  0.002  0.004  0.009
   26  0.003  0.002  0.004  0.009
   27  0.002  0.002  0.004  0.007
   28  0.010  0.000  0.004  0.014
   29  0.015  0.000  0.008  0.023
   30  0.015  0.000  0.008  0.023
   31  0.015  0.000  0.008  0.023
   32  0.015  0.000  0.008  0.023
   33  0.015  0.000  0.008  0.023
   34  0.015  0.000  0.008  0.023
   35  0.013  0.000  0.004  0.017
   36  0.008  0.002  0.164  0.174
   37  0.006  0.028  0.000  0.034
tot    0.313  0.080  0.304  0.697
 
band     5 # energy   -5.87706136 # occ.  2.00000000
 
ion      s      p      d    tot
    1  0.000  0.001  0.003  0.004
    2  0.004  0.001  0.001  0.007
    3  0.000  0.000  0.001  0.002
    4  0.004  0.001  0.001  0.006
    5  0.000  0.001  0.002  0.003
    6  0.003  0.001  0.001  0.005
    7  0.000  0.000  0.001  0.002
    8  0.003  0.001  0.001  0.005
    9  0.000  0.000  0.001  0.001
   10  0.032  0.004  0.003  0.038
   11  0.007  0.006  0.005  0.017
   12  0.008  0.001  0.007  0.016
   13  0.006  0.006  0.005  0.017
   14  0.025  0.001  0.004  0.030
   15  0.000  0.004  0.003  0.007
   16  0.008  0.001  0.007  0.016
   17  0.000  0.004  0.003  0.007
   18  0.000  0.001  0.002  0.004
   19  0.003  0.008  0.002  0.013
   20  0.073  0.002  0.012  0.086
   21  0.017  0.004  0.016  0.037
   22  0.004  0.003  0.009  0.015
   23  0.019  0.004  0.015  0.039
   24  0.016  0.004  0.002  0.022
   25  0.011  0.000  0.005  0.016
   26  0.002  0.009  0.002  0.013
   27  0.004  0.003  0.008  0.015
   28  0.000  0.001  0.002  0.004
   29  0.008  0.004  0.007  0.019
   30  0.001  0.001  0.003  0.005
   31  0.008  0.004  0.007  0.019
   32  0.003  0.002  0.007  0.011
   33  0.002  0.001  0.003  0.005
   34  0.003  0.002  0.007  0.012
   35  0.000  0.000  0.003  0.003
   36  0.000  0.004  0.151  0.154
   37  0.000  0.022  0.000  0.022
tot    0.275  0.112  0.308  0.696
 
band     6 # energy   -5.87699912 # occ.  2.00000000
 
ion      s      p      d    tot
    1  0.000  0.001  0.003  0.004
    2  0.000  0.000  0.001  0.002
    3  0.005  0.001  0.001  0.007
    4  0.001  0.001  0.001  0.002
    5  0.000  0.001  0.002  0.003
    6  0.002  0.001  0.001  0.004
    7  0.005  0.001  0.001  0.007
    8  0.002  0.001  0.001  0.004
    9  0.000  0.000  0.001  0.001
   10  0.000  0.000  0.008  0.009
   11  0.019  0.003  0.004  0.026
   12  0.024  0.003  0.004  0.031
   13  0.019  0.003  0.004  0.026
   14  0.000  0.008  0.005  0.013
   15  0.000  0.002  0.003  0.005
   16  0.023  0.003  0.004  0.030
   17  0.000  0.002  0.003  0.005
   18  0.000  0.005  0.004  0.009
   19  0.008  0.003  0.004  0.015
   20  0.000  0.005  0.017  0.022
   21  0.056  0.002  0.013  0.071
   22  0.012  0.003  0.004  0.020
   23  0.054  0.003  0.013  0.069
   24  0.000  0.002  0.011  0.013
   25  0.000  0.011  0.001  0.012
   26  0.008  0.003  0.004  0.015
   27  0.012  0.003  0.004  0.020
   28  0.000  0.001  0.002  0.004
   29  0.000  0.001  0.004  0.005
   30  0.007  0.004  0.008  0.019
   31  0.000  0.001  0.004  0.005
   32  0.006  0.002  0.004  0.012
   33  0.007  0.004  0.008  0.019
   34  0.005  0.002  0.004  0.012
   35  0.000  0.000  0.003  0.003
   36  0.000  0.004  0.151  0.154
   37  0.000  0.022  0.000  0.022
tot    0.275  0.112  0.308  0.696
 
band     7 # energy   -5.82420351 # occ.  2.00000000
 
ion      s      p      d    tot
    1  0.001  0.000  0.001  0.001
    2  0.002  0.001  0.003  0.006
    3  0.002  0.001  0.003  0.006
    4  0.002  0.001  0.003  0.006
    5  0.021  0.002  0.000  0.023
    6  0.002  0.001  0.003  0.006
    7  0.002  0.001  0.003  0.006
    8  0.002  0.001  0.003  0.006
    9  0.001  0.001  0.003  0.004
   10  0.002  0.003  0.006  0.010
   11  0.012  0.006  0.003  0.021
   12  0.001  0.003  0.006  0.010
   13  0.012  0.006  0.003  0.021
   14  0.012  0.006  0.003  0.021
   15  0.017  0.002  0.005  0.025
   16  0.001  0.003  0.006  0.010
   17  0.017  0.002  0.005  0.025
   18  0.017  0.002  0.005  0.025
   19  0.015  0.000  0.010  0.025
   20  0.022  0.009  0.007  0.038
   21  0.022  0.009  0.007  0.038
   22  0.013  0.007  0.003  0.023
   23  0.022  0.009  0.007  0.038
   24  0.013  0.007  0.003  0.023
   25  0.015  0.000  0.010  0.025
   26  0.015  0.000  0.010  0.025
   27  0.013  0.007  0.003  0.023
   28  0.002  0.001  0.002  0.005
   29  0.001  0.002  0.006  0.010
   30  0.001  0.002  0.006  0.010
   31  0.001  0.002  0.006  0.010
   32  0.001  0.002  0.006  0.010
   33  0.001  0.002  0.006  0.010
   34  0.001  0.002  0.006  0.010
   35  0.004  0.001  0.001  0.007
   36  0.076  0.011  0.002  0.088
   37  0.011  0.013  0.000  0.024
tot    0.378  0.128  0.166  0.672
 
band     8 # energy   -5.72594500 # occ.  2.00000000
 
ion      s      p      d    tot
    1  0.000  0.001  0.002  0.004
    2  0.007  0.002  0.002  0.011
    3  0.000  0.001  0.002  0.003
    4  0.007  0.002  0.002  0.011
    5  0.000  0.000  0.003  0.003
    6  0.005  0.001  0.002  0.008
    7  0.000  0.001  0.002  0.003
    8  0.005  0.002  0.002  0.008
    9  0.000  0.003  0.005  0.007
   10  0.000  0.011  0.002  0.013
   11  0.012  0.003  0.004  0.019
   12  0.008  0.003  0.004  0.015
   13  0.012  0.003  0.004  0.020
   14  0.000  0.002  0.010  0.012
   15  0.039  0.003  0.006  0.048
   16  0.008  0.003  0.004  0.015
   17  0.040  0.003  0.006  0.049
   18  0.000  0.004  0.011  0.015
   19  0.038  0.003  0.006  0.047
   20  0.000  0.011  0.003  0.015
   21  0.000  0.004  0.004  0.009
   22  0.035  0.004  0.005  0.044
   23  0.000  0.004  0.004  0.009
   24  0.000  0.011  0.004  0.016
   25  0.000  0.000  0.017  0.017
   26  0.039  0.004  0.006  0.048
   27  0.034  0.004  0.005  0.043
   28  0.000  0.003  0.006  0.008
   29  0.015  0.003  0.004  0.022
   30  0.001  0.002  0.004  0.007
   31  0.015  0.003  0.004  0.022
   32  0.008  0.001  0.004  0.013
   33  0.001  0.002  0.004  0.008
   34  0.008  0.001  0.004  0.013
   35  0.000  0.004  0.005  0.009
   36  0.000  0.000  0.029  0.029
   37  0.000  0.000  0.000  0.000
tot    0.339  0.113  0.192  0.644
 
band     9 # energy   -5.72587853 # occ.  2.00000000
 
ion      s      p      d    tot
    1  0.000  0.001  0.002  0.004
    2  0.001  0.001  0.002  0.004
    3  0.008  0.002  0.002  0.012
    4  0.001  0.001  0.002  0.004
    5  0.000  0.000  0.003  0.003
    6  0.003  0.001  0.002  0.006
    7  0.008  0.002  0.002  0.012
    8  0.003  0.001  0.002  0.006
    9  0.000  0.003  0.005  0.007
   10  0.011  0.000  0.005  0.016
   11  0.004  0.002  0.008  0.015
   12  0.003  0.009  0.003  0.014
   13  0.004  0.002  0.008  0.015
   14  0.016  0.003  0.002  0.022
   15  0.013  0.004  0.009  0.027
   16  0.003  0.009  0.003  0.014
   17  0.013  0.004  0.009  0.026
   18  0.053  0.003  0.004  0.060
   19  0.013  0.001  0.013  0.028
   20  0.000  0.002  0.005  0.007
   21  0.000  0.009  0.004  0.013
   22  0.011  0.009  0.005  0.025
   23  0.000  0.009  0.004  0.013
   24  0.046  0.001  0.006  0.053
   25  0.051  0.005  0.002  0.058
   26  0.012  0.001  0.013  0.027
   27  0.012  0.009  0.005  0.025
   28  0.000  0.003  0.006  0.008
   29  0.001  0.001  0.004  0.006
   30  0.015  0.002  0.003  0.021
   31  0.001  0.001  0.004  0.007
   32  0.009  0.003  0.004  0.015
   33  0.015  0.002  0.003  0.021
   34  0.008  0.003  0.004  0.015
   35  0.000  0.004  0.005  0.009
   36  0.000  0.000  0.029  0.029
   37  0.000  0.000  0.000  0.000
tot    0.339  0.113  0.192  0.644
 
band    10 # energy   -5.68580306 # occ.  2.00000000
 
ion      s      p      d    tot
    1  0.021  0.003  0.001  0.025
    2  0.000  0.002  0.004  0.006
    3  0.000  0.002  0.004  0.006
    4  0.000  0.002  0.004  0.006
    5  0.001  0.000  0.001  0.002
    6  0.000  0.002  0.004  0.006
    7  0.000  0.002  0.004  0.006
    8  0.000  0.002  0.004  0.006
    9  0.008  0.002  0.000  0.010
   10  0.029  0.005  0.006  0.040
   11  0.005  0.000  0.011  0.017
   12  0.029  0.005  0.006  0.040
   13  0.005  0.000  0.011  0.017
   14  0.005  0.000  0.011  0.017
   15  0.012  0.008  0.003  0.023
   16  0.029  0.005  0.006  0.040
   17  0.012  0.008  0.003  0.023
   18  0.012  0.008  0.003  0.023
   19  0.022  0.009  0.002  0.033
   20  0.000  0.003  0.010  0.013
   21  0.000  0.003  0.010  0.013
   22  0.025  0.002  0.009  0.036
   23  0.000  0.003  0.010  0.013
   24  0.025  0.002  0.009  0.037
   25  0.023  0.009  0.002  0.034
   26  0.022  0.009  0.002  0.033
   27  0.025  0.002  0.009  0.036
   28  0.021  0.003  0.000  0.024
   29  0.000  0.002  0.004  0.006
   30  0.000  0.002  0.004  0.006
   31  0.000  0.002  0.004  0.006
   32  0.000  0.002  0.004  0.006
   33  0.000  0.002  0.004  0.006
   34  0.000  0.002  0.004  0.006
   35  0.012  0.002  0.001  0.015
   36  0.000  0.000  0.000  0.000
   37  0.000  0.000  0.000  0.000
tot    0.345  0.115  0.178  0.639
 
band    11 # energy   -5.27079224 # occ.  2.00000000
 
ion      s      p      d    tot
    1  0.000  0.001  0.005  0.006
    2  0.004  0.002  0.003  0.009
    3  0.011  0.002  0.003  0.017
    4  0.004  0.001  0.003  0.008
    5  0.000  0.004  0.005  0.009
    6  0.002  0.001  0.002  0.005
    7  0.011  0.002  0.003  0.016
    8  0.002  0.001  0.002  0.005
    9  0.000  0.001  0.004  0.005
   10  0.000  0.001  0.015  0.016
   11  0.025  0.002  0.004  0.031
   12  0.011  0.002  0.005  0.018
   13  0.024  0.002  0.004  0.030
   14  0.000  0.003  0.008  0.011
   15  0.002  0.002  0.004  0.008
   16  0.012  0.002  0.005  0.018
   17  0.002  0.002  0.004  0.008
   18  0.000  0.006  0.002  0.008
   19  0.001  0.000  0.002  0.004
   20  0.000  0.000  0.029  0.029
   21  0.000  0.004  0.012  0.016
   22  0.000  0.002  0.005  0.007
   23  0.000  0.004  0.011  0.016
   24  0.000  0.000  0.002  0.002
   25  0.000  0.001  0.002  0.003
   26  0.001  0.000  0.002  0.004
   27  0.000  0.002  0.006  0.008
   28  0.000  0.000  0.000  0.000
   29  0.001  0.001  0.004  0.005
   30  0.001  0.001  0.010  0.012
   31  0.001  0.001  0.003  0.005
   32  0.003  0.000  0.004  0.007
   33  0.001  0.001  0.010  0.012
   34  0.003  0.000  0.004  0.007
   35  0.000  0.000  0.001  0.001
   36  0.000  0.003  0.291  0.294
   37  0.000  0.095  0.000  0.095
tot    0.122  0.152  0.480  0.753
 
band    12 # energy   -5.27075438 # occ.  2.00000000
 
ion      s      p      d    tot
    1  0.000  0.001  0.005  0.006
    2  0.007  0.002  0.003  0.011
    3  0.000  0.001  0.003  0.004
    4  0.007  0.002  0.003  0.012
    5  0.000  0.004  0.005  0.009
    6  0.010  0.002  0.003  0.015
    7  0.000  0.001  0.003  0.004
    8  0.010  0.002  0.003  0.015
    9  0.000  0.001  0.004  0.005
   10  0.016  0.002  0.001  0.019
   11  0.008  0.002  0.007  0.017
   12  0.004  0.001  0.011  0.016
   13  0.009  0.002  0.007  0.018
   14  0.032  0.002  0.003  0.037
   15  0.001  0.005  0.003  0.008
   16  0.004  0.001  0.012  0.016
   17  0.001  0.005  0.003  0.008
   18  0.003  0.000  0.005  0.008
   19  0.000  0.001  0.002  0.003
   20  0.000  0.006  0.006  0.012
   21  0.000  0.002  0.023  0.024
   22  0.000  0.001  0.003  0.004
   23  0.000  0.001  0.023  0.025
   24  0.001  0.002  0.007  0.009
   25  0.001  0.000  0.002  0.004
   26  0.000  0.001  0.002  0.003
   27  0.000  0.001  0.003  0.004
   28  0.000  0.000  0.000  0.000
   29  0.002  0.001  0.008  0.011
   30  0.002  0.000  0.001  0.004
   31  0.002  0.001  0.008  0.011
   32  0.000  0.001  0.008  0.009
   33  0.002  0.000  0.001  0.004
   34  0.000  0.001  0.008  0.009
   35  0.000  0.000  0.001  0.001
   36  0.000  0.003  0.291  0.294
   37  0.000  0.095  0.000  0.095
tot    0.122  0.152  0.480  0.753
 
band    13 # energy   -5.24513084 # occ.  2.00000000
 
ion      s      p      d    tot
    1  0.014  0.000  0.007  0.021
    2  0.007  0.001  0.010  0.018
    3  0.007  0.001  0.010  0.018
    4  0.007  0.001  0.010  0.018
    5  0.001  0.003  0.010  0.013
    6  0.007  0.001  0.010  0.018
    7  0.007  0.001  0.010  0.018
    8  0.007  0.001  0.010  0.018
    9  0.028  0.000  0.004  0.032
   10  0.004  0.001  0.016  0.021
   11  0.026  0.003  0.008  0.036
   12  0.004  0.001  0.016  0.021
   13  0.026  0.003  0.008  0.036
   14  0.026  0.003  0.008  0.037
   15  0.000  0.001  0.015  0.017
   16  0.004  0.001  0.016  0.021
   17  0.000  0.001  0.015  0.017
   18  0.000  0.001  0.015  0.017
   19  0.000  0.000  0.002  0.002
   20  0.001  0.005  0.025  0.031
   21  0.001  0.005  0.025  0.031
   22  0.001  0.001  0.004  0.006
   23  0.001  0.005  0.025  0.031
   24  0.001  0.001  0.004  0.006
   25  0.000  0.000  0.002  0.002
   26  0.000  0.000  0.002  0.002
   27  0.001  0.001  0.004  0.006
   28  0.000  0.000  0.000  0.000
   29  0.000  0.000  0.001  0.002
   30  0.000  0.000  0.001  0.002
   31  0.000  0.000  0.001  0.002
   32  0.000  0.000  0.001  0.002
   33  0.000  0.000  0.001  0.002
   34  0.000  0.000  0.001  0.002
   35  0.001  0.000  0.000  0.001
   36  0.007  0.002  0.138  0.146
   37  0.019  0.069  0.000  0.088
tot    0.210  0.116  0.432  0.758
 
band    14 # energy   -5.08028006 # occ.  2.00000000
 
ion      s      p      d    tot
    1  0.000  0.005  0.008  0.013
    2  0.008  0.002  0.004  0.015
    3  0.017  0.003  0.004  0.025
    4  0.008  0.002  0.004  0.014
    5  0.000  0.000  0.008  0.008
    6  0.002  0.001  0.004  0.007
    7  0.017  0.003  0.004  0.024
    8  0.002  0.002  0.004  0.007
    9  0.000  0.003  0.008  0.011
   10  0.021  0.001  0.006  0.029
   11  0.000  0.003  0.010  0.014
   12  0.005  0.004  0.009  0.019
   13  0.000  0.003  0.010  0.013
   14  0.000  0.000  0.005  0.006
   15  0.007  0.001  0.014  0.022
   16  0.005  0.004  0.009  0.019
   17  0.007  0.001  0.014  0.022
   18  0.027  0.004  0.003  0.034
   19  0.001  0.001  0.009  0.011
   20  0.001  0.003  0.012  0.016
   21  0.000  0.002  0.010  0.012
   22  0.001  0.001  0.018  0.020
   23  0.000  0.002  0.010  0.012
   24  0.004  0.002  0.000  0.007
   25  0.003  0.006  0.005  0.014
   26  0.001  0.002  0.009  0.011
   27  0.001  0.001  0.018  0.020
   28  0.000  0.003  0.004  0.007
   29  0.006  0.002  0.012  0.021
   30  0.025  0.001  0.011  0.037
   31  0.006  0.002  0.012  0.020
   32  0.006  0.002  0.012  0.021
   33  0.025  0.001  0.011  0.037
   34  0.007  0.002  0.012  0.021
   35  0.000  0.004  0.005  0.009
   36  0.000  0.000  0.124  0.125
   37  0.000  0.004  0.000  0.004
tot    0.214  0.088  0.424  0.726
 
band    15 # energy   -5.08020508 # occ.  2.00000000
 
ion      s      p      d    tot
    1  0.000  0.005  0.008  0.013
    2  0.010  0.002  0.004  0.016
    3  0.001  0.001  0.004  0.006
    4  0.010  0.002  0.004  0.016
    5  0.000  0.000  0.008  0.008
    6  0.016  0.003  0.004  0.024
    7  0.001  0.001  0.004  0.006
    8  0.016  0.003  0.004  0.024
    9  0.000  0.003  0.008  0.011
   10  0.000  0.005  0.011  0.015
   11  0.000  0.001  0.007  0.009
   12  0.016  0.002  0.007  0.025
   13  0.000  0.001  0.007  0.009
   14  0.000  0.004  0.012  0.016
   15  0.021  0.003  0.006  0.030
   16  0.016  0.002  0.007  0.026
   17  0.020  0.003  0.007  0.030
   18  0.000  0.000  0.018  0.018
   19  0.002  0.004  0.006  0.013
   20  0.000  0.002  0.009  0.011
   21  0.001  0.003  0.011  0.014
   22  0.003  0.002  0.006  0.011
   23  0.001  0.003  0.011  0.014
   24  0.000  0.000  0.024  0.024
   25  0.000  0.000  0.010  0.010
   26  0.002  0.004  0.007  0.013
   27  0.003  0.002  0.006  0.011
   28  0.000  0.003  0.004  0.007
   29  0.019  0.001  0.011  0.032
   30  0.000  0.003  0.012  0.015
   31  0.019  0.001  0.011  0.032
   32  0.019  0.002  0.011  0.031
   33  0.000  0.003  0.012  0.015
   34  0.019  0.002  0.011  0.031
   35  0.000  0.004  0.005  0.009
   36  0.000  0.000  0.125  0.125
   37  0.000  0.004  0.000  0.004
tot    0.214  0.088  0.424  0.726
 
band    16 # energy   -5.04886991 # occ.  2.00000000
 
ion      s      p      d    tot
    1  0.002  0.002  0.004  0.008
    2  0.002  0.002  0.010  0.015
    3  0.002  0.002  0.010  0.015
    4  0.002  0.002  0.010  0.015
    5  0.048  0.002  0.001  0.052
    6  0.002  0.002  0.010  0.015
    7  0.002  0.002  0.010  0.015
    8  0.002  0.002  0.010  0.015
    9  0.001  0.002  0.006  0.008
   10  0.008  0.001  0.014  0.024
   11  0.004  0.004  0.014  0.022
   12  0.008  0.001  0.014  0.024
   13  0.004  0.004  0.014  0.022
   14  0.004  0.004  0.014  0.022
   15  0.015  0.000  0.016  0.031
   16  0.008  0.001  0.014  0.024
   17  0.015  0.000  0.016  0.031
   18  0.015  0.000  0.016  0.031
   19  0.007  0.002  0.007  0.016
   20  0.000  0.002  0.022  0.025
   21  0.000  0.002  0.022  0.025
   22  0.002  0.001  0.015  0.018
   23  0.000  0.002  0.022  0.025
   24  0.002  0.001  0.015  0.018
   25  0.007  0.002  0.007  0.016
   26  0.007  0.002  0.007  0.016
   27  0.002  0.001  0.015  0.018
   28  0.009  0.002  0.001  0.012
   29  0.000  0.003  0.011  0.014
   30  0.000  0.003  0.011  0.014
   31  0.000  0.003  0.011  0.014
   32  0.000  0.003  0.011  0.014
   33  0.000  0.003  0.011  0.014
   34  0.000  0.003  0.011  0.014
   35  0.006  0.001  0.001  0.008
   36  0.059  0.003  0.008  0.071
   37  0.003  0.002  0.000  0.004
tot    0.249  0.080  0.412  0.741
 
band    17 # energy   -4.92178471 # occ.  2.00000000
 
ion      s      p      d    tot
    1  0.032  0.003  0.000  0.035
    2  0.000  0.003  0.010  0.014
    3  0.000  0.003  0.010  0.014
    4  0.000  0.003  0.010  0.014
    5  0.001  0.000  0.000  0.001
    6  0.000  0.003  0.010  0.013
    7  0.000  0.003  0.010  0.014
    8  0.000  0.003  0.010  0.013
    9  0.032  0.004  0.001  0.037
   10  0.008  0.003  0.010  0.022
   11  0.001  0.000  0.016  0.017
   12  0.008  0.003  0.010  0.022
   13  0.001  0.000  0.016  0.017
   14  0.001  0.000  0.016  0.017
   15  0.008  0.004  0.017  0.029
   16  0.008  0.003  0.010  0.022
   17  0.008  0.004  0.017  0.029
   18  0.008  0.004  0.017  0.029
   19  0.004  0.003  0.018  0.025
   20  0.000  0.000  0.015  0.015
   21  0.000  0.000  0.015  0.015
   22  0.012  0.004  0.011  0.026
   23  0.000  0.000  0.015  0.015
   24  0.012  0.004  0.011  0.026
   25  0.004  0.003  0.018  0.025
   26  0.004  0.003  0.018  0.025
   27  0.012  0.004  0.011  0.026
   28  0.034  0.003  0.000  0.037
   29  0.000  0.003  0.010  0.013
   30  0.000  0.003  0.010  0.013
   31  0.000  0.003  0.010  0.013
   32  0.000  0.003  0.010  0.013
   33  0.000  0.003  0.010  0.013
   34  0.000  0.003  0.010  0.013
   35  0.029  0.004  0.001  0.035
   36  0.000  0.000  0.000  0.000
   37  0.000  0.000  0.000  0.000
tot    0.228  0.092  0.385  0.706
 
band    18 # energy   -4.86053386 # occ.  2.00000000
 
ion      s      p      d    tot
    1  0.000  0.001  0.006  0.007
    2  0.013  0.002  0.003  0.018
    3  0.004  0.001  0.003  0.009
    4  0.002  0.001  0.003  0.007
    5  0.000  0.004  0.005  0.009
    6  0.002  0.001  0.003  0.006
    7  0.005  0.001  0.003  0.010
    8  0.013  0.002  0.003  0.019
    9  0.000  0.001  0.008  0.009
   10  0.004  0.002  0.007  0.012
   11  0.009  0.003  0.006  0.017
   12  0.000  0.001  0.008  0.009
   13  0.000  0.001  0.019  0.020
   14  0.007  0.002  0.009  0.018
   15  0.001  0.000  0.007  0.008
   16  0.005  0.002  0.006  0.013
   17  0.000  0.002  0.015  0.017
   18  0.001  0.001  0.009  0.010
   19  0.002  0.001  0.009  0.012
   20  0.009  0.002  0.014  0.026
   21  0.000  0.001  0.014  0.014
   22  0.000  0.001  0.015  0.016
   23  0.012  0.003  0.014  0.029
   24  0.007  0.002  0.009  0.018
   25  0.002  0.002  0.012  0.015
   26  0.000  0.005  0.021  0.026
   27  0.009  0.003  0.008  0.019
   28  0.000  0.002  0.016  0.019
   29  0.030  0.003  0.004  0.037
   30  0.010  0.003  0.005  0.018
   31  0.006  0.002  0.006  0.014
   32  0.004  0.002  0.006  0.012
   33  0.011  0.003  0.006  0.020
   34  0.030  0.003  0.004  0.037
   35  0.000  0.002  0.014  0.015
   36  0.000  0.025  0.058  0.083
   37  0.000  0.055  0.000  0.055
tot    0.197  0.148  0.360  0.704
 
band    19 # energy   -4.86053225 # occ.  2.00000000
 
ion      s      p      d    tot
    1  0.000  0.001  0.006  0.007
    2  0.000  0.001  0.003  0.005
    3  0.009  0.002  0.003  0.014
    4  0.011  0.002  0.003  0.016
    5  0.000  0.004  0.005  0.009
    6  0.011  0.002  0.003  0.017
    7  0.008  0.002  0.003  0.013
    8  0.000  0.001  0.003  0.004
    9  0.000  0.001  0.008  0.009
   10  0.002  0.001  0.007  0.011
   11  0.002  0.001  0.017  0.019
   12  0.006  0.003  0.006  0.014
   13  0.010  0.003  0.004  0.017
   14  0.004  0.001  0.014  0.019
   15  0.000  0.002  0.013  0.015
   16  0.001  0.001  0.008  0.010
   17  0.001  0.000  0.005  0.006
   18  0.000  0.001  0.012  0.013
   19  0.000  0.004  0.019  0.023
   20  0.005  0.001  0.014  0.020
   21  0.014  0.003  0.014  0.032
   22  0.010  0.003  0.006  0.019
   23  0.002  0.001  0.014  0.017
   24  0.004  0.002  0.012  0.017
   25  0.001  0.003  0.016  0.020
   26  0.003  0.000  0.007  0.010
   27  0.002  0.001  0.014  0.017
   28  0.000  0.002  0.016  0.019
   29  0.001  0.002  0.007  0.009
   30  0.021  0.003  0.005  0.028
   31  0.025  0.003  0.004  0.032
   32  0.026  0.003  0.004  0.034
   33  0.019  0.003  0.005  0.026
   34  0.000  0.002  0.006  0.009
   35  0.000  0.002  0.014  0.015
   36  0.000  0.025  0.058  0.083
   37  0.000  0.055  0.000  0.055
tot    0.197  0.148  0.360  0.704
 
band    20 # energy   -4.62886588 # occ.  2.00000000
 
ion      s      p      d    tot
    1  0.002  0.000  0.002  0.004
    2  0.000  0.000  0.002  0.003
    3  0.000  0.000  0.002  0.003
    4  0.000  0.000  0.002  0.003
    5  0.001  0.001  0.002  0.004
    6  0.000  0.000  0.002  0.003
    7  0.000  0.000  0.002  0.003
    8  0.000  0.000  0.002  0.003
    9  0.002  0.000  0.002  0.003
   10  0.001  0.000  0.009  0.010
   11  0.002  0.001  0.012  0.015
   12  0.001  0.000  0.009  0.010
   13  0.002  0.001  0.012  0.015
   14  0.002  0.001  0.012  0.015
   15  0.001  0.000  0.009  0.010
   16  0.001  0.000  0.009  0.010
   17  0.001  0.000  0.009  0.010
   18  0.001  0.000  0.009  0.010
   19  0.002  0.000  0.017  0.019
   20  0.007  0.000  0.015  0.023
   21  0.007  0.000  0.015  0.023
   22  0.001  0.002  0.032  0.035
   23  0.007  0.000  0.015  0.023
   24  0.001  0.002  0.032  0.035
   25  0.002  0.000  0.017  0.019
   26  0.002  0.000  0.017  0.019
   27  0.001  0.002  0.032  0.035
   28  0.012  0.000  0.008  0.020
   29  0.003  0.003  0.018  0.024
   30  0.003  0.003  0.018  0.024
   31  0.003  0.003  0.018  0.024
   32  0.003  0.003  0.018  0.024
   33  0.003  0.003  0.018  0.024
   34  0.003  0.003  0.018  0.024
   35  0.036  0.000  0.009  0.045
   36  0.000  0.002  0.139  0.141
   37  0.016  0.082  0.000  0.098
tot    0.130  0.115  0.569  0.813
 
band    21 # energy   -4.50595885 # occ.  2.00000000
 
ion      s      p      d    tot
    1  0.000  0.001  0.019  0.021
    2  0.016  0.002  0.006  0.023
    3  0.005  0.001  0.006  0.011
    4  0.016  0.002  0.006  0.023
    5  0.000  0.001  0.012  0.012
    6  0.003  0.001  0.006  0.010
    7  0.004  0.001  0.006  0.011
    8  0.003  0.001  0.006  0.010
    9  0.000  0.004  0.004  0.007
   10  0.000  0.000  0.055  0.055
   11  0.000  0.003  0.013  0.016
   12  0.000  0.000  0.017  0.018
   13  0.000  0.003  0.013  0.016
   14  0.000  0.000  0.002  0.002
   15  0.000  0.005  0.014  0.020
   16  0.000  0.000  0.017  0.017
   17  0.000  0.005  0.014  0.020
   18  0.000  0.000  0.025  0.025
   19  0.013  0.001  0.009  0.023
   20  0.000  0.000  0.051  0.052
   21  0.000  0.001  0.026  0.027
   22  0.005  0.001  0.015  0.021
   23  0.000  0.001  0.026  0.027
   24  0.000  0.002  0.002  0.004
   25  0.000  0.000  0.027  0.027
   26  0.013  0.001  0.009  0.023
   27  0.005  0.001  0.015  0.021
   28  0.000  0.000  0.005  0.005
   29  0.003  0.001  0.020  0.024
   30  0.000  0.001  0.015  0.016
   31  0.003  0.001  0.020  0.025
   32  0.003  0.001  0.020  0.024
   33  0.000  0.001  0.015  0.016
   34  0.003  0.001  0.020  0.024
   35  0.000  0.000  0.003  0.003
   36  0.000  0.000  0.137  0.137