PROCAR new format
# of k-points:   10         # of bands:  252         # of ions:   39

 k-point     1 :    0.00000000 0.00000000 0.00000000     weight = 0.01562500

band     1 # energy  -23.46476894 # occ.  2.00000000
 
ion      s      p      d    tot
    1  0.000  0.000  0.000  0.000
    2  0.000  0.000  0.000  0.000
    3  0.000  0.000  0.000  0.000
    4  0.000  0.000  0.000  0.000
    5  0.000  0.000  0.000  0.000
    6  0.000  0.000  0.000  0.000
    7  0.000  0.000  0.000  0.000
    8  0.000  0.000  0.000  0.000
    9  0.000  0.000  0.000  0.000
   10  0.000  0.000  0.000  0.000
   11  0.000  0.000  0.000  0.000
   12  0.000  0.000  0.000  0.000
   13  0.000  0.000  0.000  0.000
   14  0.000  0.000  0.000  0.000
   15  0.000  0.000  0.000  0.000
   16  0.000  0.000  0.000  0.000
   17  0.000  0.000  0.000  0.000
   18  0.000  0.000  0.000  0.000
   19  0.000  0.000  0.000  0.000
   20  0.000  0.000  0.000  0.000
   21  0.000  0.000  0.000  0.000
   22  0.000  0.000  0.000  0.000
   23  0.000  0.000  0.000  0.000
   24  0.000  0.000  0.000  0.000
   25  0.000  0.000  0.000  0.000
   26  0.000  0.000  0.000  0.000
   27  0.000  0.000  0.000  0.000
   28  0.000  0.000  0.000  0.000
   29  0.000  0.000  0.000  0.000
   30  0.000  0.000  0.000  0.000
   31  0.000  0.000  0.000  0.000
   32  0.000  0.000  0.000  0.000
   33  0.000  0.000  0.000  0.000
   34  0.000  0.000  0.000  0.000
   35  0.000  0.000  0.000  0.000
   36  0.000  0.000  0.000  0.000
   37  0.072  0.053  0.000  0.125
   38  0.728  0.005  0.000  0.733
   39  0.066  0.014  0.000  0.080
tot    0.866  0.072  0.000  0.938
 
band     2 # energy  -14.20024850 # occ.  2.00000000
 
ion      s      p      d    tot
    1  0.000  0.000  0.000  0.000
    2  0.000  0.000  0.000  0.000
    3  0.000  0.000  0.000  0.000
    4  0.000  0.000  0.000  0.000
    5  0.000  0.000  0.000  0.000
    6  0.000  0.000  0.000  0.000
    7  0.000  0.000  0.000  0.000
    8  0.000  0.000  0.000  0.000
    9  0.000  0.000  0.000  0.000
   10  0.000  0.000  0.000  0.000
   11  0.000  0.000  0.000  0.000
   12  0.000  0.000  0.000  0.000
   13  0.000  0.000  0.000  0.000
   14  0.000  0.000  0.000  0.000
   15  0.000  0.000  0.000  0.000
   16  0.000  0.000  0.000  0.000
   17  0.000  0.000  0.000  0.000
   18  0.000  0.000  0.000  0.000
   19  0.000  0.000  0.000  0.000
   20  0.000  0.000  0.000  0.000
   21  0.000  0.000  0.000  0.000
   22  0.000  0.000  0.000  0.000
   23  0.000  0.000  0.000  0.000
   24  0.000  0.000  0.000  0.000
   25  0.000  0.000  0.000  0.000
   26  0.000  0.000  0.000  0.000
   27  0.000  0.000  0.000  0.000
   28  0.000  0.000  0.000  0.000
   29  0.000  0.000  0.000  0.000
   30  0.000  0.000  0.000  0.000
   31  0.000  0.000  0.000  0.000
   32  0.000  0.000  0.000  0.000
   33  0.000  0.000  0.000  0.000
   34  0.000  0.000  0.000  0.000
   35  0.000  0.000  0.000  0.000
   36  0.001  0.001  0.002  0.005
   37  0.155  0.054  0.000  0.209
   38  0.013  0.527  0.000  0.540
   39  0.201  0.032  0.000  0.233
tot    0.371  0.614  0.002  0.987
 
band     3 # energy   -6.86963302 # occ.  2.00000000
 
ion      s      p      d    tot
    1  0.003  0.000  0.000  0.004
    2  0.003  0.000  0.000  0.003
    3  0.003  0.000  0.000  0.003
    4  0.003  0.000  0.000  0.003
    5  0.003  0.000  0.000  0.003
    6  0.003  0.000  0.000  0.003
    7  0.003  0.000  0.000  0.003
    8  0.003  0.000  0.000  0.003
    9  0.003  0.000  0.000  0.003
   10  0.015  0.000  0.000  0.015
   11  0.014  0.000  0.000  0.015
   12  0.015  0.000  0.000  0.015
   13  0.014  0.000  0.000  0.015
   14  0.014  0.000  0.000  0.015
   15  0.013  0.000  0.000  0.013
   16  0.015  0.000  0.000  0.015
   17  0.013  0.000  0.000  0.013
   18  0.013  0.000  0.000  0.013
   19  0.017  0.000  0.001  0.018
   20  0.028  0.000  0.003  0.031
   21  0.028  0.000  0.003  0.031
   22  0.017  0.000  0.000  0.017
   23  0.028  0.000  0.003  0.031
   24  0.017  0.000  0.000  0.017
   25  0.017  0.000  0.001  0.018
   26  0.017  0.000  0.001  0.018
   27  0.017  0.000  0.000  0.017
   28  0.005  0.000  0.000  0.006
   29  0.009  0.001  0.001  0.010
   30  0.009  0.001  0.001  0.010
   31  0.009  0.001  0.001  0.010
   32  0.009  0.001  0.001  0.010
   33  0.009  0.001  0.001  0.010
   34  0.009  0.001  0.001  0.010
   35  0.005  0.000  0.000  0.006
   36  0.075  0.002  0.021  0.097
   37  0.034  0.030  0.000  0.064
   38  0.003  0.010  0.000  0.013
   39  0.003  0.000  0.000  0.003
tot    0.515  0.052  0.040  0.607
 
band     4 # energy   -6.37208990 # occ.  2.00000000
 
ion      s      p      d    tot
    1  0.005  0.000  0.000  0.005
    2  0.005  0.000  0.000  0.006
    3  0.005  0.000  0.000  0.006
    4  0.005  0.000  0.000  0.006
    5  0.006  0.000  0.000  0.006
    6  0.005  0.000  0.000  0.006
    7  0.005  0.000  0.000  0.006
    8  0.005  0.000  0.000  0.006
    9  0.006  0.000  0.000  0.006
   10  0.012  0.000  0.003  0.014
   11  0.014  0.000  0.001  0.015
   12  0.012  0.000  0.003  0.014
   13  0.014  0.000  0.001  0.015
   14  0.014  0.000  0.001  0.015
   15  0.015  0.000  0.001  0.016
   16  0.012  0.000  0.003  0.014
   17  0.015  0.000  0.001  0.016
   18  0.015  0.000  0.001  0.016
   19  0.003  0.000  0.001  0.004
   20  0.000  0.002  0.013  0.016
   21  0.000  0.002  0.013  0.016
   22  0.004  0.001  0.000  0.005
   23  0.000  0.002  0.013  0.016
   24  0.004  0.001  0.000  0.005
   25  0.003  0.000  0.001  0.004
   26  0.003  0.000  0.001  0.004
   27  0.004  0.001  0.000  0.005
   28  0.000  0.000  0.001  0.001
   29  0.001  0.001  0.004  0.006
   30  0.001  0.001  0.004  0.006
   31  0.001  0.001  0.004  0.006
   32  0.001  0.001  0.004  0.006
   33  0.001  0.001  0.004  0.006
   34  0.001  0.001  0.004  0.006
   35  0.000  0.000  0.001  0.001
   36  0.099  0.022  0.064  0.185
   37  0.102  0.082  0.000  0.184
   38  0.008  0.026  0.000  0.034
   39  0.008  0.000  0.000  0.008
tot    0.417  0.147  0.150  0.713
 
band     5 # energy   -6.20488026 # occ.  2.00000000
 
ion      s      p      d    tot
    1  0.000  0.000  0.000  0.000
    2  0.000  0.000  0.000  0.000
    3  0.000  0.000  0.000  0.000
    4  0.000  0.000  0.000  0.000
    5  0.000  0.000  0.000  0.000
    6  0.000  0.000  0.000  0.000
    7  0.000  0.000  0.000  0.000
    8  0.000  0.000  0.000  0.000
    9  0.000  0.000  0.000  0.000
   10  0.000  0.000  0.000  0.000
   11  0.000  0.000  0.000  0.000
   12  0.000  0.000  0.000  0.000
   13  0.000  0.000  0.000  0.000
   14  0.000  0.000  0.000  0.000
   15  0.000  0.000  0.000  0.000
   16  0.000  0.000  0.000  0.000
   17  0.000  0.000  0.000  0.000
   18  0.000  0.000  0.000  0.000
   19  0.000  0.000  0.000  0.000
   20  0.000  0.000  0.000  0.000
   21  0.000  0.000  0.000  0.000
   22  0.000  0.000  0.000  0.000
   23  0.000  0.000  0.000  0.000
   24  0.000  0.000  0.000  0.000
   25  0.000  0.000  0.000  0.000
   26  0.000  0.000  0.000  0.000
   27  0.000  0.000  0.000  0.000
   28  0.000  0.000  0.000  0.000
   29  0.000  0.000  0.001  0.001
   30  0.000  0.000  0.000  0.000
   31  0.000  0.000  0.001  0.001
   32  0.000  0.000  0.001  0.001
   33  0.000  0.000  0.000  0.000
   34  0.000  0.000  0.001  0.001
   35  0.000  0.000  0.000  0.000
   36  0.000  0.001  0.007  0.008
   37  0.000  0.100  0.000  0.100
   38  0.000  0.556  0.000  0.556
   39  0.000  0.008  0.000  0.008
tot    0.001  0.666  0.012  0.679
 
band     6 # energy   -6.20476407 # occ.  2.00000000
 
ion      s      p      d    tot
    1  0.000  0.000  0.000  0.000
    2  0.000  0.000  0.000  0.000
    3  0.000  0.000  0.000  0.000
    4  0.000  0.000  0.000  0.000
    5  0.000  0.000  0.000  0.000
    6  0.000  0.000  0.000  0.000
    7  0.000  0.000  0.000  0.000
    8  0.000  0.000  0.000  0.000
    9  0.000  0.000  0.000  0.000
   10  0.000  0.000  0.000  0.000
   11  0.000  0.000  0.000  0.000
   12  0.000  0.000  0.000  0.000
   13  0.000  0.000  0.000  0.000
   14  0.000  0.000  0.000  0.000
   15  0.000  0.000  0.000  0.000
   16  0.000  0.000  0.000  0.000
   17  0.000  0.000  0.000  0.000
   18  0.000  0.000  0.000  0.000
   19  0.000  0.000  0.000  0.000
   20  0.000  0.000  0.000  0.000
   21  0.000  0.000  0.000  0.000
   22  0.000  0.000  0.000  0.000
   23  0.000  0.000  0.000  0.000
   24  0.000  0.000  0.000  0.000
   25  0.000  0.000  0.000  0.000
   26  0.000  0.000  0.000  0.000
   27  0.000  0.000  0.000  0.000
   28  0.000  0.000  0.000  0.000
   29  0.000  0.000  0.000  0.001
   30  0.000  0.000  0.001  0.001
   31  0.000  0.000  0.000  0.001
   32  0.000  0.000  0.000  0.000
   33  0.000  0.000  0.001  0.001
   34  0.000  0.000  0.000  0.001
   35  0.000  0.000  0.000  0.000
   36  0.000  0.001  0.007  0.008
   37  0.000  0.100  0.000  0.100
   38  0.000  0.556  0.000  0.556
   39  0.000  0.008  0.000  0.008
tot    0.001  0.666  0.012  0.679
 
band     7 # energy   -5.81645777 # occ.  2.00000000
 
ion      s      p      d    tot
    1  0.005  0.000  0.000  0.006
    2  0.004  0.000  0.000  0.004
    3  0.004  0.000  0.000  0.004
    4  0.004  0.000  0.000  0.004
    5  0.003  0.000  0.000  0.004
    6  0.004  0.000  0.000  0.004
    7  0.004  0.000  0.000  0.004
    8  0.004  0.000  0.000  0.004
    9  0.003  0.000  0.000  0.003
   10  0.010  0.001  0.016  0.026
   11  0.007  0.001  0.020  0.028
   12  0.010  0.001  0.016  0.026
   13  0.007  0.001  0.020  0.028
   14  0.007  0.001  0.020  0.028
   15  0.005  0.001  0.015  0.021
   16  0.010  0.001  0.016  0.026
   17  0.005  0.001  0.015  0.021
   18  0.005  0.001  0.015  0.021
   19  0.014  0.001  0.022  0.036
   20  0.009  0.000  0.044  0.053
   21  0.009  0.000  0.044  0.053
   22  0.017  0.000  0.020  0.037
   23  0.009  0.000  0.044  0.053
   24  0.017  0.000  0.020  0.037
   25  0.014  0.001  0.022  0.036
   26  0.014  0.001  0.022  0.036
   27  0.017  0.000  0.020  0.037
   28  0.004  0.000  0.000  0.005
   29  0.002  0.001  0.002  0.005
   30  0.002  0.001  0.002  0.005
   31  0.002  0.001  0.002  0.005
   32  0.002  0.001  0.002  0.005
   33  0.002  0.001  0.002  0.005
   34  0.002  0.001  0.002  0.005
   35  0.004  0.001  0.000  0.005
   36  0.004  0.005  0.008  0.017
   37  0.013  0.010  0.000  0.023
   38  0.001  0.003  0.000  0.004
   39  0.001  0.000  0.000  0.001
tot    0.258  0.034  0.431  0.723
 
band     8 # energy   -5.59644835 # occ.  2.00000000
 
ion      s      p      d    tot
    1  0.016  0.000  0.014  0.030
    2  0.010  0.000  0.014  0.025
    3  0.010  0.000  0.014  0.025
    4  0.010  0.000  0.014  0.025
    5  0.007  0.000  0.012  0.020
    6  0.010  0.000  0.014  0.025
    7  0.010  0.000  0.014  0.025
    8  0.010  0.000  0.014  0.025
    9  0.010  0.000  0.013  0.022
   10  0.000  0.000  0.022  0.023
   11  0.000  0.000  0.006  0.007
   12  0.000  0.000  0.022  0.023
   13  0.000  0.000  0.006  0.007
   14  0.000  0.000  0.006  0.007
   15  0.000  0.001  0.005  0.006
   16  0.000  0.000  0.022  0.023
   17  0.000  0.001  0.005  0.006
   18  0.000  0.001  0.005  0.006
   19  0.000  0.001  0.015  0.015
   20  0.000  0.000  0.048  0.048
   21  0.000  0.000  0.048  0.048
   22  0.003  0.000  0.005  0.008
   23  0.000  0.000  0.048  0.048
   24  0.003  0.000  0.005  0.008
   25  0.000  0.001  0.015  0.015
   26  0.000  0.001  0.015  0.015
   27  0.003  0.000  0.005  0.008
   28  0.010  0.000  0.007  0.017
   29  0.010  0.000  0.012  0.023
   30  0.010  0.000  0.012  0.023
   31  0.010  0.000  0.012  0.023
   32  0.010  0.000  0.012  0.023
   33  0.010  0.000  0.012  0.023
   34  0.010  0.000  0.012  0.023
   35  0.016  0.000  0.008  0.024
   36  0.001  0.001  0.026  0.028
   37  0.006  0.004  0.000  0.010
   38  0.000  0.001  0.000  0.001
   39  0.000  0.000  0.000  0.000
tot    0.203  0.015  0.545  0.763
 
band     9 # energy   -5.49150879 # occ.  2.00000000
 
ion      s      p      d    tot
    1  0.000  0.000  0.007  0.007
    2  0.000  0.000  0.002  0.003
    3  0.000  0.000  0.002  0.002
    4  0.000  0.000  0.002  0.003
    5  0.000  0.000  0.003  0.003
    6  0.001  0.000  0.002  0.003
    7  0.000  0.000  0.002  0.002
    8  0.001  0.000  0.002  0.003
    9  0.000  0.000  0.002  0.002
   10  0.006  0.001  0.020  0.026
   11  0.000  0.000  0.027  0.028
   12  0.001  0.001  0.021  0.022
   13  0.000  0.000  0.029  0.030
   14  0.000  0.000  0.023  0.023
   15  0.002  0.000  0.012  0.014
   16  0.002  0.001  0.020  0.023
   17  0.001  0.000  0.012  0.013
   18  0.006  0.001  0.010  0.016
   19  0.009  0.001  0.035  0.045
   20  0.018  0.000  0.016  0.035
   21  0.002  0.000  0.156  0.159
   22  0.000  0.001  0.032  0.033
   23  0.007  0.000  0.113  0.120
   24  0.000  0.000  0.035  0.035
   25  0.022  0.000  0.038  0.061
   26  0.003  0.001  0.034  0.038
   27  0.000  0.001  0.033  0.034
   28  0.000  0.000  0.005  0.005
   29  0.000  0.000  0.002  0.003
   30  0.000  0.000  0.007  0.008
   31  0.001  0.000  0.003  0.004
   32  0.000  0.000  0.006  0.006
   33  0.000  0.000  0.006  0.007
   34  0.000  0.000  0.004  0.004
   35  0.000  0.000  0.000  0.000
   36  0.000  0.001  0.003  0.004
   37  0.000  0.000  0.000  0.000
   38  0.000  0.001  0.000  0.001
   39  0.000  0.000  0.000  0.000
tot    0.084  0.013  0.728  0.826
 
band    10 # energy   -5.49150605 # occ.  2.00000000
 
ion      s      p      d    tot
    1  0.000  0.000  0.007  0.007
    2  0.000  0.000  0.002  0.003
    3  0.001  0.000  0.002  0.003
    4  0.000  0.000  0.002  0.003
    5  0.000  0.000  0.003  0.003
    6  0.000  0.000  0.002  0.003
    7  0.001  0.000  0.002  0.003
    8  0.000  0.000  0.002  0.002
    9  0.000  0.000  0.002  0.002
   10  0.000  0.001  0.021  0.022
   11  0.000  0.000  0.026  0.026
   12  0.005  0.001  0.020  0.026
   13  0.000  0.000  0.024  0.024
   14  0.000  0.000  0.030  0.030
   15  0.004  0.000  0.011  0.015
   16  0.004  0.001  0.020  0.025
   17  0.005  0.001  0.010  0.016
   18  0.000  0.000  0.013  0.013
   19  0.014  0.001  0.036  0.051
   20  0.000  0.000  0.174  0.174
   21  0.016  0.000  0.034  0.051
   22  0.000  0.000  0.034  0.035
   23  0.011  0.000  0.077  0.089
   24  0.000  0.001  0.032  0.033
   25  0.001  0.001  0.034  0.035
   26  0.020  0.001  0.037  0.058
   27  0.000  0.001  0.033  0.034
   28  0.000  0.000  0.005  0.005
   29  0.000  0.000  0.007  0.008
   30  0.000  0.000  0.002  0.003
   31  0.000  0.000  0.007  0.007
   32  0.001  0.000  0.004  0.005
   33  0.000  0.000  0.003  0.003
   34  0.001  0.000  0.005  0.006
   35  0.000  0.000  0.000  0.000
   36  0.000  0.001  0.003  0.004
   37  0.000  0.000  0.000  0.000
   38  0.000  0.001  0.000  0.001
   39  0.000  0.000  0.000  0.000
tot    0.084  0.013  0.728  0.826
 
band    11 # energy   -5.48887248 # occ.  2.00000000
 
ion      s      p      d    tot
    1  0.003  0.000  0.009  0.012
    2  0.006  0.000  0.015  0.022
    3  0.006  0.000  0.015  0.021
    4  0.006  0.000  0.015  0.022
    5  0.011  0.000  0.018  0.030
    6  0.006  0.000  0.015  0.022
    7  0.006  0.000  0.015  0.021
    8  0.006  0.000  0.015  0.022
    9  0.006  0.000  0.010  0.016
   10  0.001  0.001  0.000  0.002
   11  0.002  0.001  0.034  0.036
   12  0.001  0.001  0.000  0.002
   13  0.002  0.001  0.034  0.036
   14  0.002  0.001  0.034  0.036
   15  0.000  0.000  0.023  0.023
   16  0.001  0.001  0.000  0.002
   17  0.000  0.000  0.023  0.023
   18  0.000  0.000  0.023  0.023
   19  0.003  0.000  0.021  0.024
   20  0.004  0.000  0.083  0.088
   21  0.004  0.000  0.083  0.088
   22  0.004  0.000  0.012  0.017
   23  0.004  0.000  0.083  0.088
   24  0.004  0.000  0.012  0.017
   25  0.003  0.000  0.020  0.024
   26  0.003  0.000  0.021  0.024
   27  0.004  0.000  0.012  0.017
   28  0.000  0.000  0.000  0.000
   29  0.001  0.000  0.007  0.007
   30  0.001  0.000  0.007  0.007
   31  0.001  0.000  0.007  0.007
   32  0.001  0.000  0.007  0.007
   33  0.001  0.000  0.007  0.007
   34  0.001  0.000  0.007  0.007
   35  0.002  0.000  0.000  0.003
   36  0.003  0.001  0.003  0.007
   37  0.001  0.001  0.000  0.001
   38  0.000  0.000  0.000  0.000
   39  0.000  0.000  0.000  0.000
tot    0.110  0.011  0.694  0.814
 
band    12 # energy   -5.47343473 # occ.  2.00000000
 
ion      s      p      d    tot
    1  0.000  0.000  0.006  0.006
    2  0.000  0.000  0.002  0.003
    3  0.001  0.000  0.006  0.008
    4  0.000  0.000  0.002  0.003
    5  0.000  0.000  0.009  0.009
    6  0.002  0.001  0.006  0.008
    7  0.001  0.000  0.006  0.007
    8  0.002  0.001  0.005  0.008
    9  0.000  0.000  0.001  0.001
   10  0.011  0.001  0.012  0.024
   11  0.010  0.001  0.063  0.073
   12  0.002  0.000  0.081  0.083
   13  0.007  0.001  0.067  0.075
   14  0.033  0.001  0.018  0.052
   15  0.001  0.001  0.015  0.018
   16  0.003  0.000  0.074  0.078
   17  0.001  0.001  0.013  0.016
   18  0.005  0.000  0.036  0.041
   19  0.000  0.000  0.017  0.018
   20  0.016  0.001  0.036  0.053
   21  0.003  0.001  0.033  0.037
   22  0.002  0.000  0.026  0.028
   23  0.005  0.001  0.033  0.039
   24  0.010  0.001  0.006  0.017
   25  0.000  0.000  0.016  0.016
   26  0.000  0.000  0.017  0.018
   27  0.003  0.000  0.024  0.027
   28  0.000  0.000  0.000  0.000
   29  0.002  0.000  0.005  0.007
   30  0.001  0.000  0.003  0.005
   31  0.002  0.000  0.005  0.007
   32  0.000  0.000  0.002  0.002
   33  0.001  0.000  0.004  0.005
   34  0.000  0.000  0.002  0.003
   35  0.000  0.000  0.006  0.006
   36  0.000  0.001  0.003  0.004
   37  0.000  0.000  0.000  0.000
   38  0.000  0.000  0.000  0.000
   39  0.000  0.000  0.000  0.000
tot    0.124  0.017  0.662  0.804
 
band    13 # energy   -5.47343174 # occ.  2.00000000
 
ion      s      p      d    tot
    1  0.000  0.000  0.006  0.006
    2  0.002  0.001  0.007  0.009
    3  0.001  0.000  0.003  0.004
    4  0.002  0.001  0.007  0.009
    5  0.000  0.000  0.009  0.009
    6  0.000  0.000  0.004  0.004
    7  0.001  0.000  0.003  0.005
    8  0.000  0.000  0.004  0.004
    9  0.000  0.000  0.001  0.001
   10  0.000  0.000  0.099  0.100
   11  0.024  0.001  0.036  0.061
   12  0.009  0.001  0.031  0.040
   13  0.026  0.001  0.032  0.059
   14  0.000  0.001  0.080  0.082
   15  0.003  0.001  0.028  0.032
   16  0.008  0.001  0.037  0.045
   17  0.004  0.000  0.030  0.034
   18  0.000  0.002  0.007  0.009
   19  0.000  0.000  0.017  0.017
   20  0.000  0.001  0.032  0.033
   21  0.013  0.001  0.035  0.049
   22  0.008  0.001  0.012  0.020
   23  0.011  0.001  0.035  0.047
   24  0.000  0.000  0.031  0.031
   25  0.000  0.001  0.018  0.018
   26  0.000  0.000  0.016  0.017
   27  0.007  0.001  0.013  0.021
   28  0.000  0.000  0.000  0.000
   29  0.000  0.000  0.002  0.003
   30  0.001  0.000  0.004  0.005
   31  0.000  0.000  0.002  0.002
   32  0.002  0.000  0.005  0.007
   33  0.001  0.000  0.003  0.004
   34  0.002  0.000  0.005  0.007
   35  0.000  0.000  0.006  0.006
   36  0.000  0.001  0.003  0.004
   37  0.000  0.000  0.000  0.000
   38  0.000  0.000  0.000  0.000
   39  0.000  0.000  0.000  0.000
tot    0.124  0.017  0.662  0.804
 
band    14 # energy   -5.45534834 # occ.  2.00000000
 
ion      s      p      d    tot
    1  0.000  0.000  0.001  0.002
    2  0.001  0.000  0.007  0.008
    3  0.001  0.000  0.007  0.008
    4  0.001  0.000  0.007  0.008
    5  0.007  0.001  0.000  0.008
    6  0.001  0.000  0.007  0.008
    7  0.001  0.000  0.007  0.008
    8  0.001  0.000  0.007  0.008
    9  0.000  0.000  0.011  0.012
   10  0.008  0.001  0.010  0.019
   11  0.013  0.001  0.034  0.048
   12  0.008  0.001  0.010  0.019
   13  0.013  0.001  0.034  0.048
   14  0.013  0.001  0.034  0.048
   15  0.003  0.000  0.055  0.057
   16  0.008  0.001  0.010  0.019
   17  0.003  0.000  0.055  0.057
   18  0.003  0.000  0.054  0.057
   19  0.012  0.001  0.022  0.035
   20  0.005  0.001  0.021  0.027
   21  0.005  0.001  0.021  0.027
   22  0.000  0.000  0.034  0.034
   23  0.005  0.001  0.021  0.027
   24  0.000  0.000  0.034  0.034
   25  0.012  0.001  0.022  0.035
   26  0.012  0.001  0.022  0.035
   27  0.000  0.000  0.034  0.034
   28  0.003  0.001  0.004  0.007
   29  0.000  0.000  0.007  0.008
   30  0.000  0.000  0.007  0.008
   31  0.000  0.000  0.007  0.008
   32  0.000  0.000  0.007  0.008
   33  0.000  0.000  0.007  0.008
   34  0.000  0.000  0.007  0.008
   35  0.003  0.000  0.000  0.003
   36  0.001  0.000  0.001  0.002
   37  0.000  0.000  0.000  0.000
   38  0.000  0.000  0.000  0.000
   39  0.000  0.000  0.000  0.000
tot    0.140  0.018  0.634  0.792
 
band    15 # energy   -5.44579236 # occ.  2.00000000
 
ion      s      p      d    tot
    1  0.000  0.001  0.023  0.024
    2  0.001  0.000  0.006  0.006
    3  0.001  0.000  0.006  0.006
    4  0.001  0.000  0.006  0.006
    5  0.000  0.000  0.001  0.001
    6  0.001  0.000  0.006  0.006
    7  0.001  0.000  0.006  0.006
    8  0.001  0.000  0.006  0.006
    9  0.007  0.001  0.001  0.009
   10  0.006  0.000  0.092  0.098
   11  0.001  0.001  0.049  0.051
   12  0.006  0.000  0.092  0.098
   13  0.001  0.001  0.049  0.051
   14  0.001  0.001  0.049  0.051
   15  0.012  0.001  0.008  0.021
   16  0.006  0.000  0.092  0.098
   17  0.012  0.001  0.008  0.021
   18  0.012  0.001  0.008  0.021
   19  0.000  0.000  0.021  0.022
   20  0.003  0.000  0.014  0.017
   21  0.003  0.000  0.014  0.017
   22  0.000  0.000  0.015  0.015
   23  0.003  0.000  0.014  0.017
   24  0.000  0.000  0.015  0.015
   25  0.000  0.000  0.021  0.022
   26  0.000  0.000  0.021  0.022
   27  0.000  0.000  0.015  0.015
   28  0.005  0.000  0.005  0.010
   29  0.001  0.000  0.010  0.011
   30  0.001  0.000  0.010  0.011
   31  0.001  0.000  0.010  0.011
   32  0.001  0.000  0.010  0.011
   33  0.001  0.000  0.010  0.011
   34  0.001  0.000  0.010  0.011
   35  0.001  0.000  0.002  0.002
   36  0.000  0.003  0.001  0.004
   37  0.002  0.002  0.000  0.004
   38  0.000  0.001  0.000  0.001
   39  0.000  0.000  0.000  0.000
tot    0.090  0.015  0.724  0.829
 
band    16 # energy   -5.42478082 # occ.  2.00000000
 
ion      s      p      d    tot
    1  0.001  0.000  0.005  0.006
    2  0.002  0.000  0.010  0.012
    3  0.002  0.000  0.010  0.012
    4  0.002  0.000  0.010  0.012
    5  0.001  0.000  0.004  0.005
    6  0.002  0.000  0.010  0.012
    7  0.002  0.000  0.010  0.012
    8  0.002  0.000  0.010  0.012
    9  0.006  0.000  0.014  0.021
   10  0.000  0.000  0.019  0.020
   11  0.000  0.000  0.003  0.004
   12  0.000  0.000  0.019  0.019
   13  0.000  0.000  0.003  0.004
   14  0.000  0.000  0.003  0.004
   15  0.002  0.000  0.032  0.034
   16  0.000  0.000  0.019  0.019
   17  0.002  0.000  0.032  0.034
   18  0.002  0.000  0.032  0.034
   19  0.004  0.001  0.012  0.017
   20  0.002  0.000  0.032  0.035
   21  0.002  0.000  0.033  0.035
   22  0.003  0.000  0.057  0.061
   23  0.002  0.000  0.032  0.035
   24  0.003  0.000  0.057  0.061
   25  0.004  0.001  0.013  0.017
   26  0.004  0.001  0.012  0.017
   27  0.003  0.000  0.057  0.061
   28  0.012  0.001  0.001  0.013
   29  0.005  0.000  0.016  0.022
   30  0.005  0.000  0.016  0.022
   31  0.005  0.000  0.016  0.022
   32  0.005  0.000  0.016  0.022
   33  0.005  0.000  0.016  0.022
   34  0.005  0.000  0.016  0.022
   35  0.007  0.000  0.036  0.042
   36  0.000  0.000  0.006  0.006
   37  0.002  0.001  0.000  0.003
   38  0.000  0.000  0.000  0.000
   39  0.000  0.000  0.000  0.000
tot    0.111  0.010  0.692  0.812
 
band    17 # energy   -5.42396528 # occ.  2.00000000
 
ion      s      p      d    tot
    1  0.000  0.001  0.010  0.010
    2  0.003  0.001  0.008  0.012
    3  0.004  0.001  0.005  0.009
    4  0.002  0.001  0.009  0.012
    5  0.000  0.000  0.008  0.008
    6  0.000  0.000  0.009  0.009
    7  0.003  0.001  0.004  0.008
    8  0.000  0.000  0.007  0.008
    9  0.000  0.000  0.009  0.010
   10  0.019  0.000  0.023  0.042
   11  0.000  0.000  0.026  0.027
   12  0.007  0.000  0.036  0.044
   13  0.000  0.000  0.028  0.029
   14  0.000  0.000  0.034  0.034
   15  0.003  0.000  0.086  0.089
   16  0.003  0.001  0.041  0.045
   17  0.007  0.000  0.064  0.071
   18  0.018  0.000  0.006  0.024
   19  0.000  0.000  0.038  0.038
   20  0.003  0.000  0.024  0.028
   21  0.001  0.000  0.021  0.022
   22  0.004  0.000  0.027  0.031
   23  0.000  0.000  0.020  0.021
   24  0.011  0.000  0.013  0.024
   25  0.003  0.000  0.017  0.020
   26  0.001  0.000  0.032  0.034
   27  0.002  0.000  0.032  0.034
   28  0.000  0.000  0.014  0.014
   29  0.001  0.000  0.007  0.008
   30  0.000  0.000  0.006  0.006
   31  0.002  0.001  0.006  0.009
   32  0.004  0.001  0.005  0.010
   33  0.001  0.000  0.005  0.006
   34  0.004  0.001  0.005  0.010
   35  0.000  0.000  0.006  0.006
   36  0.000  0.001  0.002  0.002
   37  0.000  0.000  0.000  0.000
   38  0.000  0.000  0.000  0.000
   39  0.000  0.000  0.000  0.000
tot    0.108  0.013  0.693  0.815
 
band    18 # energy   -5.42396201 # occ.  2.00000000
 
ion      s      p      d    tot
    1  0.000  0.001  0.010  0.010
    2  0.001  0.000  0.006  0.007
    3  0.000  0.000  0.009  0.010
    4  0.002  0.000  0.005  0.007
    5  0.000  0.000  0.008  0.008
    6  0.004  0.001  0.005  0.011
    7  0.001  0.001  0.010  0.011
    8  0.004  0.001  0.007  0.012
    9  0.000  0.000  0.009  0.010
   10  0.000  0.001  0.044  0.045
   11  0.000  0.000  0.033  0.033
   12  0.012  0.000  0.031  0.043
   13  0.000  0.000  0.031  0.031
   14  0.000  0.000  0.025  0.025
   15  0.016  0.000  0.018  0.034
   16  0.017  0.000  0.026  0.043
   17  0.012  0.000  0.040  0.051
   18  0.000  0.000  0.098  0.099
   19  0.002  0.000  0.020  0.023
   20  0.000  0.000  0.019  0.020
   21  0.002  0.000  0.022  0.025
   22  0.007  0.000  0.021  0.028
   23  0.002  0.000  0.023  0.026
   24  0.000  0.000  0.035  0.036
   25  0.000  0.000  0.041  0.041
   26  0.002  0.000  0.026  0.028
   27  0.010  0.000  0.015  0.025
   28  0.000  0.000  0.014  0.014
   29  0.003  0.000  0.005  0.008
   30  0.004  0.001  0.006  0.010
   31  0.002  0.000  0.005  0.007
   32  0.000  0.000  0.006  0.006
   33  0.003  0.001  0.006  0.010
   34  0.000  0.000  0.006  0.007
   35  0.000  0.000  0.006  0.006
   36  0.000  0.001  0.002  0.002
   37  0.000  0.000  0.000  0.000
   38  0.000  0.000  0.000  0.000
   39  0.000  0.000  0.000  0.000
tot    0.108  0.013  0.693  0.815
 
band    19 # energy   -5.41170471 # occ.  2.00000000
 
ion      s      p      d    tot
    1  0.000  0.000  0.006  0.006
    2  0.001  0.000  0.007  0.008
    3  0.000  0.000  0.007  0.007
    4  0.001  0.000  0.007  0.008
    5  0.000  0.000  0.004  0.004
    6  0.002  0.000  0.005  0.006
    7  0.000  0.000  0.007  0.007
    8  0.001  0.000  0.004  0.006
    9  0.000  0.000  0.017  0.017
   10  0.000  0.000  0.038  0.038
   11  0.000  0.000  0.044  0.045
   12  0.000  0.000  0.015  0.015
   13  0.001  0.000  0.040  0.041
   14  0.002  0.000  0.010  0.012
   15  0.001  0.000  0.049  0.050
   16  0.000  0.000  0.012  0.012
   17  0.001  0.000  0.047  0.047
   18  0.003  0.000  0.028  0.031
   19  0.001  0.000  0.079  0.080
   20  0.000  0.000  0.056  0.056
   21  0.000  0.000  0.023  0.023
   22  0.003  0.000  0.054  0.057
   23  0.000  0.000  0.019  0.019
   24  0.010  0.000  0.029  0.040
   25  0.006  0.000  0.007  0.014
   26  0.002  0.000  0.071  0.073
   27  0.002  0.000  0.057  0.059
   28  0.000  0.000  0.005  0.006
   29  0.001  0.000  0.008  0.009
   30  0.002  0.000  0.004  0.005
   31  0.000  0.000  0.009  0.009
   32  0.000  0.000  0.008  0.009
   33  0.001  0.000  0.003  0.005
   34  0.000  0.000  0.008  0.009
   35  0.000  0.000  0.013  0.014
   36  0.000  0.000  0.001  0.001
   37  0.000  0.000  0.000  0.000
   38  0.000  0.000  0.000  0.000
   39  0.000  0.000  0.000  0.000
tot    0.044  0.006  0.800  0.850
 
band    20 # energy   -5.41168996 # occ.  2.00000000
 
ion      s      p      d    tot
    1  0.000  0.000  0.006  0.006
    2  0.001  0.000  0.005  0.006
    3  0.002  0.000  0.005  0.007
    4  0.001  0.000  0.005  0.006
    5  0.000  0.000  0.004  0.004
    6  0.000  0.000  0.008  0.008
    7  0.002  0.000  0.006  0.008
    8  0.000  0.000  0.008  0.008
    9  0.000  0.000  0.017  0.017
   10  0.000  0.000  0.005  0.005
   11  0.002  0.000  0.019  0.021
   12  0.000  0.000  0.028  0.028
   13  0.002  0.000  0.022  0.024
   14  0.000  0.000  0.053  0.053
   15  0.002  0.000  0.033  0.036
   16  0.000  0.000  0.031  0.031
   17  0.002  0.000  0.035  0.038
   18  0.000  0.000  0.054  0.054
   19  0.005  0.000  0.026  0.031
   20  0.000  0.000  0.009  0.009
   21  0.000  0.000  0.042  0.042
   22  0.007  0.000  0.040  0.047
   23  0.000  0.000  0.046  0.046
   24  0.000  0.000  0.064  0.065
   25  0.000  0.000  0.097  0.097
   26  0.004  0.000  0.034  0.039
   27  0.008  0.000  0.037  0.045
   28  0.000  0.000  0.005  0.006
   29  0.001  0.000  0.005  0.007
   30  0.000  0.000  0.010  0.010
   31  0.001  0.000  0.005  0.006
   32  0.001  0.000  0.005  0.006
   33  0.000  0.000  0.010  0.010
   34  0.001  0.000  0.006  0.007
   35  0.000  0.000  0.013  0.014
   36  0.000  0.000  0.001  0.001
   37  0.000  0.000  0.000  0.000
   38  0.000  0.000  0.000  0.000
   39  0.000  0.000  0.000  0.000