PROCAR new format
# of k-points:   10         # of bands:  252         # of ions:   37

 k-point     1 :    0.00000000 0.00000000 0.00000000     weight = 0.01562500

band     1 # energy  -54.53852794 # occ.  2.00000000
 
ion      s      p      d    tot
    1  0.000  0.000  0.000  0.000
    2  0.000  0.000  0.000  0.000
    3  0.000  0.000  0.000  0.000
    4  0.000  0.000  0.000  0.000
    5  0.000  0.000  0.000  0.000
    6  0.000  0.000  0.000  0.000
    7  0.000  0.000  0.000  0.000
    8  0.000  0.000  0.000  0.000
    9  0.000  0.000  0.000  0.000
   10  0.000  0.000  0.000  0.000
   11  0.000  0.000  0.000  0.000
   12  0.000  0.000  0.000  0.000
   13  0.000  0.000  0.000  0.000
   14  0.000  0.000  0.000  0.000
   15  0.000  0.000  0.000  0.000
   16  0.000  0.000  0.000  0.000
   17  0.000  0.000  0.000  0.000
   18  0.000  0.000  0.000  0.000
   19  0.000  0.000  0.000  0.000
   20  0.000  0.000  0.000  0.000
   21  0.000  0.000  0.000  0.000
   22  0.000  0.000  0.000  0.000
   23  0.000  0.000  0.000  0.000
   24  0.000  0.000  0.000  0.000
   25  0.000  0.000  0.000  0.000
   26  0.000  0.000  0.000  0.000
   27  0.000  0.000  0.000  0.000
   28  0.000  0.000  0.000  0.000
   29  0.000  0.000  0.000  0.000
   30  0.000  0.000  0.000  0.000
   31  0.000  0.000  0.000  0.000
   32  0.000  0.000  0.000  0.000
   33  0.000  0.000  0.000  0.000
   34  0.000  0.000  0.000  0.000
   35  0.000  0.000  0.000  0.000
   36  0.992  0.000  0.000  0.992
   37  0.000  0.001  0.000  0.001
tot    0.992  0.001  0.000  0.993
 
band     2 # energy  -30.79242828 # occ.  2.00000000
 
ion      s      p      d    tot
    1  0.000  0.000  0.000  0.000
    2  0.000  0.000  0.000  0.000
    3  0.000  0.000  0.000  0.000
    4  0.000  0.000  0.000  0.000
    5  0.000  0.000  0.000  0.000
    6  0.000  0.000  0.000  0.000
    7  0.000  0.000  0.000  0.000
    8  0.000  0.000  0.000  0.000
    9  0.000  0.000  0.000  0.000
   10  0.000  0.000  0.000  0.000
   11  0.000  0.000  0.000  0.000
   12  0.000  0.000  0.000  0.000
   13  0.000  0.000  0.000  0.000
   14  0.000  0.000  0.000  0.000
   15  0.000  0.000  0.000  0.000
   16  0.000  0.000  0.000  0.000
   17  0.000  0.000  0.000  0.000
   18  0.000  0.000  0.000  0.000
   19  0.000  0.000  0.000  0.000
   20  0.000  0.000  0.000  0.000
   21  0.000  0.000  0.000  0.000
   22  0.000  0.000  0.000  0.000
   23  0.000  0.000  0.000  0.000
   24  0.000  0.000  0.000  0.000
   25  0.000  0.000  0.000  0.000
   26  0.000  0.000  0.000  0.000
   27  0.000  0.000  0.000  0.000
   28  0.000  0.000  0.000  0.000
   29  0.000  0.000  0.000  0.000
   30  0.000  0.000  0.000  0.000
   31  0.000  0.000  0.000  0.000
   32  0.000  0.000  0.000  0.000
   33  0.000  0.000  0.000  0.000
   34  0.000  0.000  0.000  0.000
   35  0.000  0.000  0.000  0.000
   36  0.000  0.971  0.000  0.971
   37  0.000  0.000  0.000  0.000
tot    0.000  0.972  0.001  0.973
 
band     3 # energy  -30.79242649 # occ.  2.00000000
 
ion      s      p      d    tot
    1  0.000  0.000  0.000  0.000
    2  0.000  0.000  0.000  0.000
    3  0.000  0.000  0.000  0.000
    4  0.000  0.000  0.000  0.000
    5  0.000  0.000  0.000  0.000
    6  0.000  0.000  0.000  0.000
    7  0.000  0.000  0.000  0.000
    8  0.000  0.000  0.000  0.000
    9  0.000  0.000  0.000  0.000
   10  0.000  0.000  0.000  0.000
   11  0.000  0.000  0.000  0.000
   12  0.000  0.000  0.000  0.000
   13  0.000  0.000  0.000  0.000
   14  0.000  0.000  0.000  0.000
   15  0.000  0.000  0.000  0.000
   16  0.000  0.000  0.000  0.000
   17  0.000  0.000  0.000  0.000
   18  0.000  0.000  0.000  0.000
   19  0.000  0.000  0.000  0.000
   20  0.000  0.000  0.000  0.000
   21  0.000  0.000  0.000  0.000
   22  0.000  0.000  0.000  0.000
   23  0.000  0.000  0.000  0.000
   24  0.000  0.000  0.000  0.000
   25  0.000  0.000  0.000  0.000
   26  0.000  0.000  0.000  0.000
   27  0.000  0.000  0.000  0.000
   28  0.000  0.000  0.000  0.000
   29  0.000  0.000  0.000  0.000
   30  0.000  0.000  0.000  0.000
   31  0.000  0.000  0.000  0.000
   32  0.000  0.000  0.000  0.000
   33  0.000  0.000  0.000  0.000
   34  0.000  0.000  0.000  0.000
   35  0.000  0.000  0.000  0.000
   36  0.000  0.971  0.000  0.971
   37  0.000  0.000  0.000  0.000
tot    0.000  0.972  0.001  0.973
 
band     4 # energy  -30.58190502 # occ.  2.00000000
 
ion      s      p      d    tot
    1  0.000  0.000  0.000  0.000
    2  0.000  0.000  0.000  0.000
    3  0.000  0.000  0.000  0.000
    4  0.000  0.000  0.000  0.000
    5  0.000  0.000  0.000  0.000
    6  0.000  0.000  0.000  0.000
    7  0.000  0.000  0.000  0.000
    8  0.000  0.000  0.000  0.000
    9  0.000  0.000  0.000  0.000
   10  0.000  0.000  0.000  0.000
   11  0.000  0.000  0.000  0.000
   12  0.000  0.000  0.000  0.000
   13  0.000  0.000  0.000  0.000
   14  0.000  0.000  0.000  0.000
   15  0.000  0.000  0.000  0.000
   16  0.000  0.000  0.000  0.000
   17  0.000  0.000  0.000  0.000
   18  0.000  0.000  0.000  0.000
   19  0.000  0.000  0.000  0.000
   20  0.000  0.000  0.000  0.001
   21  0.000  0.000  0.000  0.001
   22  0.000  0.000  0.000  0.000
   23  0.000  0.000  0.000  0.001
   24  0.000  0.000  0.000  0.000
   25  0.000  0.000  0.000  0.000
   26  0.000  0.000  0.000  0.000
   27  0.000  0.000  0.000  0.000
   28  0.000  0.000  0.000  0.000
   29  0.000  0.000  0.000  0.000
   30  0.000  0.000  0.000  0.000
   31  0.000  0.000  0.000  0.000
   32  0.000  0.000  0.000  0.000
   33  0.000  0.000  0.000  0.000
   34  0.000  0.000  0.000  0.000
   35  0.000  0.000  0.000  0.000
   36  0.000  0.958  0.000  0.959
   37  0.007  0.007  0.000  0.014
tot    0.008  0.966  0.001  0.974
 
band     5 # energy   -8.67229951 # occ.  2.00000000
 
ion      s      p      d    tot
    1  0.006  0.000  0.000  0.006
    2  0.006  0.000  0.000  0.006
    3  0.006  0.000  0.000  0.006
    4  0.006  0.000  0.000  0.006
    5  0.006  0.000  0.000  0.006
    6  0.006  0.000  0.000  0.006
    7  0.006  0.000  0.000  0.006
    8  0.006  0.000  0.000  0.006
    9  0.006  0.000  0.000  0.006
   10  0.024  0.000  0.000  0.024
   11  0.025  0.000  0.000  0.025
   12  0.024  0.000  0.000  0.024
   13  0.025  0.000  0.000  0.025
   14  0.025  0.000  0.000  0.025
   15  0.023  0.000  0.000  0.023
   16  0.024  0.000  0.000  0.024
   17  0.023  0.000  0.000  0.023
   18  0.023  0.000  0.000  0.023
   19  0.022  0.000  0.000  0.022
   20  0.028  0.000  0.000  0.029
   21  0.028  0.000  0.000  0.029
   22  0.023  0.000  0.000  0.023
   23  0.028  0.000  0.000  0.029
   24  0.023  0.000  0.000  0.023
   25  0.022  0.000  0.000  0.022
   26  0.022  0.000  0.000  0.022
   27  0.023  0.000  0.000  0.023
   28  0.005  0.000  0.000  0.005
   29  0.006  0.000  0.000  0.006
   30  0.006  0.000  0.000  0.006
   31  0.006  0.000  0.000  0.006
   32  0.006  0.000  0.000  0.006
   33  0.006  0.000  0.000  0.006
   34  0.006  0.000  0.000  0.006
   35  0.005  0.000  0.000  0.005
   36  0.008  0.000  0.005  0.012
   37  0.023  0.001  0.000  0.024
tot    0.559  0.011  0.008  0.578
 
band     6 # energy   -7.97525996 # occ.  2.00000000
 
ion      s      p      d    tot
    1  0.004  0.000  0.000  0.004
    2  0.004  0.000  0.000  0.004
    3  0.004  0.000  0.000  0.004
    4  0.004  0.000  0.000  0.004
    5  0.004  0.000  0.000  0.004
    6  0.004  0.000  0.000  0.004
    7  0.004  0.000  0.000  0.004
    8  0.004  0.000  0.000  0.004
    9  0.004  0.000  0.000  0.005
   10  0.006  0.000  0.001  0.007
   11  0.006  0.000  0.000  0.007
   12  0.006  0.000  0.001  0.007
   13  0.006  0.000  0.000  0.007
   14  0.006  0.000  0.000  0.007
   15  0.008  0.000  0.000  0.008
   16  0.006  0.000  0.001  0.007
   17  0.008  0.000  0.000  0.008
   18  0.008  0.000  0.000  0.008
   19  0.000  0.000  0.000  0.001
   20  0.001  0.002  0.004  0.007
   21  0.001  0.002  0.004  0.007
   22  0.000  0.000  0.000  0.001
   23  0.001  0.002  0.004  0.007
   24  0.000  0.000  0.000  0.001
   25  0.000  0.000  0.000  0.001
   26  0.000  0.000  0.000  0.001
   27  0.000  0.000  0.000  0.001
   28  0.001  0.000  0.000  0.001
   29  0.003  0.000  0.001  0.005
   30  0.003  0.000  0.001  0.005
   31  0.003  0.000  0.001  0.005
   32  0.003  0.000  0.001  0.005
   33  0.003  0.000  0.001  0.005
   34  0.003  0.000  0.001  0.005
   35  0.001  0.000  0.000  0.001
   36  0.035  0.016  0.065  0.116
   37  0.332  0.008  0.000  0.340
tot    0.489  0.035  0.093  0.616
 
band     7 # energy   -7.34546158 # occ.  2.00000000
 
ion      s      p      d    tot
    1  0.016  0.000  0.001  0.017
    2  0.014  0.000  0.001  0.016
    3  0.014  0.000  0.001  0.016
    4  0.014  0.000  0.001  0.016
    5  0.014  0.000  0.001  0.016
    6  0.014  0.000  0.001  0.016
    7  0.014  0.000  0.001  0.016
    8  0.014  0.000  0.001  0.016
    9  0.013  0.000  0.001  0.015
   10  0.007  0.001  0.002  0.011
   11  0.006  0.001  0.002  0.010
   12  0.007  0.001  0.002  0.011
   13  0.006  0.001  0.002  0.010
   14  0.006  0.001  0.002  0.010
   15  0.005  0.002  0.002  0.009
   16  0.007  0.001  0.002  0.011
   17  0.005  0.002  0.002  0.009
   18  0.005  0.002  0.002  0.009
   19  0.017  0.001  0.004  0.022
   20  0.011  0.001  0.007  0.018
   21  0.011  0.001  0.007  0.018
   22  0.020  0.001  0.004  0.025
   23  0.011  0.001  0.007  0.018
   24  0.020  0.001  0.004  0.025
   25  0.017  0.001  0.004  0.022
   26  0.017  0.001  0.004  0.022
   27  0.020  0.001  0.004  0.025
   28  0.013  0.001  0.000  0.014
   29  0.009  0.001  0.001  0.011
   30  0.009  0.001  0.001  0.011
   31  0.009  0.001  0.001  0.011
   32  0.009  0.001  0.001  0.011
   33  0.009  0.001  0.001  0.011
   34  0.009  0.001  0.001  0.011
   35  0.014  0.001  0.000  0.015
   36  0.000  0.005  0.019  0.024
   37  0.067  0.001  0.000  0.068
tot    0.475  0.034  0.101  0.610
 
band     8 # energy   -6.52976310 # occ.  2.00000000
 
ion      s      p      d    tot
    1  0.006  0.000  0.018  0.025
    2  0.014  0.000  0.014  0.028
    3  0.014  0.000  0.014  0.028
    4  0.014  0.000  0.014  0.028
    5  0.009  0.000  0.012  0.021
    6  0.014  0.000  0.014  0.028
    7  0.014  0.000  0.014  0.028
    8  0.014  0.000  0.014  0.028
    9  0.033  0.000  0.008  0.042
   10  0.012  0.001  0.015  0.028
   11  0.013  0.002  0.012  0.026
   12  0.012  0.001  0.015  0.028
   13  0.013  0.002  0.012  0.026
   14  0.013  0.002  0.012  0.026
   15  0.001  0.001  0.017  0.018
   16  0.012  0.001  0.015  0.028
   17  0.001  0.001  0.017  0.018
   18  0.001  0.001  0.017  0.018
   19  0.000  0.001  0.008  0.009
   20  0.012  0.002  0.007  0.020
   21  0.012  0.002  0.007  0.020
   22  0.003  0.001  0.002  0.006
   23  0.012  0.002  0.007  0.020
   24  0.003  0.001  0.002  0.006
   25  0.000  0.001  0.008  0.009
   26  0.000  0.001  0.008  0.009
   27  0.003  0.001  0.002  0.006
   28  0.010  0.000  0.002  0.012
   29  0.007  0.000  0.005  0.013
   30  0.007  0.000  0.005  0.013
   31  0.007  0.000  0.005  0.013
   32  0.007  0.000  0.005  0.013
   33  0.007  0.000  0.005  0.013
   34  0.007  0.000  0.005  0.013
   35  0.015  0.000  0.003  0.018
   36  0.000  0.001  0.003  0.004
   37  0.000  0.000  0.000  0.000
tot    0.324  0.024  0.341  0.689
 
band     9 # energy   -6.51319355 # occ.  2.00000000
 
ion      s      p      d    tot
    1  0.000  0.000  0.008  0.009
    2  0.003  0.001  0.003  0.006
    3  0.001  0.000  0.003  0.004
    4  0.003  0.001  0.003  0.007
    5  0.000  0.001  0.007  0.008
    6  0.007  0.001  0.003  0.011
    7  0.001  0.000  0.003  0.004
    8  0.006  0.001  0.004  0.011
    9  0.000  0.000  0.001  0.001
   10  0.036  0.002  0.005  0.044
   11  0.013  0.003  0.021  0.037
   12  0.009  0.001  0.028  0.038
   13  0.013  0.003  0.021  0.037
   14  0.052  0.001  0.012  0.064
   15  0.000  0.003  0.007  0.009
   16  0.009  0.001  0.028  0.038
   17  0.000  0.003  0.007  0.010
   18  0.001  0.000  0.012  0.014
   19  0.002  0.003  0.006  0.011
   20  0.063  0.001  0.010  0.075
   21  0.016  0.002  0.030  0.048
   22  0.004  0.001  0.021  0.026
   23  0.015  0.002  0.030  0.047
   24  0.016  0.002  0.005  0.023
   25  0.010  0.000  0.013  0.023
   26  0.002  0.003  0.006  0.011
   27  0.004  0.001  0.021  0.026
   28  0.000  0.000  0.001  0.001
   29  0.006  0.001  0.004  0.010
   30  0.002  0.000  0.003  0.005
   31  0.006  0.001  0.004  0.010
   32  0.001  0.000  0.002  0.004
   33  0.002  0.000  0.003  0.005
   34  0.001  0.000  0.002  0.004
   35  0.000  0.000  0.004  0.004
   36  0.000  0.001  0.004  0.005
   37  0.000  0.000  0.000  0.000
tot    0.305  0.042  0.344  0.690
 
band    10 # energy   -6.51317776 # occ.  2.00000000
 
ion      s      p      d    tot
    1  0.000  0.000  0.008  0.009
    2  0.004  0.001  0.004  0.008
    3  0.006  0.001  0.003  0.010
    4  0.004  0.001  0.004  0.008
    5  0.000  0.001  0.007  0.008
    6  0.000  0.000  0.003  0.003
    7  0.006  0.001  0.003  0.010
    8  0.000  0.000  0.003  0.003
    9  0.000  0.000  0.001  0.001
   10  0.000  0.000  0.036  0.036
   11  0.039  0.001  0.015  0.056
   12  0.027  0.002  0.013  0.042
   13  0.038  0.002  0.015  0.055
   14  0.000  0.004  0.025  0.028
   15  0.001  0.001  0.010  0.012
   16  0.028  0.002  0.012  0.042
   17  0.001  0.001  0.010  0.012
   18  0.000  0.003  0.005  0.008
   19  0.007  0.001  0.011  0.019
   20  0.000  0.002  0.037  0.039
   21  0.047  0.002  0.017  0.065
   22  0.012  0.001  0.011  0.024
   23  0.048  0.002  0.017  0.066
   24  0.000  0.000  0.027  0.027
   25  0.000  0.004  0.003  0.007
   26  0.007  0.001  0.011  0.019
   27  0.012  0.001  0.010  0.024
   28  0.000  0.000  0.001  0.001
   29  0.000  0.000  0.002  0.002
   30  0.004  0.001  0.003  0.008
   31  0.000  0.000  0.002  0.002
   32  0.004  0.001  0.004  0.009
   33  0.004  0.001  0.003  0.008
   34  0.004  0.001  0.004  0.009
   35  0.000  0.000  0.004  0.004
   36  0.000  0.001  0.004  0.005
   37  0.000  0.000  0.000  0.000
tot    0.305  0.042  0.344  0.690
 
band    11 # energy   -6.48732595 # occ.  2.00000000
 
ion      s      p      d    tot
    1  0.016  0.000  0.004  0.021
    2  0.006  0.000  0.009  0.016
    3  0.006  0.000  0.009  0.016
    4  0.006  0.000  0.009  0.016
    5  0.008  0.000  0.009  0.017
    6  0.006  0.000  0.009  0.016
    7  0.006  0.000  0.009  0.016
    8  0.006  0.000  0.009  0.016
    9  0.000  0.001  0.010  0.012
   10  0.000  0.000  0.030  0.030
   11  0.001  0.001  0.021  0.023
   12  0.000  0.000  0.030  0.030
   13  0.001  0.001  0.021  0.023
   14  0.001  0.001  0.021  0.023
   15  0.024  0.001  0.012  0.036
   16  0.000  0.000  0.030  0.030
   17  0.024  0.001  0.012  0.036
   18  0.024  0.001  0.012  0.036
   19  0.004  0.000  0.020  0.024
   20  0.017  0.000  0.022  0.039
   21  0.017  0.000  0.022  0.039
   22  0.001  0.001  0.017  0.019
   23  0.017  0.000  0.022  0.039
   24  0.001  0.001  0.017  0.019
   25  0.004  0.000  0.020  0.024
   26  0.004  0.000  0.020  0.024
   27  0.001  0.001  0.017  0.019
   28  0.003  0.000  0.003  0.006
   29  0.004  0.000  0.006  0.010
   30  0.004  0.000  0.006  0.010
   31  0.004  0.000  0.006  0.010
   32  0.004  0.000  0.006  0.010
   33  0.004  0.000  0.006  0.010
   34  0.004  0.000  0.006  0.010
   35  0.011  0.000  0.003  0.014
   36  0.000  0.001  0.002  0.004
   37  0.002  0.000  0.000  0.002
tot    0.243  0.013  0.482  0.739
 
band    12 # energy   -6.45999370 # occ.  2.00000000
 
ion      s      p      d    tot
    1  0.007  0.001  0.001  0.009
    2  0.000  0.001  0.006  0.007
    3  0.000  0.001  0.006  0.007
    4  0.000  0.001  0.006  0.007
    5  0.018  0.002  0.001  0.021
    6  0.000  0.001  0.006  0.007
    7  0.000  0.001  0.006  0.007
    8  0.000  0.001  0.006  0.007
    9  0.000  0.000  0.002  0.002
   10  0.023  0.003  0.002  0.028
   11  0.024  0.001  0.020  0.045
   12  0.023  0.003  0.002  0.028
   13  0.024  0.001  0.020  0.045
   14  0.024  0.001  0.020  0.045
   15  0.001  0.001  0.025  0.027
   16  0.023  0.003  0.002  0.028
   17  0.001  0.001  0.025  0.027
   18  0.001  0.001  0.025  0.027
   19  0.026  0.002  0.006  0.033
   20  0.006  0.003  0.017  0.025
   21  0.006  0.003  0.017  0.025
   22  0.006  0.000  0.027  0.033
   23  0.006  0.003  0.017  0.025
   24  0.006  0.000  0.027  0.033
   25  0.025  0.002  0.006  0.033
   26  0.026  0.002  0.006  0.033
   27  0.006  0.000  0.027  0.033
   28  0.011  0.001  0.001  0.013
   29  0.000  0.000  0.004  0.004
   30  0.000  0.000  0.004  0.004
   31  0.000  0.000  0.004  0.004
   32  0.000  0.000  0.004  0.004
   33  0.000  0.000  0.004  0.004
   34  0.000  0.000  0.004  0.004
   35  0.004  0.001  0.002  0.006
   36  0.000  0.000  0.000  0.000
   37  0.000  0.000  0.000  0.000
tot    0.297  0.040  0.357  0.694
 
band    13 # energy   -6.43920148 # occ.  2.00000000
 
ion      s      p      d    tot
    1  0.000  0.001  0.003  0.004
    2  0.002  0.001  0.003  0.006
    3  0.000  0.000  0.003  0.004
    4  0.007  0.001  0.004  0.011
    5  0.000  0.000  0.005  0.005
    6  0.009  0.001  0.004  0.014
    7  0.002  0.001  0.004  0.007
    8  0.006  0.001  0.004  0.012
    9  0.000  0.001  0.011  0.012
   10  0.002  0.004  0.005  0.011
   11  0.008  0.001  0.009  0.018
   12  0.013  0.002  0.010  0.025
   13  0.004  0.001  0.017  0.022
   14  0.001  0.001  0.024  0.026
   15  0.060  0.002  0.008  0.069
   16  0.024  0.000  0.016  0.041
   17  0.031  0.001  0.025  0.057
   18  0.005  0.001  0.040  0.046
   19  0.037  0.002  0.005  0.044
   20  0.000  0.002  0.011  0.013
   21  0.000  0.001  0.012  0.014
   22  0.017  0.002  0.014  0.033
   23  0.000  0.001  0.014  0.015
   24  0.003  0.004  0.016  0.022
   25  0.003  0.000  0.033  0.036
   26  0.019  0.001  0.020  0.040
   27  0.032  0.001  0.012  0.045
   28  0.000  0.000  0.006  0.007
   29  0.004  0.001  0.002  0.007
   30  0.003  0.001  0.002  0.006
   31  0.003  0.001  0.002  0.006
   32  0.001  0.000  0.001  0.003
   33  0.001  0.000  0.002  0.003
   34  0.000  0.000  0.002  0.002
   35  0.000  0.001  0.004  0.004
   36  0.000  0.000  0.000  0.000
   37  0.000  0.000  0.000  0.000
tot    0.297  0.041  0.354  0.692
 
band    14 # energy   -6.43920032 # occ.  2.00000000
 
ion      s      p      d    tot
    1  0.000  0.001  0.003  0.004
    2  0.007  0.001  0.004  0.012
    3  0.009  0.001  0.004  0.014
    4  0.002  0.001  0.004  0.007
    5  0.000  0.000  0.005  0.005
    6  0.000  0.000  0.003  0.004
    7  0.006  0.001  0.003  0.011
    8  0.002  0.001  0.003  0.006
    9  0.000  0.001  0.011  0.012
   10  0.024  0.000  0.016  0.040
   11  0.001  0.001  0.025  0.027
   12  0.013  0.002  0.010  0.026
   13  0.004  0.001  0.016  0.022
   14  0.008  0.001  0.009  0.018
   15  0.004  0.001  0.041  0.046
   16  0.002  0.004  0.004  0.011
   17  0.033  0.001  0.024  0.058
   18  0.059  0.002  0.008  0.069
   19  0.002  0.000  0.034  0.036
   20  0.000  0.001  0.013  0.015
   21  0.000  0.001  0.013  0.014
   22  0.018  0.002  0.014  0.034
   23  0.000  0.002  0.011  0.013
   24  0.032  0.001  0.012  0.045
   25  0.037  0.002  0.005  0.044
   26  0.020  0.001  0.019  0.040
   27  0.002  0.004  0.016  0.021
   28  0.000  0.000  0.006  0.007
   29  0.000  0.000  0.002  0.002
   30  0.001  0.000  0.001  0.003
   31  0.001  0.000  0.002  0.003
   32  0.003  0.001  0.002  0.006
   33  0.003  0.001  0.002  0.006
   34  0.004  0.001  0.002  0.007
   35  0.000  0.001  0.004  0.004
   36  0.000  0.000  0.000  0.000
   37  0.000  0.000  0.000  0.000
tot    0.297  0.041  0.354  0.692
 
band    15 # energy   -6.39626019 # occ.  2.00000000
 
ion      s      p      d    tot
    1  0.006  0.000  0.000  0.007
    2  0.001  0.000  0.004  0.004
    3  0.001  0.000  0.003  0.004
    4  0.001  0.000  0.003  0.004
    5  0.004  0.000  0.001  0.004
    6  0.001  0.000  0.003  0.004
    7  0.001  0.000  0.003  0.004
    8  0.001  0.000  0.003  0.004
    9  0.004  0.001  0.002  0.007
   10  0.003  0.000  0.017  0.020
   11  0.003  0.001  0.006  0.011
   12  0.003  0.000  0.017  0.020
   13  0.003  0.001  0.006  0.011
   14  0.003  0.001  0.006  0.011
   15  0.018  0.002  0.005  0.024
   16  0.003  0.000  0.017  0.020
   17  0.018  0.002  0.005  0.024
   18  0.018  0.002  0.005  0.024
   19  0.001  0.001  0.013  0.016
   20  0.000  0.000  0.028  0.028
   21  0.000  0.000  0.028  0.028
   22  0.018  0.003  0.010  0.030
   23  0.000  0.000  0.028  0.028
   24  0.018  0.003  0.010  0.030
   25  0.001  0.001  0.013  0.016
   26  0.001  0.001  0.013  0.016
   27  0.018  0.003  0.010  0.030
   28  0.018  0.000  0.015  0.033
   29  0.017  0.000  0.014  0.031
   30  0.017  0.000  0.014  0.031
   31  0.017  0.000  0.014  0.031
   32  0.017  0.000  0.014  0.031
   33  0.017  0.000  0.014  0.031
   34  0.017  0.000  0.014  0.031
   35  0.010  0.000  0.016  0.026
   36  0.002  0.001  0.013  0.016
   37  0.011  0.000  0.000  0.011
tot    0.291  0.026  0.387  0.705
 
band    16 # energy   -6.02498324 # occ.  2.00000000
 
ion      s      p      d    tot
    1  0.000  0.001  0.004  0.004
    2  0.001  0.001  0.005  0.006
    3  0.009  0.001  0.004  0.014
    4  0.001  0.001  0.005  0.006
    5  0.000  0.001  0.010  0.011
    6  0.005  0.001  0.004  0.009
    7  0.009  0.001  0.004  0.014
    8  0.005  0.001  0.004  0.009
    9  0.000  0.000  0.008  0.009
   10  0.000  0.001  0.049  0.050
   11  0.016  0.001  0.021  0.037
   12  0.007  0.002  0.019  0.027
   13  0.016  0.001  0.021  0.037
   14  0.000  0.000  0.050  0.050
   15  0.002  0.000  0.019  0.021
   16  0.007  0.002  0.019  0.027
   17  0.002  0.000  0.019  0.021
   18  0.000  0.001  0.011  0.013
   19  0.004  0.000  0.019  0.023
   20  0.000  0.000  0.081  0.081
   21  0.017  0.001  0.026  0.044
   22  0.004  0.001  0.019  0.024
   23  0.017  0.001  0.026  0.044
   24  0.000  0.001  0.036  0.037
   25  0.000  0.001  0.010  0.011
   26  0.004  0.000  0.019  0.023
   27  0.004  0.001  0.019  0.024
   28  0.000  0.000  0.007  0.008
   29  0.003  0.001  0.005  0.008
   30  0.008  0.001  0.005  0.014
   31  0.003  0.001  0.005  0.008
   32  0.001  0.001  0.004  0.006
   33  0.008  0.001  0.005  0.014
   34  0.001  0.001  0.004  0.006
   35  0.000  0.000  0.003  0.003
   36  0.000  0.001  0.004  0.005
   37  0.000  0.000  0.000  0.000
tot    0.150  0.028  0.571  0.749
 
band    17 # energy   -6.02496365 # occ.  2.00000000
 
ion      s      p      d    tot
    1  0.000  0.001  0.004  0.004
    2  0.009  0.001  0.004  0.014
    3  0.001  0.000  0.004  0.005
    4  0.009  0.001  0.004  0.014
    5  0.000  0.001  0.010  0.011
    6  0.005  0.001  0.005  0.011
    7  0.001  0.000  0.004  0.005
    8  0.005  0.001  0.005  0.011
    9  0.000  0.000  0.008  0.009
   10  0.009  0.002  0.009  0.019
   11  0.005  0.000  0.040  0.046
   12  0.002  0.001  0.039  0.042
   13  0.005  0.000  0.040  0.046
   14  0.021  0.001  0.011  0.033
   15  0.001  0.001  0.014  0.016
   16  0.002  0.001  0.039  0.042
   17  0.001  0.001  0.014  0.016
   18  0.002  0.000  0.022  0.025
   19  0.001  0.001  0.013  0.015
   20  0.022  0.001  0.008  0.031
   21  0.006  0.000  0.062  0.068
   22  0.001  0.001  0.031  0.033
   23  0.006  0.000  0.062  0.068
   24  0.005  0.001  0.013  0.019
   25  0.006  0.000  0.022  0.028
   26  0.001  0.001  0.013  0.015
   27  0.001  0.001  0.031  0.033
   28  0.000  0.000  0.007  0.008
   29  0.005  0.001  0.004  0.010
   30  0.000  0.000  0.004  0.004
   31  0.005  0.001  0.004  0.010
   32  0.007  0.001  0.005  0.013
   33  0.000  0.000  0.004  0.004
   34  0.007  0.001  0.005  0.013
   35  0.000  0.000  0.003  0.003
   36  0.000  0.001  0.004  0.005
   37  0.000  0.000  0.000  0.000
tot    0.150  0.028  0.571  0.749
 
band    18 # energy   -6.02238048 # occ.  2.00000000
 
ion      s      p      d    tot
    1  0.015  0.002  0.002  0.019
    2  0.000  0.001  0.008  0.008
    3  0.000  0.001  0.008  0.008
    4  0.000  0.001  0.008  0.008
    5  0.000  0.000  0.002  0.002
    6  0.000  0.001  0.008  0.008
    7  0.000  0.001  0.008  0.008
    8  0.000  0.001  0.008  0.008
    9  0.015  0.001  0.000  0.016
   10  0.010  0.001  0.013  0.024
   11  0.003  0.000  0.043  0.046
   12  0.010  0.001  0.013  0.024
   13  0.003  0.000  0.043  0.046
   14  0.003  0.000  0.043  0.046
   15  0.003  0.001  0.023  0.027
   16  0.010  0.001  0.013  0.024
   17  0.003  0.001  0.023  0.027
   18  0.003  0.001  0.023  0.027
   19  0.005  0.001  0.011  0.016
   20  0.001  0.000  0.054  0.055
   21  0.001  0.000  0.054  0.055
   22  0.011  0.001  0.021  0.033
   23  0.001  0.000  0.054  0.055
   24  0.011  0.001  0.021  0.034
   25  0.004  0.001  0.011  0.016
   26  0.005  0.001  0.011  0.016
   27  0.011  0.001  0.021  0.033
   28  0.013  0.001  0.000  0.015
   29  0.000  0.000  0.006  0.007
   30  0.000  0.000  0.006  0.006
   31  0.000  0.000  0.006  0.007
   32  0.000  0.000  0.006  0.007
   33  0.000  0.000  0.006  0.006
   34  0.000  0.000  0.006  0.007
   35  0.006  0.001  0.003  0.010
   36  0.000  0.000  0.001  0.001
   37  0.000  0.000  0.000  0.000
tot    0.146  0.027  0.582  0.755
 
band    19 # energy   -5.95755657 # occ.  2.00000000
 
ion      s      p      d    tot
    1  0.000  0.001  0.015  0.015
    2  0.010  0.001  0.004  0.015
    3  0.001  0.000  0.005  0.007
    4  0.010  0.001  0.004  0.015
    5  0.000  0.000  0.006  0.006
    6  0.004  0.001  0.005  0.010
    7  0.001  0.000  0.005  0.007
    8  0.004  0.001  0.005  0.010
    9  0.000  0.001  0.006  0.007
   10  0.000  0.001  0.032  0.032
   11  0.000  0.001  0.020  0.021
   12  0.008  0.000  0.022  0.030
   13  0.000  0.001  0.020  0.021
   14  0.000  0.001  0.017  0.018
   15  0.010  0.002  0.020  0.032
   16  0.008  0.000  0.022  0.030
   17  0.010  0.002  0.020  0.032
   18  0.000  0.000  0.062  0.062
   19  0.014  0.001  0.020  0.035
   20  0.000  0.002  0.021  0.023
   21  0.000  0.001  0.024  0.025
   22  0.017  0.001  0.020  0.038
   23  0.000  0.001  0.024  0.025
   24  0.000  0.001  0.030  0.030
   25  0.000  0.000  0.068  0.068
   26  0.014  0.001  0.020  0.035
   27  0.017  0.001  0.021  0.038
   28  0.000  0.001  0.005  0.006
   29  0.005  0.001  0.003  0.010
   30  0.000  0.000  0.005  0.005
   31  0.005  0.001  0.003  0.010
   32  0.004  0.001  0.003  0.008
   33  0.000  0.000  0.005  0.005
   34  0.004  0.001  0.003  0.008
   35  0.000  0.001  0.008  0.009
   36  0.000  0.000  0.001  0.001
   37  0.000  0.000  0.000  0.000
tot    0.147  0.028  0.576  0.750
 
band    20 # energy   -5.95754447 # occ.  2.00000000
 
ion      s      p      d    tot
    1  0.000  0.001  0.015  0.015
    2  0.000  0.000  0.005  0.006
    3  0.009  0.001  0.005  0.015
    4  0.000  0.000  0.005  0.006
    5  0.000  0.000  0.006  0.006
    6  0.006  0.001  0.005  0.011
    7  0.008  0.001  0.005  0.015
    8  0.006  0.001  0.005  0.011
    9  0.000  0.001  0.006  0.007
   10  0.010  0.000  0.019  0.029
   11  0.000  0.001  0.018  0.019
   12  0.002  0.001  0.029  0.032
   13  0.000  0.001  0.018  0.019
   14  0.001  0.001  0.021  0.022
   15  0.003  0.001  0.048  0.052
   16  0.003  0.001  0.029  0.032
   17  0.003  0.001  0.048  0.052
   18  0.013  0.002  0.006  0.022
   19  0.005  0.001  0.052  0.057
   20  0.000  0.000  0.025  0.026
   21  0.000  0.001  0.022  0.024
   22  0.006  0.001  0.027  0.033
   23  0.000  0.001  0.022  0.024
   24  0.023  0.001  0.017  0.041
   25  0.019  0.001  0.004  0.024
   26  0.005  0.001  0.052  0.057
   27  0.006  0.001  0.027  0.033
   28  0.000  0.001  0.005  0.006
   29  0.001  0.000  0.004  0.005
   30  0.006  0.001  0.002  0.010
   31  0.001  0.000  0.004  0.005
   32  0.002  0.001  0.005  0.007
   33  0.006  0.001  0.002  0.010
   34  0.002  0.001  0.005  0.007
   35  0.000  0.001  0.008  0.009
   36  0.000  0.000  0.001  0.001
   37  0.000  0.000  0.000  0.000
tot    0.147  0.028  0.576  0.750
 
band    21 # energy   -5.92930207 # occ.  2.00000000
 
ion      s      p      d    tot
    1  0.010  0.000  0.001  0.011
    2  0.000  0.001  0.009  0.010
    3  0.000  0.001  0.009  0.010
    4  0.000  0.001  0.009  0.010
    5  0.018  0.002  0.001  0.021
    6  0.000  0.001  0.009  0.010
    7  0.000  0.001  0.009  0.010
    8  0.000  0.001  0.009  0.010
    9  0.002  0.000  0.002  0.004
   10  0.000  0.000  0.042  0.042
   11  0.005  0.002  0.014  0.021
   12  0.000  0.000  0.042  0.042
   13  0.005  0.002  0.014  0.021
   14  0.005  0.002  0.014  0.021
   15  0.005  0.001  0.025  0.031
   16  0.000  0.000  0.042  0.042
   17  0.005  0.001  0.025  0.031
   18  0.005  0.001  0.025  0.031
   19  0.009  0.000  0.046  0.056
   20  0.011  0.001  0.005  0.016
   21  0.011  0.001  0.005  0.016
   22  0.001  0.000  0.035  0.036
   23  0.011  0.001  0.005  0.016
   24  0.001  0.000  0.035  0.036
   25  0.009  0.000  0.046  0.056
   26  0.009  0.000  0.046  0.056
   27  0.001  0.000  0.035  0.036
   28  0.000  0.001  0.008  0.009
   29  0.001  0.000  0.006  0.007
   30  0.001  0.000  0.006  0.007
   31  0.001  0.000  0.006  0.007
   32  0.001  0.000  0.006  0.007
   33  0.001  0.000  0.006  0.007
   34  0.001  0.000  0.006  0.007
   35  0.002  0.000  0.000  0.002
   36  0.002  0.002  0.001  0.005