PROCAR new format
# of k-points:   10         # of bands:  252         # of ions:   39

 k-point     1 :    0.00000000 0.00000000 0.00000000     weight = 0.01562500

band     1 # energy  -23.45268048 # occ.  2.00000000
 
ion      s      p      d    tot
    1  0.000  0.000  0.000  0.000
    2  0.000  0.000  0.000  0.000
    3  0.000  0.000  0.000  0.000
    4  0.000  0.000  0.000  0.000
    5  0.000  0.000  0.000  0.000
    6  0.000  0.000  0.000  0.000
    7  0.000  0.000  0.000  0.000
    8  0.000  0.000  0.000  0.000
    9  0.000  0.000  0.000  0.000
   10  0.000  0.000  0.000  0.000
   11  0.000  0.000  0.000  0.000
   12  0.000  0.000  0.000  0.000
   13  0.000  0.000  0.000  0.000
   14  0.000  0.000  0.000  0.000
   15  0.000  0.000  0.000  0.000
   16  0.000  0.000  0.000  0.000
   17  0.000  0.000  0.000  0.000
   18  0.000  0.000  0.000  0.000
   19  0.000  0.000  0.000  0.000
   20  0.000  0.000  0.000  0.000
   21  0.000  0.000  0.000  0.000
   22  0.000  0.000  0.000  0.000
   23  0.000  0.000  0.000  0.000
   24  0.000  0.000  0.000  0.000
   25  0.000  0.000  0.000  0.000
   26  0.000  0.000  0.000  0.000
   27  0.000  0.000  0.000  0.000
   28  0.000  0.000  0.000  0.000
   29  0.000  0.000  0.000  0.000
   30  0.000  0.000  0.000  0.000
   31  0.000  0.000  0.000  0.000
   32  0.000  0.000  0.000  0.000
   33  0.000  0.000  0.000  0.000
   34  0.000  0.000  0.000  0.000
   35  0.000  0.000  0.000  0.000
   36  0.000  0.000  0.000  0.000
   37  0.074  0.054  0.000  0.128
   38  0.726  0.005  0.000  0.731
   39  0.065  0.014  0.000  0.079
tot    0.865  0.073  0.000  0.938
 
band     2 # energy  -14.22341025 # occ.  2.00000000
 
ion      s      p      d    tot
    1  0.000  0.000  0.000  0.000
    2  0.000  0.000  0.000  0.000
    3  0.000  0.000  0.000  0.000
    4  0.000  0.000  0.000  0.000
    5  0.000  0.000  0.000  0.000
    6  0.000  0.000  0.000  0.000
    7  0.000  0.000  0.000  0.000
    8  0.000  0.000  0.000  0.000
    9  0.000  0.000  0.000  0.000
   10  0.000  0.000  0.000  0.000
   11  0.000  0.000  0.000  0.000
   12  0.000  0.000  0.000  0.000
   13  0.000  0.000  0.000  0.000
   14  0.000  0.000  0.000  0.000
   15  0.000  0.000  0.000  0.000
   16  0.000  0.000  0.000  0.000
   17  0.000  0.000  0.000  0.000
   18  0.000  0.000  0.000  0.000
   19  0.000  0.000  0.000  0.000
   20  0.000  0.000  0.000  0.000
   21  0.000  0.000  0.000  0.000
   22  0.000  0.000  0.000  0.000
   23  0.000  0.000  0.000  0.000
   24  0.000  0.000  0.000  0.000
   25  0.000  0.000  0.000  0.000
   26  0.000  0.000  0.000  0.000
   27  0.000  0.000  0.000  0.000
   28  0.000  0.000  0.000  0.000
   29  0.000  0.000  0.000  0.000
   30  0.000  0.000  0.000  0.000
   31  0.000  0.000  0.000  0.000
   32  0.000  0.000  0.000  0.000
   33  0.000  0.000  0.000  0.000
   34  0.000  0.000  0.000  0.000
   35  0.000  0.000  0.000  0.000
   36  0.003  0.002  0.004  0.009
   37  0.161  0.049  0.000  0.210
   38  0.015  0.519  0.000  0.534
   39  0.201  0.032  0.000  0.233
tot    0.380  0.602  0.004  0.987
 
band     3 # energy   -7.44403845 # occ.  2.00000000
 
ion      s      p      d    tot
    1  0.000  0.000  0.000  0.000
    2  0.000  0.000  0.000  0.000
    3  0.000  0.000  0.000  0.000
    4  0.000  0.000  0.000  0.000
    5  0.000  0.000  0.000  0.000
    6  0.000  0.000  0.000  0.000
    7  0.000  0.000  0.000  0.000
    8  0.000  0.000  0.000  0.000
    9  0.000  0.000  0.000  0.000
   10  0.001  0.000  0.000  0.002
   11  0.001  0.000  0.000  0.001
   12  0.001  0.000  0.000  0.002
   13  0.001  0.000  0.000  0.001
   14  0.001  0.000  0.000  0.001
   15  0.001  0.000  0.000  0.001
   16  0.001  0.000  0.000  0.002
   17  0.001  0.000  0.000  0.001
   18  0.001  0.000  0.000  0.001
   19  0.002  0.000  0.000  0.003
   20  0.011  0.002  0.010  0.024
   21  0.011  0.002  0.010  0.024
   22  0.002  0.000  0.000  0.002
   23  0.011  0.002  0.010  0.024
   24  0.002  0.000  0.000  0.002
   25  0.002  0.000  0.000  0.003
   26  0.002  0.000  0.000  0.003
   27  0.002  0.000  0.000  0.002
   28  0.001  0.000  0.000  0.001
   29  0.004  0.001  0.002  0.007
   30  0.004  0.001  0.002  0.007
   31  0.004  0.001  0.002  0.007
   32  0.004  0.001  0.002  0.007
   33  0.004  0.001  0.002  0.007
   34  0.004  0.001  0.002  0.007
   35  0.001  0.000  0.000  0.001
   36  0.187  0.031  0.161  0.379
   37  0.142  0.136  0.000  0.279
   38  0.010  0.043  0.000  0.054
   39  0.012  0.001  0.000  0.013
tot    0.438  0.221  0.207  0.866
 
band     4 # energy   -6.60295834 # occ.  2.00000000
 
ion      s      p      d    tot
    1  0.007  0.001  0.000  0.007
    2  0.007  0.001  0.000  0.007
    3  0.007  0.001  0.000  0.007
    4  0.007  0.001  0.000  0.007
    5  0.007  0.001  0.000  0.008
    6  0.007  0.001  0.000  0.007
    7  0.007  0.001  0.000  0.007
    8  0.007  0.001  0.000  0.007
    9  0.007  0.001  0.000  0.008
   10  0.023  0.000  0.001  0.024
   11  0.025  0.000  0.000  0.025
   12  0.023  0.000  0.001  0.024
   13  0.025  0.000  0.000  0.025
   14  0.025  0.000  0.000  0.025
   15  0.024  0.000  0.000  0.025
   16  0.023  0.000  0.001  0.024
   17  0.024  0.000  0.000  0.025
   18  0.024  0.000  0.000  0.025
   19  0.019  0.000  0.000  0.019
   20  0.016  0.001  0.002  0.018
   21  0.016  0.001  0.002  0.018
   22  0.020  0.000  0.000  0.020
   23  0.016  0.001  0.002  0.018
   24  0.020  0.000  0.000  0.020
   25  0.019  0.000  0.000  0.019
   26  0.019  0.000  0.000  0.019
   27  0.020  0.000  0.000  0.020
   28  0.004  0.000  0.000  0.004
   29  0.002  0.001  0.001  0.004
   30  0.002  0.001  0.001  0.004
   31  0.002  0.001  0.001  0.004
   32  0.002  0.001  0.001  0.004
   33  0.002  0.001  0.001  0.004
   34  0.002  0.001  0.001  0.004
   35  0.004  0.000  0.000  0.004
   36  0.004  0.011  0.028  0.044
   37  0.022  0.018  0.000  0.040
   38  0.002  0.005  0.000  0.007
   39  0.002  0.000  0.000  0.002
tot    0.491  0.049  0.046  0.586
 
band     5 # energy   -6.30141051 # occ.  2.00000000
 
ion      s      p      d    tot
    1  0.000  0.000  0.000  0.000
    2  0.000  0.000  0.000  0.000
    3  0.000  0.000  0.000  0.000
    4  0.000  0.000  0.000  0.000
    5  0.000  0.000  0.000  0.000
    6  0.000  0.000  0.000  0.000
    7  0.000  0.000  0.000  0.000
    8  0.000  0.000  0.000  0.000
    9  0.000  0.000  0.000  0.000
   10  0.000  0.000  0.000  0.000
   11  0.000  0.000  0.000  0.000
   12  0.000  0.000  0.000  0.000
   13  0.000  0.000  0.000  0.000
   14  0.000  0.000  0.000  0.000
   15  0.000  0.000  0.000  0.000
   16  0.000  0.000  0.000  0.000
   17  0.000  0.000  0.000  0.000
   18  0.000  0.000  0.000  0.000
   19  0.000  0.000  0.000  0.000
   20  0.000  0.000  0.001  0.001
   21  0.000  0.000  0.001  0.001
   22  0.000  0.000  0.000  0.000
   23  0.000  0.000  0.001  0.001
   24  0.000  0.000  0.000  0.000
   25  0.000  0.000  0.000  0.000
   26  0.000  0.000  0.000  0.000
   27  0.000  0.000  0.000  0.000
   28  0.000  0.000  0.000  0.000
   29  0.000  0.000  0.002  0.003
   30  0.000  0.000  0.001  0.001
   31  0.000  0.000  0.002  0.003
   32  0.000  0.000  0.002  0.003
   33  0.000  0.000  0.001  0.001
   34  0.000  0.000  0.002  0.003
   35  0.000  0.000  0.000  0.000
   36  0.000  0.002  0.022  0.024
   37  0.000  0.113  0.000  0.113
   38  0.000  0.517  0.000  0.517
   39  0.000  0.008  0.000  0.008
tot    0.002  0.640  0.034  0.676
 
band     6 # energy   -6.30124482 # occ.  2.00000000
 
ion      s      p      d    tot
    1  0.000  0.000  0.000  0.000
    2  0.000  0.000  0.000  0.000
    3  0.000  0.000  0.000  0.000
    4  0.000  0.000  0.000  0.000
    5  0.000  0.000  0.000  0.000
    6  0.000  0.000  0.000  0.000
    7  0.000  0.000  0.000  0.000
    8  0.000  0.000  0.000  0.000
    9  0.000  0.000  0.000  0.000
   10  0.000  0.000  0.000  0.000
   11  0.000  0.000  0.000  0.000
   12  0.000  0.000  0.000  0.000
   13  0.000  0.000  0.000  0.000
   14  0.000  0.000  0.000  0.000
   15  0.000  0.000  0.000  0.000
   16  0.000  0.000  0.000  0.000
   17  0.000  0.000  0.000  0.000
   18  0.000  0.000  0.000  0.000
   19  0.000  0.000  0.000  0.000
   20  0.000  0.000  0.001  0.001
   21  0.000  0.000  0.001  0.001
   22  0.000  0.000  0.000  0.000
   23  0.000  0.000  0.001  0.001
   24  0.000  0.000  0.000  0.000
   25  0.000  0.000  0.000  0.000
   26  0.000  0.000  0.000  0.000
   27  0.000  0.000  0.000  0.000
   28  0.000  0.000  0.000  0.000
   29  0.000  0.000  0.001  0.001
   30  0.001  0.000  0.002  0.003
   31  0.000  0.000  0.001  0.001
   32  0.000  0.000  0.001  0.001
   33  0.001  0.000  0.002  0.003
   34  0.000  0.000  0.001  0.001
   35  0.000  0.000  0.000  0.000
   36  0.000  0.002  0.022  0.024
   37  0.000  0.113  0.000  0.113
   38  0.000  0.517  0.000  0.517
   39  0.000  0.008  0.000  0.008
tot    0.002  0.640  0.034  0.676
 
band     7 # energy   -5.79276372 # occ.  2.00000000
 
ion      s      p      d    tot
    1  0.008  0.000  0.000  0.008
    2  0.006  0.000  0.000  0.007
    3  0.006  0.000  0.000  0.007
    4  0.006  0.000  0.000  0.007
    5  0.006  0.000  0.000  0.006
    6  0.006  0.000  0.000  0.007
    7  0.006  0.000  0.000  0.007
    8  0.006  0.000  0.000  0.007
    9  0.006  0.000  0.000  0.007
   10  0.011  0.001  0.014  0.027
   11  0.008  0.001  0.018  0.027
   12  0.011  0.001  0.014  0.027
   13  0.008  0.001  0.018  0.027
   14  0.008  0.001  0.018  0.027
   15  0.008  0.001  0.014  0.023
   16  0.011  0.001  0.014  0.027
   17  0.008  0.001  0.014  0.023
   18  0.008  0.001  0.014  0.023
   19  0.013  0.001  0.019  0.032
   20  0.011  0.001  0.028  0.040
   21  0.011  0.001  0.028  0.040
   22  0.015  0.001  0.018  0.034
   23  0.011  0.001  0.028  0.040
   24  0.015  0.001  0.018  0.034
   25  0.013  0.001  0.019  0.032
   26  0.013  0.001  0.019  0.032
   27  0.015  0.001  0.018  0.034
   28  0.006  0.000  0.000  0.007
   29  0.005  0.001  0.001  0.006
   30  0.005  0.001  0.001  0.006
   31  0.005  0.001  0.001  0.006
   32  0.005  0.001  0.001  0.006
   33  0.005  0.001  0.001  0.006
   34  0.005  0.001  0.001  0.006
   35  0.006  0.000  0.000  0.007
   36  0.000  0.004  0.009  0.013
   37  0.006  0.004  0.000  0.010
   38  0.000  0.001  0.000  0.001
   39  0.000  0.000  0.000  0.000
tot    0.305  0.031  0.348  0.684
 
band     8 # energy   -5.57921620 # occ.  2.00000000
 
ion      s      p      d    tot
    1  0.010  0.000  0.015  0.025
    2  0.008  0.000  0.011  0.019
    3  0.008  0.000  0.011  0.019
    4  0.008  0.000  0.011  0.019
    5  0.006  0.000  0.008  0.014
    6  0.008  0.000  0.011  0.019
    7  0.008  0.000  0.011  0.019
    8  0.008  0.000  0.011  0.019
    9  0.010  0.000  0.009  0.019
   10  0.000  0.000  0.021  0.021
   11  0.000  0.000  0.007  0.008
   12  0.000  0.000  0.021  0.021
   13  0.000  0.000  0.007  0.008
   14  0.000  0.000  0.007  0.008
   15  0.000  0.000  0.006  0.006
   16  0.000  0.000  0.021  0.021
   17  0.000  0.000  0.006  0.006
   18  0.000  0.000  0.006  0.006
   19  0.001  0.000  0.013  0.014
   20  0.000  0.000  0.058  0.058
   21  0.000  0.000  0.058  0.058
   22  0.001  0.000  0.007  0.009
   23  0.000  0.000  0.058  0.058
   24  0.001  0.000  0.007  0.009
   25  0.001  0.000  0.013  0.014
   26  0.001  0.000  0.013  0.014
   27  0.001  0.000  0.007  0.009
   28  0.007  0.000  0.009  0.016
   29  0.011  0.000  0.016  0.028
   30  0.011  0.000  0.016  0.028
   31  0.011  0.000  0.016  0.028
   32  0.011  0.000  0.016  0.028
   33  0.011  0.000  0.016  0.028
   34  0.011  0.000  0.016  0.028
   35  0.012  0.000  0.008  0.020
   36  0.011  0.000  0.037  0.049
   37  0.003  0.002  0.000  0.005
   38  0.000  0.000  0.000  0.000
   39  0.000  0.000  0.000  0.000
tot    0.183  0.011  0.585  0.780
 
band     9 # energy   -5.44830918 # occ.  2.00000000
 
ion      s      p      d    tot
    1  0.005  0.000  0.012  0.017
    2  0.007  0.000  0.018  0.025
    3  0.007  0.000  0.018  0.025
    4  0.007  0.000  0.018  0.025
    5  0.013  0.000  0.021  0.034
    6  0.008  0.000  0.018  0.025
    7  0.007  0.000  0.018  0.025
    8  0.008  0.000  0.018  0.025
    9  0.006  0.000  0.015  0.021
   10  0.002  0.001  0.000  0.003
   11  0.001  0.000  0.033  0.035
   12  0.002  0.001  0.001  0.003
   13  0.001  0.000  0.033  0.035
   14  0.001  0.000  0.033  0.035
   15  0.000  0.000  0.023  0.023
   16  0.002  0.001  0.001  0.003
   17  0.000  0.000  0.023  0.023
   18  0.000  0.000  0.023  0.023
   19  0.004  0.000  0.014  0.019
   20  0.003  0.000  0.076  0.079
   21  0.003  0.000  0.076  0.079
   22  0.004  0.000  0.015  0.019
   23  0.003  0.000  0.076  0.079
   24  0.004  0.000  0.016  0.020
   25  0.004  0.000  0.013  0.017
   26  0.004  0.000  0.014  0.019
   27  0.004  0.000  0.015  0.019
   28  0.000  0.000  0.000  0.001
   29  0.000  0.000  0.006  0.007
   30  0.000  0.000  0.006  0.007
   31  0.000  0.000  0.006  0.007
   32  0.000  0.000  0.006  0.007
   33  0.000  0.000  0.006  0.007
   34  0.000  0.000  0.006  0.007
   35  0.002  0.000  0.001  0.003
   36  0.003  0.002  0.004  0.009
   37  0.001  0.000  0.000  0.001
   38  0.000  0.000  0.000  0.000
   39  0.000  0.000  0.000  0.000
tot    0.119  0.011  0.680  0.809
 
band    10 # energy   -5.44646981 # occ.  2.00000000
 
ion      s      p      d    tot
    1  0.000  0.000  0.008  0.008
    2  0.001  0.000  0.002  0.003
    3  0.001  0.000  0.002  0.003
    4  0.001  0.000  0.002  0.003
    5  0.000  0.000  0.004  0.004
    6  0.000  0.000  0.002  0.002
    7  0.001  0.000  0.002  0.003
    8  0.000  0.000  0.002  0.002
    9  0.000  0.000  0.001  0.001
   10  0.000  0.001  0.019  0.020
   11  0.001  0.000  0.022  0.023
   12  0.006  0.001  0.016  0.023
   13  0.001  0.000  0.022  0.023
   14  0.000  0.001  0.023  0.024
   15  0.002  0.000  0.009  0.012
   16  0.006  0.001  0.016  0.023
   17  0.002  0.000  0.009  0.012
   18  0.000  0.000  0.010  0.010
   19  0.015  0.001  0.037  0.053
   20  0.000  0.000  0.180  0.180
   21  0.021  0.000  0.051  0.072
   22  0.000  0.001  0.035  0.036
   23  0.021  0.000  0.049  0.070
   24  0.000  0.001  0.046  0.047
   25  0.000  0.001  0.021  0.023
   26  0.015  0.001  0.036  0.052
   27  0.000  0.001  0.034  0.035
   28  0.000  0.000  0.005  0.005
   29  0.000  0.000  0.007  0.007
   30  0.001  0.000  0.003  0.004
   31  0.000  0.000  0.007  0.007
   32  0.001  0.001  0.005  0.007
   33  0.001  0.000  0.003  0.004
   34  0.001  0.001  0.005  0.007
   35  0.000  0.000  0.001  0.001
   36  0.000  0.002  0.007  0.008
   37  0.000  0.000  0.000  0.000
   38  0.000  0.002  0.000  0.002
   39  0.000  0.000  0.000  0.000
tot    0.096  0.017  0.705  0.818
 
band    11 # energy   -5.44639701 # occ.  2.00000000
 
ion      s      p      d    tot
    1  0.000  0.000  0.008  0.008
    2  0.000  0.000  0.002  0.003
    3  0.000  0.000  0.002  0.003
    4  0.000  0.000  0.002  0.003
    5  0.000  0.000  0.004  0.004
    6  0.001  0.000  0.002  0.003
    7  0.000  0.000  0.002  0.003
    8  0.001  0.000  0.002  0.003
    9  0.000  0.000  0.001  0.001
   10  0.007  0.001  0.016  0.024
   11  0.000  0.001  0.023  0.024
   12  0.002  0.001  0.018  0.021
   13  0.000  0.001  0.023  0.024
   14  0.001  0.000  0.021  0.022
   15  0.001  0.000  0.009  0.010
   16  0.002  0.001  0.018  0.021
   17  0.001  0.000  0.009  0.010
   18  0.003  0.001  0.009  0.013
   19  0.005  0.001  0.026  0.032
   20  0.028  0.000  0.007  0.034
   21  0.007  0.000  0.135  0.143
   22  0.000  0.001  0.042  0.043
   23  0.007  0.000  0.138  0.145
   24  0.000  0.000  0.030  0.031
   25  0.021  0.000  0.042  0.063
   26  0.005  0.001  0.026  0.032
   27  0.000  0.001  0.042  0.043
   28  0.000  0.000  0.005  0.005
   29  0.001  0.000  0.003  0.005
   30  0.000  0.000  0.007  0.008
   31  0.001  0.000  0.003  0.005
   32  0.000  0.000  0.005  0.005
   33  0.000  0.000  0.007  0.008
   34  0.000  0.000  0.005  0.005
   35  0.000  0.000  0.001  0.001
   36  0.000  0.002  0.007  0.008
   37  0.000  0.000  0.000  0.000
   38  0.000  0.002  0.000  0.002
   39  0.000  0.000  0.000  0.000
tot    0.096  0.017  0.705  0.818
 
band    12 # energy   -5.41981231 # occ.  2.00000000
 
ion      s      p      d    tot
    1  0.000  0.000  0.005  0.005
    2  0.001  0.000  0.003  0.004
    3  0.001  0.001  0.007  0.009
    4  0.000  0.000  0.004  0.005
    5  0.000  0.000  0.008  0.009
    6  0.001  0.001  0.007  0.009
    7  0.000  0.000  0.003  0.003
    8  0.001  0.000  0.002  0.003
    9  0.000  0.000  0.001  0.001
   10  0.005  0.001  0.044  0.050
   11  0.026  0.001  0.028  0.054
   12  0.000  0.000  0.096  0.096
   13  0.000  0.001  0.084  0.085
   14  0.020  0.001  0.040  0.061
   15  0.006  0.000  0.031  0.037
   16  0.007  0.001  0.029  0.036
   17  0.000  0.002  0.007  0.009
   18  0.004  0.001  0.026  0.031
   19  0.001  0.000  0.016  0.017
   20  0.007  0.001  0.039  0.047
   21  0.000  0.001  0.030  0.031
   22  0.000  0.000  0.026  0.027
   23  0.009  0.001  0.041  0.050
   24  0.008  0.001  0.015  0.023
   25  0.000  0.000  0.019  0.020
   26  0.000  0.000  0.029  0.029
   27  0.010  0.001  0.012  0.022
   28  0.000  0.000  0.001  0.001
   29  0.001  0.000  0.004  0.004
   30  0.000  0.000  0.002  0.002
   31  0.001  0.000  0.004  0.006
   32  0.000  0.000  0.003  0.003
   33  0.001  0.000  0.004  0.006
   34  0.001  0.000  0.004  0.005
   35  0.000  0.000  0.006  0.006
   36  0.000  0.000  0.005  0.005
   37  0.000  0.000  0.000  0.000
   38  0.000  0.000  0.000  0.000
   39  0.000  0.000  0.000  0.000
tot    0.111  0.015  0.685  0.811
 
band    13 # energy   -5.41981212 # occ.  2.00000000
 
ion      s      p      d    tot
    1  0.000  0.000  0.005  0.005
    2  0.001  0.000  0.006  0.007
    3  0.000  0.000  0.002  0.002
    4  0.001  0.001  0.005  0.006
    5  0.000  0.000  0.008  0.009
    6  0.000  0.000  0.002  0.002
    7  0.001  0.001  0.006  0.007
    8  0.001  0.000  0.007  0.008
    9  0.000  0.000  0.001  0.001
   10  0.003  0.000  0.069  0.072
   11  0.005  0.001  0.073  0.079
   12  0.008  0.001  0.017  0.025
   13  0.031  0.001  0.017  0.049
   14  0.011  0.001  0.061  0.072
   15  0.001  0.001  0.012  0.014
   16  0.001  0.000  0.083  0.085
   17  0.007  0.000  0.036  0.043
   18  0.002  0.001  0.017  0.020
   19  0.000  0.000  0.026  0.027
   20  0.004  0.001  0.035  0.039
   21  0.010  0.001  0.043  0.054
   22  0.011  0.001  0.009  0.021
   23  0.002  0.001  0.032  0.035
   24  0.004  0.000  0.020  0.025
   25  0.000  0.000  0.024  0.024
   26  0.001  0.000  0.014  0.015
   27  0.002  0.000  0.024  0.026
   28  0.000  0.000  0.001  0.001
   29  0.001  0.000  0.004  0.005
   30  0.001  0.000  0.005  0.006
   31  0.000  0.000  0.003  0.003
   32  0.001  0.000  0.005  0.006
   33  0.000  0.000  0.003  0.003
   34  0.001  0.000  0.003  0.004
   35  0.000  0.000  0.006  0.006
   36  0.000  0.000  0.005  0.005
   37  0.000  0.000  0.000  0.000
   38  0.000  0.000  0.000  0.000
   39  0.000  0.000  0.000  0.000
tot    0.111  0.015  0.685  0.811
 
band    14 # energy   -5.41287732 # occ.  2.00000000
 
ion      s      p      d    tot
    1  0.005  0.001  0.003  0.008
    2  0.000  0.000  0.006  0.006
    3  0.000  0.000  0.006  0.006
    4  0.000  0.000  0.006  0.006
    5  0.002  0.000  0.003  0.005
    6  0.000  0.000  0.006  0.006
    7  0.000  0.000  0.006  0.006
    8  0.000  0.000  0.006  0.006
    9  0.002  0.001  0.011  0.015
   10  0.000  0.000  0.075  0.076
   11  0.004  0.001  0.016  0.020
   12  0.000  0.000  0.075  0.076
   13  0.004  0.001  0.016  0.020
   14  0.004  0.001  0.016  0.021
   15  0.017  0.000  0.025  0.042
   16  0.000  0.000  0.075  0.076
   17  0.017  0.000  0.025  0.042
   18  0.017  0.000  0.024  0.041
   19  0.003  0.000  0.030  0.033
   20  0.011  0.000  0.018  0.029
   21  0.011  0.000  0.018  0.029
   22  0.003  0.001  0.008  0.011
   23  0.011  0.000  0.018  0.029
   24  0.003  0.001  0.008  0.011
   25  0.003  0.000  0.030  0.033
   26  0.003  0.000  0.030  0.033
   27  0.003  0.001  0.008  0.011
   28  0.003  0.001  0.002  0.006
   29  0.000  0.000  0.012  0.012
   30  0.000  0.000  0.012  0.012
   31  0.000  0.000  0.012  0.012
   32  0.000  0.000  0.012  0.012
   33  0.000  0.000  0.012  0.012
   34  0.000  0.000  0.012  0.012
   35  0.000  0.000  0.000  0.000
   36  0.004  0.008  0.009  0.021
   37  0.005  0.004  0.000  0.009
   38  0.000  0.001  0.000  0.001
   39  0.000  0.000  0.000  0.000
tot    0.136  0.027  0.647  0.810
 
band    15 # energy   -5.39754182 # occ.  2.00000000
 
ion      s      p      d    tot
    1  0.002  0.001  0.006  0.009
    2  0.000  0.000  0.005  0.005
    3  0.000  0.000  0.005  0.005
    4  0.000  0.000  0.005  0.005
    5  0.003  0.001  0.005  0.009
    6  0.000  0.000  0.005  0.005
    7  0.000  0.000  0.005  0.005
    8  0.000  0.000  0.005  0.005
    9  0.000  0.000  0.001  0.001
   10  0.012  0.001  0.015  0.028
   11  0.008  0.000  0.070  0.078
   12  0.012  0.001  0.015  0.028
   13  0.008  0.000  0.070  0.078
   14  0.008  0.000  0.070  0.078
   15  0.001  0.001  0.027  0.029
   16  0.012  0.001  0.015  0.028
   17  0.001  0.001  0.027  0.029
   18  0.001  0.001  0.027  0.029
   19  0.011  0.001  0.022  0.033
   20  0.001  0.001  0.028  0.030
   21  0.001  0.001  0.028  0.030
   22  0.001  0.000  0.046  0.047
   23  0.001  0.001  0.028  0.030
   24  0.001  0.000  0.046  0.047
   25  0.010  0.001  0.022  0.033
   26  0.011  0.001  0.022  0.033
   27  0.001  0.000  0.046  0.047
   28  0.001  0.000  0.004  0.006
   29  0.000  0.000  0.002  0.002
   30  0.000  0.000  0.002  0.002
   31  0.000  0.000  0.002  0.002
   32  0.000  0.000  0.002  0.002
   33  0.000  0.000  0.002  0.002
   34  0.000  0.000  0.002  0.002
   35  0.002  0.000  0.003  0.005
   36  0.000  0.001  0.001  0.002
   37  0.001  0.001  0.000  0.002
   38  0.000  0.000  0.000  0.000
   39  0.000  0.000  0.000  0.000
tot    0.110  0.018  0.684  0.812
 
band    16 # energy   -5.37662742 # occ.  2.00000000
 
ion      s      p      d    tot
    1  0.001  0.000  0.013  0.014
    2  0.003  0.000  0.012  0.015
    3  0.003  0.000  0.012  0.015
    4  0.003  0.000  0.012  0.015
    5  0.001  0.000  0.002  0.003
    6  0.003  0.000  0.012  0.015
    7  0.003  0.000  0.012  0.015
    8  0.003  0.000  0.012  0.015
    9  0.009  0.000  0.014  0.023
   10  0.003  0.000  0.013  0.016
   11  0.000  0.000  0.014  0.014
   12  0.003  0.000  0.013  0.016
   13  0.000  0.000  0.014  0.014
   14  0.000  0.000  0.014  0.014
   15  0.000  0.000  0.024  0.025
   16  0.003  0.000  0.013  0.016
   17  0.000  0.000  0.024  0.025
   18  0.000  0.000  0.024  0.025
   19  0.001  0.001  0.006  0.008
   20  0.002  0.000  0.033  0.035
   21  0.002  0.000  0.032  0.035
   22  0.003  0.000  0.051  0.054
   23  0.002  0.000  0.032  0.035
   24  0.003  0.000  0.051  0.054
   25  0.001  0.001  0.006  0.008
   26  0.001  0.001  0.006  0.008
   27  0.003  0.000  0.051  0.054
   28  0.015  0.000  0.004  0.019
   29  0.007  0.000  0.018  0.025
   30  0.007  0.000  0.018  0.025
   31  0.007  0.000  0.018  0.025
   32  0.007  0.000  0.018  0.025
   33  0.007  0.000  0.018  0.025
   34  0.007  0.000  0.018  0.025
   35  0.007  0.000  0.038  0.045
   36  0.000  0.000  0.006  0.006
   37  0.000  0.000  0.000  0.001
   38  0.000  0.000  0.000  0.000
   39  0.000  0.000  0.000  0.000
tot    0.122  0.008  0.676  0.806
 
band    17 # energy   -5.37061805 # occ.  2.00000000
 
ion      s      p      d    tot
    1  0.000  0.001  0.010  0.011
    2  0.004  0.001  0.008  0.012
    3  0.003  0.001  0.005  0.009
    4  0.004  0.001  0.007  0.013
    5  0.000  0.000  0.009  0.009
    6  0.000  0.000  0.008  0.008
    7  0.004  0.001  0.005  0.009
    8  0.000  0.000  0.008  0.009
    9  0.000  0.000  0.012  0.012
   10  0.021  0.000  0.016  0.037
   11  0.000  0.000  0.020  0.020
   12  0.004  0.000  0.040  0.044
   13  0.000  0.000  0.018  0.018
   14  0.000  0.000  0.030  0.031
   15  0.005  0.000  0.058  0.063
   16  0.007  0.000  0.036  0.043
   17  0.003  0.000  0.067  0.070
   18  0.016  0.000  0.009  0.025
   19  0.002  0.000  0.044  0.046
   20  0.002  0.000  0.033  0.035
   21  0.000  0.000  0.019  0.020
   22  0.003  0.000  0.040  0.043
   23  0.001  0.000  0.021  0.022
   24  0.015  0.000  0.011  0.026
   25  0.006  0.000  0.012  0.019
   26  0.001  0.000  0.050  0.051
   27  0.005  0.000  0.036  0.041
   28  0.000  0.000  0.010  0.010
   29  0.001  0.000  0.007  0.009
   30  0.001  0.000  0.003  0.005
   31  0.001  0.000  0.006  0.008
   32  0.004  0.001  0.005  0.010
   33  0.001  0.000  0.003  0.004
   34  0.004  0.001  0.006  0.011
   35  0.000  0.000  0.005  0.005
   36  0.000  0.000  0.003  0.003
   37  0.000  0.000  0.000  0.000
   38  0.000  0.000  0.000  0.000
   39  0.000  0.000  0.000  0.000
tot    0.116  0.014  0.681  0.811
 
band    18 # energy   -5.37058515 # occ.  2.00000000
 
ion      s      p      d    tot
    1  0.000  0.001  0.010  0.011
    2  0.001  0.000  0.006  0.007
    3  0.002  0.001  0.009  0.011
    4  0.001  0.000  0.006  0.007
    5  0.000  0.000  0.009  0.009
    6  0.005  0.001  0.006  0.012
    7  0.001  0.001  0.009  0.011
    8  0.005  0.001  0.005  0.011
    9  0.000  0.000  0.012  0.012
   10  0.000  0.001  0.045  0.046
   11  0.000  0.000  0.025  0.026
   12  0.017  0.000  0.021  0.038
   13  0.000  0.000  0.027  0.028
   14  0.000  0.000  0.015  0.015
   15  0.011  0.000  0.032  0.043
   16  0.014  0.000  0.025  0.040
   17  0.013  0.000  0.023  0.036
   18  0.000  0.000  0.080  0.080
   19  0.004  0.000  0.027  0.031
   20  0.000  0.000  0.016  0.016
   21  0.001  0.000  0.030  0.032
   22  0.012  0.000  0.018  0.030
   23  0.001  0.000  0.028  0.029
   24  0.000  0.000  0.047  0.047
   25  0.000  0.000  0.058  0.058
   26  0.005  0.000  0.021  0.026
   27  0.011  0.000  0.022  0.033
   28  0.000  0.000  0.010  0.010
   29  0.003  0.001  0.003  0.007
   30  0.003  0.001  0.007  0.011
   31  0.003  0.001  0.004  0.008
   32  0.000  0.000  0.005  0.005
   33  0.003  0.001  0.007  0.011
   34  0.000  0.000  0.004  0.005
   35  0.000  0.000  0.005  0.005
   36  0.000  0.000  0.003  0.003
   37  0.000  0.000  0.000  0.000
   38  0.000  0.000  0.000  0.000
   39  0.000  0.000  0.000  0.000
tot    0.116  0.014  0.681  0.811
 
band    19 # energy   -5.35901045 # occ.  2.00000000
 
ion      s      p      d    tot
    1  0.000  0.000  0.008  0.008
    2  0.001  0.000  0.009  0.009
    3  0.000  0.000  0.007  0.008
    4  0.001  0.000  0.009  0.009
    5  0.000  0.000  0.003  0.003
    6  0.002  0.000  0.005  0.007
    7  0.000  0.000  0.007  0.008
    8  0.002  0.000  0.005  0.007
    9  0.000  0.000  0.017  0.017
   10  0.001  0.000  0.045  0.046
   11  0.001  0.000  0.051  0.051
   12  0.000  0.000  0.015  0.016
   13  0.001  0.000  0.052  0.053
   14  0.003  0.000  0.013  0.016
   15  0.002  0.000  0.064  0.066
   16  0.000  0.000  0.016  0.017
   17  0.002  0.000  0.065  0.067
   18  0.007  0.000  0.024  0.032
   19  0.001  0.000  0.061  0.063
   20  0.000  0.000  0.046  0.046
   21  0.000  0.000  0.019  0.019
   22  0.001  0.000  0.044  0.046
   23  0.000  0.000  0.020  0.020
   24  0.005  0.000  0.033  0.039
   25  0.004  0.000  0.008  0.012
   26  0.001  0.000  0.063  0.064
   27  0.001  0.000  0.044  0.045
   28  0.000  0.000  0.007  0.007
   29  0.001  0.000  0.007  0.008
   30  0.001  0.000  0.003  0.004
   31  0.001  0.000  0.007  0.008
   32  0.000  0.000  0.007  0.007
   33  0.001  0.000  0.003  0.004
   34  0.000  0.000  0.007  0.007
   35  0.000  0.000  0.012  0.012
   36  0.000  0.000  0.001  0.001
   37  0.000  0.000  0.000  0.000
   38  0.000  0.000  0.000  0.000
   39  0.000  0.000  0.000  0.000
tot    0.041  0.006  0.805  0.852
 
band    20 # energy   -5.35892663 # occ.  2.00000000
 
ion      s      p      d    tot
    1  0.000  0.000  0.008  0.008
    2  0.001  0.000  0.005  0.007
    3  0.001  0.000  0.007  0.008
    4  0.001  0.000  0.005  0.007
    5  0.000  0.000  0.003  0.003
    6  0.000  0.000  0.009  0.009
    7  0.001  0.000  0.007  0.008
    8  0.000  0.000  0.009  0.009
    9  0.000  0.000  0.017  0.017
   10  0.000  0.000  0.006  0.006
   11  0.002  0.000  0.026  0.029
   12  0.001  0.000  0.036  0.037
   13  0.002  0.000  0.025  0.027
   14  0.000  0.000  0.064  0.064
   15  0.005  0.000  0.038  0.044
   16  0.001  0.000  0.035  0.036
   17  0.006  0.000  0.037  0.043
   18  0.000  0.000  0.078  0.078
   19  0.003  0.000  0.027  0.030
   20  0.000  0.000  0.010  0.010
   21  0.000  0.000  0.037  0.037
   22  0.004  0.000  0.037  0.041
   23  0.000  0.000  0.037  0.037
   24  0.000  0.000  0.048  0.048
   25  0.000  0.000  0.080  0.080
   26  0.003  0.000  0.025  0.028
   27  0.004  0.000  0.037  0.041
   28  0.000  0.000  0.007  0.007
   29  0.000  0.000  0.004  0.005
   30  0.000  0.000  0.008  0.009
   31  0.000  0.000  0.005  0.005
   32  0.001  0.000  0.004  0.006
   33  0.000  0.000  0.008  0.009
   34  0.001  0.000  0.004  0.006
   35  0.000  0.000  0.012  0.012
   36  0.000  0.000  0.001  0.001
   37  0.000  0.000  0.000  0.000
   38  0.000  0.000  0.000  0.000
   39  0.000  0.000  0.000  0.000