PROCAR new format
# of k-points:   10         # of bands:  252         # of ions:   37

 k-point     1 :    0.00000000 0.00000000 0.00000000     weight = 0.01562500

band     1 # energy  -13.89141211 # occ.  2.00000000
 
ion      s      p      d    tot
    1  0.000  0.000  0.000  0.000
    2  0.000  0.000  0.000  0.000
    3  0.000  0.000  0.000  0.000
    4  0.000  0.000  0.000  0.000
    5  0.000  0.000  0.000  0.000
    6  0.000  0.000  0.000  0.000
    7  0.000  0.000  0.000  0.000
    8  0.000  0.000  0.000  0.000
    9  0.000  0.000  0.000  0.000
   10  0.000  0.000  0.000  0.000
   11  0.000  0.000  0.000  0.000
   12  0.000  0.000  0.000  0.000
   13  0.000  0.000  0.000  0.000
   14  0.000  0.000  0.000  0.000
   15  0.000  0.000  0.000  0.000
   16  0.000  0.000  0.000  0.000
   17  0.000  0.000  0.000  0.000
   18  0.000  0.000  0.000  0.000
   19  0.000  0.000  0.000  0.000
   20  0.000  0.000  0.000  0.000
   21  0.000  0.000  0.000  0.000
   22  0.000  0.000  0.000  0.000
   23  0.000  0.000  0.000  0.000
   24  0.000  0.000  0.000  0.000
   25  0.000  0.000  0.000  0.000
   26  0.000  0.000  0.000  0.000
   27  0.000  0.000  0.000  0.000
   28  0.000  0.000  0.000  0.000
   29  0.000  0.000  0.000  0.001
   30  0.000  0.000  0.000  0.001
   31  0.000  0.000  0.000  0.001
   32  0.000  0.000  0.000  0.001
   33  0.000  0.000  0.000  0.001
   34  0.000  0.000  0.000  0.001
   35  0.000  0.000  0.000  0.000
   36  0.074  0.074  0.102  0.250
   37  0.623  0.020  0.000  0.643
tot    0.700  0.096  0.103  0.898
 
band     2 # energy   -8.74471608 # occ.  2.00000000
 
ion      s      p      d    tot
    1  0.007  0.001  0.000  0.008
    2  0.007  0.001  0.000  0.007
    3  0.007  0.001  0.000  0.007
    4  0.007  0.001  0.000  0.007
    5  0.007  0.001  0.000  0.007
    6  0.007  0.001  0.000  0.007
    7  0.007  0.001  0.000  0.007
    8  0.007  0.001  0.000  0.007
    9  0.007  0.001  0.000  0.008
   10  0.025  0.000  0.000  0.025
   11  0.025  0.000  0.000  0.025
   12  0.025  0.000  0.000  0.025
   13  0.025  0.000  0.000  0.025
   14  0.025  0.000  0.000  0.025
   15  0.025  0.000  0.000  0.025
   16  0.025  0.000  0.000  0.025
   17  0.025  0.000  0.000  0.025
   18  0.025  0.000  0.000  0.025
   19  0.024  0.000  0.000  0.025
   20  0.025  0.000  0.000  0.025
   21  0.025  0.000  0.000  0.025
   22  0.025  0.000  0.000  0.025
   23  0.025  0.000  0.000  0.025
   24  0.025  0.000  0.000  0.025
   25  0.024  0.000  0.000  0.025
   26  0.024  0.000  0.000  0.025
   27  0.025  0.000  0.000  0.025
   28  0.006  0.001  0.000  0.007
   29  0.006  0.001  0.000  0.007
   30  0.006  0.001  0.000  0.007
   31  0.006  0.001  0.000  0.007
   32  0.006  0.001  0.000  0.007
   33  0.006  0.001  0.000  0.007
   34  0.006  0.001  0.000  0.007
   35  0.006  0.001  0.000  0.007
   36  0.005  0.002  0.000  0.007
   37  0.002  0.000  0.000  0.002
tot    0.564  0.018  0.001  0.583
 
band     3 # energy   -7.41210246 # occ.  2.00000000
 
ion      s      p      d    tot
    1  0.019  0.001  0.001  0.020
    2  0.019  0.001  0.001  0.020
    3  0.019  0.001  0.001  0.020
    4  0.019  0.001  0.001  0.020
    5  0.019  0.001  0.001  0.020
    6  0.019  0.001  0.001  0.020
    7  0.019  0.001  0.001  0.020
    8  0.019  0.001  0.001  0.020
    9  0.019  0.001  0.001  0.020
   10  0.010  0.002  0.001  0.013
   11  0.009  0.002  0.001  0.012
   12  0.010  0.002  0.001  0.013
   13  0.009  0.002  0.001  0.012
   14  0.009  0.002  0.001  0.012
   15  0.009  0.002  0.001  0.012
   16  0.010  0.002  0.001  0.013
   17  0.009  0.002  0.001  0.012
   18  0.009  0.002  0.001  0.012
   19  0.012  0.002  0.001  0.014
   20  0.011  0.002  0.001  0.014
   21  0.011  0.002  0.001  0.014
   22  0.012  0.002  0.001  0.014
   23  0.011  0.002  0.001  0.014
   24  0.012  0.002  0.001  0.014
   25  0.012  0.002  0.001  0.014
   26  0.012  0.002  0.001  0.014
   27  0.012  0.002  0.001  0.014
   28  0.018  0.001  0.000  0.019
   29  0.017  0.001  0.000  0.018
   30  0.017  0.001  0.000  0.018
   31  0.017  0.001  0.000  0.018
   32  0.017  0.001  0.000  0.018
   33  0.017  0.001  0.000  0.018
   34  0.017  0.001  0.000  0.018
   35  0.018  0.001  0.000  0.019
   36  0.012  0.003  0.003  0.017
   37  0.003  0.000  0.000  0.003
tot    0.504  0.058  0.022  0.584
 
band     4 # energy   -5.80440405 # occ.  2.00000000
 
ion      s      p      d    tot
    1  0.011  0.000  0.003  0.014
    2  0.008  0.001  0.005  0.013
    3  0.008  0.001  0.005  0.013
    4  0.008  0.001  0.005  0.013
    5  0.000  0.002  0.005  0.007
    6  0.008  0.001  0.005  0.013
    7  0.008  0.001  0.005  0.013
    8  0.008  0.001  0.005  0.013
    9  0.026  0.001  0.001  0.028
   10  0.001  0.003  0.005  0.009
   11  0.023  0.007  0.001  0.030
   12  0.001  0.003  0.005  0.009
   13  0.023  0.007  0.001  0.030
   14  0.023  0.007  0.001  0.031
   15  0.003  0.002  0.007  0.012
   16  0.001  0.003  0.005  0.009
   17  0.003  0.002  0.007  0.012
   18  0.003  0.002  0.007  0.012
   19  0.000  0.001  0.008  0.010
   20  0.031  0.006  0.003  0.040
   21  0.031  0.006  0.003  0.040
   22  0.001  0.005  0.004  0.010
   23  0.031  0.006  0.003  0.040
   24  0.001  0.005  0.004  0.010
   25  0.000  0.001  0.008  0.010
   26  0.000  0.001  0.008  0.010
   27  0.001  0.005  0.004  0.010
   28  0.017  0.000  0.002  0.019
   29  0.009  0.001  0.005  0.016
   30  0.009  0.001  0.005  0.016
   31  0.009  0.001  0.005  0.016
   32  0.009  0.001  0.005  0.016
   33  0.009  0.001  0.005  0.016
   34  0.009  0.001  0.005  0.016
   35  0.026  0.001  0.002  0.029
   36  0.001  0.002  0.023  0.027
   37  0.000  0.003  0.000  0.004
tot    0.362  0.092  0.183  0.637
 
band     5 # energy   -5.76876266 # occ.  2.00000000
 
ion      s      p      d    tot
    1  0.000  0.001  0.004  0.006
    2  0.008  0.002  0.002  0.012
    3  0.000  0.001  0.002  0.003
    4  0.007  0.002  0.002  0.011
    5  0.000  0.003  0.005  0.008
    6  0.006  0.002  0.002  0.010
    7  0.000  0.001  0.002  0.003
    8  0.007  0.002  0.002  0.011
    9  0.000  0.000  0.002  0.002
   10  0.041  0.005  0.002  0.048
   11  0.015  0.007  0.007  0.029
   12  0.009  0.001  0.013  0.022
   13  0.010  0.008  0.007  0.025
   14  0.049  0.002  0.006  0.057
   15  0.000  0.007  0.004  0.012
   16  0.012  0.001  0.012  0.025
   17  0.000  0.008  0.004  0.012
   18  0.000  0.001  0.005  0.006
   19  0.002  0.009  0.003  0.014
   20  0.064  0.003  0.006  0.073
   21  0.013  0.006  0.011  0.030
   22  0.006  0.002  0.013  0.021
   23  0.019  0.006  0.010  0.035
   24  0.029  0.005  0.002  0.035
   25  0.006  0.000  0.006  0.013
   26  0.001  0.011  0.003  0.014
   27  0.009  0.002  0.012  0.022
   28  0.000  0.001  0.003  0.004
   29  0.011  0.003  0.003  0.016
   30  0.000  0.001  0.002  0.004
   31  0.010  0.003  0.003  0.015
   32  0.006  0.002  0.002  0.010
   33  0.001  0.001  0.002  0.004
   34  0.007  0.002  0.002  0.012
   35  0.000  0.001  0.004  0.005
   36  0.000  0.005  0.007  0.012
   37  0.000  0.000  0.000  0.000
tot    0.347  0.117  0.177  0.642
 
band     6 # energy   -5.76873225 # occ.  2.00000000
 
ion      s      p      d    tot
    1  0.000  0.001  0.004  0.006
    2  0.002  0.001  0.002  0.005
    3  0.009  0.002  0.002  0.014
    4  0.002  0.001  0.002  0.006
    5  0.000  0.003  0.005  0.008
    6  0.003  0.001  0.002  0.006
    7  0.009  0.002  0.002  0.014
    8  0.002  0.001  0.002  0.005
    9  0.000  0.000  0.002  0.002
   10  0.000  0.000  0.016  0.016
   11  0.034  0.004  0.006  0.045
   12  0.033  0.004  0.005  0.041
   13  0.039  0.003  0.006  0.049
   14  0.000  0.009  0.008  0.017
   15  0.000  0.004  0.004  0.008
   16  0.029  0.003  0.006  0.039
   17  0.000  0.003  0.005  0.008
   18  0.000  0.010  0.004  0.014
   19  0.004  0.004  0.005  0.013
   20  0.000  0.007  0.012  0.019
   21  0.051  0.004  0.007  0.062
   22  0.023  0.004  0.005  0.032
   23  0.045  0.004  0.008  0.057
   24  0.000  0.001  0.016  0.017
   25  0.000  0.013  0.002  0.015
   26  0.005  0.003  0.005  0.013
   27  0.020  0.004  0.006  0.030
   28  0.000  0.001  0.003  0.004
   29  0.001  0.001  0.002  0.004
   30  0.011  0.003  0.003  0.017
   31  0.002  0.001  0.002  0.005
   32  0.005  0.002  0.003  0.010
   33  0.011  0.003  0.003  0.016
   34  0.004  0.002  0.003  0.009
   35  0.000  0.001  0.004  0.005
   36  0.000  0.005  0.007  0.012
   37  0.000  0.000  0.000  0.000
tot    0.347  0.117  0.177  0.642
 
band     7 # energy   -5.74250583 # occ.  2.00000000
 
ion      s      p      d    tot
    1  0.023  0.003  0.000  0.027
    2  0.000  0.002  0.004  0.006
    3  0.000  0.002  0.004  0.006
    4  0.000  0.002  0.004  0.006
    5  0.000  0.000  0.001  0.001
    6  0.000  0.002  0.004  0.006
    7  0.000  0.002  0.004  0.006
    8  0.000  0.002  0.004  0.006
    9  0.008  0.002  0.001  0.010
   10  0.027  0.005  0.007  0.039
   11  0.004  0.001  0.011  0.016
   12  0.026  0.005  0.007  0.038
   13  0.004  0.001  0.011  0.016
   14  0.004  0.001  0.011  0.016
   15  0.015  0.009  0.003  0.026
   16  0.026  0.005  0.007  0.038
   17  0.015  0.009  0.003  0.026
   18  0.016  0.008  0.003  0.027
   19  0.020  0.009  0.002  0.031
   20  0.000  0.002  0.011  0.013
   21  0.000  0.002  0.010  0.012
   22  0.028  0.003  0.009  0.039
   23  0.000  0.002  0.010  0.012
   24  0.027  0.003  0.009  0.039
   25  0.019  0.009  0.002  0.030
   26  0.020  0.009  0.002  0.031
   27  0.028  0.003  0.009  0.039
   28  0.021  0.003  0.000  0.024
   29  0.000  0.002  0.004  0.006
   30  0.000  0.002  0.004  0.006
   31  0.000  0.002  0.004  0.006
   32  0.000  0.002  0.004  0.006
   33  0.000  0.002  0.004  0.006
   34  0.000  0.002  0.004  0.006
   35  0.010  0.003  0.002  0.015
   36  0.000  0.000  0.000  0.000
   37  0.000  0.000  0.000  0.000
tot    0.346  0.115  0.178  0.639
 
band     8 # energy   -5.73948724 # occ.  2.00000000
 
ion      s      p      d    tot
    1  0.000  0.002  0.003  0.005
    2  0.008  0.002  0.002  0.013
    3  0.000  0.001  0.002  0.003
    4  0.008  0.002  0.002  0.012
    5  0.000  0.000  0.003  0.003
    6  0.007  0.002  0.003  0.012
    7  0.000  0.001  0.002  0.003
    8  0.008  0.002  0.003  0.012
    9  0.000  0.003  0.006  0.009
   10  0.000  0.014  0.002  0.016
   11  0.008  0.004  0.005  0.017
   12  0.016  0.003  0.006  0.025
   13  0.009  0.003  0.005  0.017
   14  0.000  0.004  0.011  0.015
   15  0.045  0.004  0.007  0.055
   16  0.014  0.004  0.005  0.024
   17  0.049  0.004  0.006  0.060
   18  0.000  0.003  0.015  0.018
   19  0.040  0.004  0.007  0.051
   20  0.000  0.007  0.008  0.015
   21  0.002  0.003  0.005  0.010
   22  0.028  0.003  0.006  0.038
   23  0.002  0.004  0.005  0.011
   24  0.000  0.013  0.004  0.017
   25  0.000  0.001  0.017  0.018
   26  0.045  0.004  0.006  0.054
   27  0.025  0.004  0.006  0.036
   28  0.000  0.002  0.005  0.008
   29  0.009  0.002  0.003  0.014
   30  0.000  0.001  0.002  0.003
   31  0.009  0.002  0.003  0.014
   32  0.005  0.002  0.002  0.009
   33  0.001  0.001  0.002  0.004
   34  0.006  0.002  0.002  0.010
   35  0.000  0.003  0.004  0.007
   36  0.000  0.000  0.002  0.002
   37  0.000  0.000  0.000  0.000
tot    0.345  0.116  0.178  0.639
 
band     9 # energy   -5.73946430 # occ.  2.00000000
 
ion      s      p      d    tot
    1  0.000  0.002  0.003  0.005
    2  0.002  0.001  0.002  0.005
    3  0.010  0.003  0.003  0.015
    4  0.003  0.001  0.002  0.006
    5  0.000  0.000  0.003  0.003
    6  0.003  0.001  0.002  0.007
    7  0.010  0.003  0.003  0.015
    8  0.002  0.001  0.002  0.006
    9  0.000  0.003  0.006  0.009
   10  0.020  0.000  0.007  0.027
   11  0.003  0.004  0.009  0.016
   12  0.005  0.011  0.003  0.018
   13  0.002  0.004  0.009  0.016
   14  0.012  0.003  0.003  0.018
   15  0.018  0.003  0.012  0.034
   16  0.006  0.010  0.003  0.019
   17  0.014  0.003  0.013  0.029
   18  0.062  0.004  0.004  0.070
   19  0.016  0.002  0.013  0.031
   20  0.003  0.002  0.004  0.009
   21  0.001  0.006  0.007  0.014
   22  0.007  0.010  0.005  0.022
   23  0.001  0.006  0.007  0.014
   24  0.036  0.001  0.007  0.044
   25  0.057  0.005  0.003  0.065
   26  0.012  0.002  0.014  0.027
   27  0.010  0.009  0.005  0.024
   28  0.000  0.002  0.005  0.008
   29  0.001  0.001  0.002  0.004
   30  0.010  0.002  0.002  0.014
   31  0.001  0.001  0.002  0.004
   32  0.005  0.002  0.003  0.009
   33  0.009  0.002  0.002  0.014
   34  0.004  0.002  0.003  0.008
   35  0.000  0.003  0.004  0.007
   36  0.000  0.000  0.002  0.002
   37  0.000  0.000  0.000  0.000
tot    0.345  0.116  0.178  0.639
 
band    10 # energy   -5.70362856 # occ.  2.00000000
 
ion      s      p      d    tot
    1  0.002  0.001  0.004  0.007
    2  0.008  0.001  0.006  0.016
    3  0.008  0.001  0.006  0.016
    4  0.008  0.001  0.006  0.016
    5  0.041  0.001  0.001  0.044
    6  0.008  0.001  0.006  0.016
    7  0.008  0.001  0.006  0.016
    8  0.008  0.001  0.006  0.016
    9  0.001  0.001  0.007  0.009
   10  0.009  0.005  0.005  0.018
   11  0.006  0.005  0.006  0.018
   12  0.009  0.005  0.005  0.018
   13  0.006  0.005  0.006  0.018
   14  0.006  0.005  0.006  0.018
   15  0.020  0.002  0.007  0.029
   16  0.009  0.005  0.005  0.018
   17  0.020  0.002  0.007  0.029
   18  0.020  0.002  0.007  0.029
   19  0.013  0.003  0.006  0.022
   20  0.008  0.004  0.005  0.017
   21  0.008  0.004  0.005  0.017
   22  0.006  0.005  0.004  0.015
   23  0.008  0.004  0.005  0.017
   24  0.006  0.005  0.004  0.015
   25  0.013  0.003  0.006  0.022
   26  0.013  0.003  0.006  0.022
   27  0.006  0.005  0.004  0.015
   28  0.002  0.001  0.006  0.008
   29  0.009  0.001  0.005  0.014
   30  0.009  0.001  0.005  0.014
   31  0.009  0.001  0.005  0.014
   32  0.009  0.001  0.005  0.014
   33  0.009  0.001  0.005  0.014
   34  0.009  0.001  0.005  0.014
   35  0.003  0.000  0.004  0.007
   36  0.024  0.003  0.005  0.033
   37  0.003  0.001  0.000  0.004
tot    0.362  0.094  0.189  0.644
 
band    11 # energy   -5.02850644 # occ.  2.00000000
 
ion      s      p      d    tot
    1  0.011  0.000  0.006  0.017
    2  0.004  0.001  0.009  0.014
    3  0.004  0.001  0.009  0.014
    4  0.004  0.001  0.009  0.014
    5  0.004  0.003  0.008  0.015
    6  0.004  0.001  0.009  0.014
    7  0.004  0.001  0.009  0.014
    8  0.004  0.001  0.009  0.014
    9  0.019  0.000  0.004  0.022
   10  0.003  0.000  0.023  0.026
   11  0.017  0.002  0.017  0.036
   12  0.003  0.000  0.023  0.026
   13  0.017  0.002  0.017  0.036
   14  0.017  0.002  0.017  0.036
   15  0.000  0.001  0.017  0.018
   16  0.003  0.000  0.023  0.026
   17  0.000  0.001  0.017  0.018
   18  0.000  0.001  0.017  0.018
   19  0.001  0.000  0.014  0.015
   20  0.013  0.003  0.026  0.041
   21  0.013  0.003  0.026  0.041
   22  0.001  0.000  0.019  0.021
   23  0.013  0.003  0.026  0.041
   24  0.001  0.000  0.019  0.021
   25  0.001  0.000  0.014  0.015
   26  0.001  0.000  0.014  0.015
   27  0.001  0.000  0.019  0.021
   28  0.007  0.000  0.003  0.010
   29  0.003  0.001  0.007  0.010
   30  0.003  0.001  0.007  0.010
   31  0.003  0.001  0.007  0.010
   32  0.003  0.001  0.007  0.010
   33  0.003  0.001  0.007  0.010
   34  0.003  0.001  0.007  0.010
   35  0.011  0.000  0.003  0.015
   36  0.007  0.003  0.040  0.050
   37  0.002  0.013  0.000  0.015
tot    0.205  0.050  0.507  0.762
 
band    12 # energy   -4.99040936 # occ.  2.00000000
 
ion      s      p      d    tot
    1  0.000  0.002  0.010  0.012
    2  0.007  0.002  0.005  0.015
    3  0.021  0.004  0.005  0.030
    4  0.003  0.002  0.005  0.010
    5  0.000  0.006  0.009  0.015
    6  0.004  0.002  0.005  0.011
    7  0.021  0.004  0.005  0.031
    8  0.008  0.002  0.005  0.016
    9  0.000  0.001  0.012  0.014
   10  0.000  0.001  0.017  0.018
   11  0.019  0.004  0.008  0.031
   12  0.009  0.003  0.011  0.023
   13  0.015  0.003  0.012  0.030
   14  0.000  0.002  0.026  0.028
   15  0.001  0.001  0.010  0.011
   16  0.011  0.003  0.010  0.024
   17  0.001  0.002  0.012  0.014
   18  0.000  0.004  0.018  0.022
   19  0.001  0.001  0.009  0.011
   20  0.000  0.001  0.031  0.032
   21  0.012  0.004  0.014  0.029
   22  0.007  0.003  0.011  0.021
   23  0.015  0.004  0.009  0.028
   24  0.000  0.001  0.013  0.014
   25  0.000  0.003  0.021  0.024
   26  0.001  0.001  0.012  0.014
   27  0.009  0.004  0.011  0.023
   28  0.000  0.001  0.011  0.013
   29  0.009  0.002  0.005  0.016
   30  0.023  0.004  0.005  0.031
   31  0.004  0.002  0.005  0.011
   32  0.003  0.002  0.005  0.010
   33  0.022  0.004  0.005  0.031
   34  0.007  0.002  0.005  0.014
   35  0.000  0.002  0.009  0.010
   36  0.000  0.010  0.003  0.013
   37  0.000  0.002  0.000  0.002
tot    0.231  0.100  0.371  0.703
 
band    13 # energy   -4.99040155 # occ.  2.00000000
 
ion      s      p      d    tot
    1  0.000  0.002  0.010  0.012
    2  0.015  0.003  0.005  0.023
    3  0.000  0.002  0.005  0.007
    4  0.019  0.004  0.005  0.028
    5  0.000  0.006  0.009  0.015
    6  0.017  0.004  0.006  0.026
    7  0.000  0.002  0.005  0.007
    8  0.013  0.003  0.005  0.022
    9  0.000  0.001  0.012  0.014
   10  0.013  0.004  0.009  0.025
   11  0.004  0.002  0.023  0.028
   12  0.005  0.002  0.014  0.020
   13  0.008  0.003  0.019  0.029
   14  0.022  0.004  0.005  0.031
   15  0.000  0.004  0.017  0.020
   16  0.002  0.001  0.016  0.019
   17  0.000  0.003  0.015  0.018
   18  0.001  0.000  0.008  0.009
   19  0.000  0.003  0.019  0.022
   20  0.018  0.005  0.005  0.028
   21  0.006  0.002  0.022  0.030
   22  0.004  0.002  0.012  0.018
   23  0.003  0.002  0.027  0.031
   24  0.010  0.004  0.010  0.024
   25  0.001  0.000  0.007  0.008
   26  0.000  0.002  0.016  0.019
   27  0.002  0.001  0.013  0.016
   28  0.000  0.001  0.011  0.013
   29  0.014  0.003  0.005  0.022
   30  0.000  0.002  0.005  0.007
   31  0.018  0.003  0.005  0.026
   32  0.020  0.003  0.005  0.028
   33  0.000  0.002  0.005  0.007
   34  0.016  0.003  0.005  0.023
   35  0.000  0.002  0.009  0.010
   36  0.000  0.010  0.003  0.013
   37  0.000  0.002  0.000  0.002
tot    0.231  0.100  0.371  0.702
 
band    14 # energy   -4.96720135 # occ.  2.00000000
 
ion      s      p      d    tot
    1  0.035  0.004  0.000  0.039
    2  0.000  0.003  0.010  0.014
    3  0.000  0.003  0.010  0.014
    4  0.000  0.003  0.010  0.014
    5  0.000  0.000  0.000  0.000
    6  0.000  0.003  0.011  0.014
    7  0.000  0.003  0.010  0.014
    8  0.000  0.003  0.011  0.014
    9  0.031  0.003  0.000  0.035
   10  0.009  0.004  0.010  0.024
   11  0.001  0.000  0.015  0.016
   12  0.009  0.004  0.011  0.024
   13  0.001  0.000  0.015  0.016
   14  0.001  0.000  0.015  0.016
   15  0.006  0.003  0.018  0.028
   16  0.009  0.004  0.011  0.024
   17  0.006  0.003  0.018  0.028
   18  0.006  0.003  0.018  0.028
   19  0.006  0.004  0.017  0.027
   20  0.000  0.000  0.017  0.017
   21  0.000  0.000  0.016  0.017
   22  0.011  0.003  0.010  0.024
   23  0.000  0.000  0.016  0.017
   24  0.011  0.003  0.010  0.024
   25  0.006  0.004  0.017  0.027
   26  0.006  0.004  0.017  0.027
   27  0.011  0.003  0.010  0.024
   28  0.035  0.004  0.000  0.039
   29  0.000  0.003  0.010  0.012
   30  0.000  0.003  0.010  0.012
   31  0.000  0.003  0.010  0.012
   32  0.000  0.003  0.010  0.012
   33  0.000  0.003  0.010  0.012
   34  0.000  0.003  0.010  0.012
   35  0.026  0.003  0.001  0.031
   36  0.000  0.000  0.000  0.000
   37  0.000  0.000  0.000  0.000
tot    0.227  0.092  0.386  0.706
 
band    15 # energy   -4.95786849 # occ.  2.00000000
 
ion      s      p      d    tot
    1  0.000  0.004  0.011  0.016
    2  0.005  0.002  0.005  0.012
    3  0.021  0.004  0.006  0.031
    4  0.004  0.002  0.005  0.012
    5  0.000  0.000  0.012  0.012
    6  0.006  0.002  0.005  0.014
    7  0.022  0.004  0.006  0.031
    8  0.007  0.002  0.005  0.014
    9  0.000  0.005  0.008  0.013
   10  0.010  0.002  0.005  0.017
   11  0.000  0.002  0.014  0.016
   12  0.003  0.003  0.022  0.027
   13  0.001  0.002  0.014  0.016
   14  0.002  0.001  0.010  0.013
   15  0.005  0.001  0.018  0.025
   16  0.002  0.003  0.022  0.027
   17  0.005  0.002  0.018  0.025
   18  0.020  0.006  0.007  0.033
   19  0.005  0.001  0.019  0.026
   20  0.002  0.001  0.011  0.014
   21  0.000  0.002  0.015  0.018
   22  0.003  0.003  0.021  0.027
   23  0.000  0.002  0.015  0.018
   24  0.011  0.002  0.005  0.019
   25  0.021  0.005  0.006  0.033
   26  0.005  0.001  0.019  0.026
   27  0.003  0.003  0.022  0.027
   28  0.000  0.005  0.007  0.012
   29  0.006  0.002  0.005  0.013
   30  0.020  0.004  0.005  0.029
   31  0.006  0.002  0.005  0.013
   32  0.004  0.002  0.005  0.012
   33  0.020  0.004  0.005  0.029
   34  0.005  0.002  0.005  0.012
   35  0.000  0.004  0.010  0.015
   36  0.000  0.000  0.009  0.009
   37  0.000  0.000  0.000  0.000
tot    0.225  0.094  0.385  0.704
 
band    16 # energy   -4.95785185 # occ.  2.00000000
 
ion      s      p      d    tot
    1  0.000  0.004  0.011  0.016
    2  0.017  0.003  0.005  0.026
    3  0.000  0.002  0.005  0.007
    4  0.017  0.003  0.005  0.026
    5  0.000  0.000  0.012  0.012
    6  0.015  0.003  0.006  0.024
    7  0.000  0.002  0.005  0.007
    8  0.015  0.003  0.006  0.024
    9  0.000  0.005  0.008  0.013
   10  0.000  0.003  0.028  0.031
   11  0.001  0.001  0.011  0.014
   12  0.007  0.002  0.011  0.021
   13  0.001  0.001  0.011  0.014
   14  0.000  0.002  0.015  0.017
   15  0.015  0.004  0.011  0.030
   16  0.007  0.002  0.011  0.020
   17  0.015  0.004  0.011  0.030
   18  0.000  0.000  0.022  0.022
   19  0.016  0.004  0.011  0.031
   20  0.000  0.003  0.016  0.019
   21  0.001  0.002  0.012  0.015
   22  0.008  0.002  0.011  0.021
   23  0.001  0.002  0.012  0.015
   24  0.000  0.003  0.027  0.030
   25  0.000  0.000  0.023  0.023
   26  0.016  0.004  0.011  0.031
   27  0.009  0.002  0.011  0.021
   28  0.000  0.005  0.007  0.012
   29  0.014  0.003  0.005  0.022
   30  0.000  0.002  0.005  0.007
   31  0.015  0.003  0.005  0.023
   32  0.016  0.003  0.005  0.024
   33  0.000  0.002  0.005  0.007
   34  0.016  0.003  0.005  0.024
   35  0.000  0.004  0.010  0.015
   36  0.000  0.000  0.009  0.009
   37  0.000  0.000  0.000  0.000
tot    0.225  0.094  0.385  0.704
 
band    17 # energy   -4.91008278 # occ.  2.00000000
 
ion      s      p      d    tot
    1  0.003  0.001  0.003  0.008
    2  0.001  0.002  0.009  0.013
    3  0.001  0.002  0.009  0.013
    4  0.001  0.002  0.009  0.013
    5  0.040  0.002  0.001  0.043
    6  0.001  0.002  0.009  0.013
    7  0.001  0.002  0.009  0.013
    8  0.001  0.002  0.009  0.013
    9  0.002  0.001  0.004  0.007
   10  0.004  0.001  0.019  0.024
   11  0.001  0.003  0.019  0.022
   12  0.004  0.001  0.019  0.024
   13  0.001  0.003  0.019  0.022
   14  0.001  0.003  0.019  0.022
   15  0.009  0.001  0.015  0.025
   16  0.004  0.001  0.019  0.024
   17  0.009  0.001  0.015  0.025
   18  0.009  0.001  0.015  0.025
   19  0.012  0.000  0.020  0.033
   20  0.002  0.003  0.019  0.024
   21  0.002  0.003  0.019  0.024
   22  0.006  0.001  0.020  0.027
   23  0.002  0.003  0.019  0.024
   24  0.006  0.001  0.020  0.027
   25  0.012  0.000  0.020  0.033
   26  0.012  0.000  0.020  0.033
   27  0.006  0.001  0.020  0.027
   28  0.000  0.002  0.008  0.009
   29  0.003  0.002  0.010  0.015
   30  0.003  0.002  0.010  0.015
   31  0.003  0.002  0.010  0.015
   32  0.003  0.002  0.010  0.015
   33  0.003  0.002  0.010  0.015
   34  0.003  0.002  0.010  0.015
   35  0.001  0.002  0.005  0.008
   36  0.036  0.004  0.004  0.044
   37  0.003  0.002  0.000  0.006
tot    0.209  0.065  0.478  0.752
 
band    18 # energy   -4.42016956 # occ.  2.00000000
 
ion      s      p      d    tot
    1  0.000  0.001  0.001  0.002
    2  0.005  0.001  0.003  0.009
    3  0.005  0.001  0.003  0.008
    4  0.005  0.001  0.003  0.009
    5  0.000  0.001  0.009  0.010
    6  0.000  0.000  0.003  0.003
    7  0.005  0.001  0.003  0.008
    8  0.000  0.000  0.003  0.003
    9  0.000  0.000  0.008  0.008
   10  0.000  0.003  0.007  0.011
   11  0.000  0.000  0.019  0.019
   12  0.000  0.001  0.006  0.007
   13  0.000  0.000  0.019  0.019
   14  0.000  0.000  0.001  0.001
   15  0.000  0.000  0.006  0.006
   16  0.000  0.001  0.006  0.007
   17  0.000  0.000  0.006  0.006
   18  0.000  0.001  0.006  0.007
   19  0.000  0.000  0.018  0.019
   20  0.003  0.002  0.022  0.026
   21  0.001  0.000  0.014  0.015
   22  0.000  0.000  0.014  0.014
   23  0.001  0.000  0.014  0.016
   24  0.000  0.000  0.004  0.005
   25  0.000  0.001  0.003  0.004
   26  0.000  0.000  0.018  0.019
   27  0.000  0.000  0.014  0.014
   28  0.000  0.001  0.014  0.015
   29  0.017  0.002  0.014  0.033
   30  0.001  0.001  0.010  0.012
   31  0.017  0.002  0.014  0.033
   32  0.011  0.002  0.011  0.024
   33  0.001  0.001  0.010  0.012
   34  0.011  0.002  0.011  0.024
   35  0.000  0.000  0.021  0.021
   36  0.000  0.014  0.185  0.199
   37  0.000  0.116  0.000  0.116
tot    0.081  0.158  0.524  0.763
 
band    19 # energy   -4.42013675 # occ.  2.00000000
 
ion      s      p      d    tot
    1  0.000  0.001  0.001  0.002
    2  0.001  0.000  0.003  0.005
    3  0.002  0.000  0.003  0.006
    4  0.001  0.000  0.003  0.005
    5  0.000  0.001  0.009  0.010
    6  0.007  0.001  0.003  0.010
    7  0.002  0.000  0.003  0.006
    8  0.007  0.001  0.003  0.010
    9  0.000  0.000  0.008  0.008
   10  0.000  0.000  0.005  0.005
   11  0.000  0.000  0.007  0.007
   12  0.000  0.003  0.007  0.009
   13  0.000  0.000  0.007  0.007
   14  0.000  0.000  0.025  0.025
   15  0.000  0.001  0.006  0.007
   16  0.000  0.003  0.007  0.009
   17  0.000  0.001  0.006  0.007
   18  0.000  0.000  0.006  0.006
   19  0.000  0.001  0.008  0.009
   20  0.000  0.000  0.012  0.012
   21  0.002  0.001  0.019  0.022
   22  0.000  0.000  0.008  0.008
   23  0.002  0.001  0.019  0.022
   24  0.000  0.000  0.018  0.018
   25  0.000  0.000  0.024  0.024
   26  0.000  0.001  0.008  0.009
   27  0.000  0.000  0.008  0.008
   28  0.000  0.001  0.014  0.015
   29  0.002  0.001  0.010  0.013
   30  0.018  0.002  0.014  0.034
   31  0.002  0.001  0.010  0.013
   32  0.008  0.001  0.013  0.022
   33  0.018  0.002  0.013  0.034
   34  0.008  0.001  0.013  0.022
   35  0.000  0.000  0.021  0.021
   36  0.000  0.014  0.185  0.199
   37  0.000  0.116  0.000  0.116
tot    0.081  0.158  0.524  0.763
 
band    20 # energy   -4.28363393 # occ.  2.00000000
 
ion      s      p      d    tot
    1  0.006  0.000  0.001  0.008
    2  0.000  0.001  0.011  0.012
    3  0.000  0.001  0.011  0.012
    4  0.000  0.001  0.011  0.012
    5  0.003  0.000  0.000  0.003
    6  0.000  0.001  0.011  0.012
    7  0.000  0.001  0.011  0.012
    8  0.000  0.001  0.011  0.012
    9  0.018  0.001  0.001  0.019
   10  0.000  0.002  0.012  0.014
   11  0.000  0.000  0.004  0.005
   12  0.000  0.002  0.012  0.014
   13  0.000  0.000  0.004  0.005
   14  0.000  0.000  0.004  0.005
   15  0.000  0.002  0.026  0.028
   16  0.000  0.002  0.012  0.014
   17  0.000  0.002  0.026  0.028
   18  0.000  0.002  0.026  0.028
   19  0.000  0.002  0.028  0.030
   20  0.000  0.001  0.028  0.029
   21  0.000  0.001  0.028  0.029
   22  0.001  0.003  0.034  0.038
   23  0.000  0.001  0.028  0.029
   24  0.001  0.003  0.034  0.038
   25  0.000  0.001  0.028  0.030
   26  0.000  0.002  0.028  0.030
   27  0.001  0.003  0.034  0.038
   28  0.013  0.001  0.000  0.014
   29  0.000  0.002  0.015  0.017
   30  0.000  0.002  0.015  0.017
   31  0.000  0.002  0.015  0.017
   32  0.000  0.002  0.015  0.017
   33  0.000  0.002  0.015  0.017
   34  0.000  0.002  0.015  0.017
   35  0.031  0.001  0.004  0.036
   36  0.003  0.000  0.085  0.088
   37  0.006  0.040  0.000  0.045
tot    0.085  0.087  0.647  0.818
 
band    21 # energy   -4.27210903 # occ.  2.00000000
 
ion      s      p      d    tot
    1  0.000  0.000  0.036  0.036
    2  0.010  0.001  0.011  0.022
    3  0.014  0.001  0.010  0.025
    4  0.010  0.001  0.011  0.021
    5  0.000  0.002  0.004  0.006
    6  0.000  0.001  0.010  0.011
    7  0.014  0.001  0.010  0.025
    8  0.000  0.001  0.010  0.011
    9  0.000  0.002  0.018  0.020
   10  0.000  0.000  0.047  0.047
   11  0.001  0.005  0.018  0.024
   12  0.000  0.001  0.020  0.020
   13  0.001  0.005  0.018  0.024
   14  0.000  0.000  0.008  0.008
   15  0.001  0.002  0.016  0.020
   16  0.000  0.001  0.019  0.020
   17  0.001  0.002  0.017  0.021
   18  0.000  0.000  0.049  0.049
   19  0.000  0.003  0.017  0.020
   20  0.000  0.000  0.074  0.074
   21  0.000  0.000  0.022  0.023
   22  0.001  0.005  0.019  0.025
   23  0.001  0.000  0.021  0.022
   24  0.000  0.000  0.022  0.022
   25  0.000  0.000  0.017  0.017
   26  0.000  0.003  0.017  0.020
   27  0.001  0.005  0.019  0.025
   28  0.000  0.000  0.014  0.015
   29  0.014  0.001  0.008  0.024
   30  0.002  0.001  0.010  0.013
   31  0.014  0.001  0.008  0.024
   32  0.006  0.001  0.007  0.014
   33  0.002  0.001  0.010  0.012
   34  0.005  0.001  0.007  0.013
   35  0.000  0.002  0.002  0.004
   36  0.000  0.001  0.024  0.025