 vasp.6.2.0 18Jan21 (build Jun 12 2021 23:27:24) complex                        
  
 executed on             LinuxIFC date 2022.05.30  17:19:15
 running on   28 total cores
 distrk:  each k-point on   28 cores,    1 groups
 distr:  one band on NCORE=   1 cores,   28 groups


--------------------------------------------------------------------------------------------------------


 INCAR:
   ISMEAR = -5
   SIGMA = 0.1
   ISPIN = 1
   EDIFF = 1.d-5
   EDIFFG = -0.01
   NSW = 0
   NELM = 150
   ENCUT = 500
   ISIF = 2
   IBRION = 2
   LREAL = Auto
   ALGO = Fast
   ICHARG = 11
   LORBIT = 10
   LCHARG = .F.
   LWAVE = .F.

 POTCAR:    PAW_PBE Ag 02Apr2005                  
 POTCAR:    PAW_PBE Ru 04Feb2005                  
 POTCAR:    PAW_PBE C 08Apr2002                   
 POTCAR:    PAW_PBE O 08Apr2002                   
 POTCAR:    PAW_PBE H 15Jun2001                   
 -----------------------------------------------------------------------------
|                                                                             |
|           W    W    AA    RRRRR   N    N  II  N    N   GGGG   !!!           |
|           W    W   A  A   R    R  NN   N  II  NN   N  G    G  !!!           |
|           W    W  A    A  R    R  N N  N  II  N N  N  G       !!!           |
|           W WW W  AAAAAA  RRRRR   N  N N  II  N  N N  G  GGG   !            |
|           WW  WW  A    A  R   R   N   NN  II  N   NN  G    G                |
|           W    W  A    A  R    R  N    N  II  N    N   GGGG   !!!           |
|                                                                             |
|     For optimal performance we recommend to set                             |
|       NCORE = 2 up to number-of-cores-per-socket                            |
|     NCORE specifies how many cores store one orbital (NPAR=cpu/NCORE).      |
|     This setting can greatly improve the performance of VASP for DFT.       |
|     The default, NCORE=1 might be grossly inefficient on modern             |
|     multi-core architectures or massively parallel machines. Do your        |
|     own testing! More info at https://www.vasp.at/wiki/index.php/NCORE      |
|     Unfortunately you need to use the default for GW and RPA                |
|     calculations (for HF NCORE is supported but not extensively tested      |
|     yet).                                                                   |
|                                                                             |
 -----------------------------------------------------------------------------

 POTCAR:    PAW_PBE Ag 02Apr2005                  
   VRHFIN =Ag : s1 d10                                                                              
   LEXCH  = PE                                                                                      
   EATOM  =  1037.2675 eV,   76.2370 Ry                                                             
                                                                                                    
   TITEL  = PAW_PBE Ag 02Apr2005                                                                    
   LULTRA =        F    use ultrasoft PP ?                                                          
   IUNSCR =        1    unscreen: 0-lin 1-nonlin 2-no                                               
   RPACOR =    2.000    partial core radius                                                         
   POMASS =  107.868; ZVAL   =   11.000    mass and valenz                                          
   RCORE  =    2.500    outmost cutoff radius                                                       
   RWIGS  =    2.840; RWIGS  =    1.503    wigner-seitz radius (au A)                               
   ENMAX  =  249.844; ENMIN  =  187.383 eV                                                          
   ICORE  =        3    local potential                                                             
   LCOR   =        T    correct aug charges                                                         
   LPAW   =        T    paw PP                                                                      
   EAUG   =  412.496                                                                                
   DEXC   =    0.000                                                                                
   RMAX   =    2.560    core radius for proj-oper                                                   
   RAUG   =    1.300    factor for augmentation sphere                                              
   RDEP   =    2.576    radius for radial grids                                                     
   RDEPT  =    2.072    core radius for aug-charge                                                  
                                                                                                    
   Atomic configuration                                                                             
   12 entries                                                                                       
     n  l   j            E        occ.                                                              
     1  0  0.50    -25324.9161   2.0000                                                             
     2  0  0.50     -3728.5341   2.0000                                                             
     2  1  1.50     -3344.0404   6.0000                                                             
     3  0  0.50      -683.5581   2.0000                                                             
     3  1  1.50      -557.3225   6.0000                                                             
     3  2  2.50      -358.3853  10.0000                                                             
     4  0  0.50       -95.0341   2.0000                                                             
     4  1  1.50       -58.5511   6.0000                                                             
     4  2  2.50        -7.4440  10.0000                                                             
     5  0  0.50        -4.4045   1.0000                                                             
     5  1  0.50        -1.3606   0.0000                                                             
     4  3  2.50        -1.3606   0.0000                                                             
   Description                                                                                      
     l       E           TYP  RCUT    TYP  RCUT                                                     
     2     -7.4439781     23  2.400                                                                 
     2     -8.8045607     23  2.400                                                                 
     0     -4.4044681     23  2.400                                                                 
     0      1.9520038     23  2.400                                                                 
     1     -1.3605826     23  2.500                                                                 
     1     27.2116520     23  2.500                                                                 
     3     -4.0817478     23  2.400                                                                 
  local pseudopotential read in
  partial core-charges read in
  partial kinetic energy density read in
  atomic valenz-charges read in
  non local Contribution for L=           2  read in
    real space projection operators read in
  non local Contribution for L=           2  read in
    real space projection operators read in
  non local Contribution for L=           0  read in
    real space projection operators read in
  non local Contribution for L=           0  read in
    real space projection operators read in
  non local Contribution for L=           1  read in
    real space projection operators read in
  non local Contribution for L=           1  read in
    real space projection operators read in
    PAW grid and wavefunctions read in
 
   number of l-projection  operators is LMAX  =           6
   number of lm-projection operators is LMMAX =          18
 
 POTCAR:    PAW_PBE Ru 04Feb2005                  
   VRHFIN =Ru: s1 d7                                                                                
   LEXCH  = PE                                                                                      
   EATOM  =   454.8837 eV,   33.4330 Ry                                                             
                                                                                                    
   TITEL  = PAW_PBE Ru 04Feb2005                                                                    
   LULTRA =        F    use ultrasoft PP ?                                                          
   IUNSCR =        1    unscreen: 0-lin 1-nonlin 2-no                                               
   RPACOR =    2.170    partial core radius                                                         
   POMASS =  101.070; ZVAL   =    8.000    mass and valenz                                          
   RCORE  =    2.700    outmost cutoff radius                                                       
   RWIGS  =    2.650; RWIGS  =    1.402    wigner-seitz radius (au A)                               
   ENMAX  =  213.271; ENMIN  =  159.953 eV                                                          
   ICORE  =        3    local potential                                                             
   LCOR   =        T    correct aug charges                                                         
   LPAW   =        T    paw PP                                                                      
   EAUG   =  333.494                                                                                
   DEXC   =    0.000                                                                                
   RMAX   =    2.758    core radius for proj-oper                                                   
   RAUG   =    1.300    factor for augmentation sphere                                              
   RDEP   =    2.865    radius for radial grids                                                     
   RDEPT  =    2.250    core radius for aug-charge                                                  
                                                                                                    
   Atomic configuration                                                                             
   12 entries                                                                                       
     n  l   j            E        occ.                                                              
     1  0  0.50    -21933.2693   2.0000                                                             
     2  0  0.50     -3153.4097   2.0000                                                             
     2  1  1.50     -2823.9548   6.0000                                                             
     3  0  0.50      -555.3323   2.0000                                                             
     3  1  1.50      -447.1024   6.0000                                                             
     3  2  2.50      -273.0570  10.0000                                                             
     4  0  0.50       -76.3589   2.0000                                                             
     4  1  1.50       -46.4050   6.0000                                                             
     4  2  2.50        -5.2029   7.0000                                                             
     5  0  0.50        -4.2392   1.0000                                                             
     5  1  0.50        -1.3606   0.0000                                                             
     4  3  2.50        -1.3606   0.0000                                                             
   Description                                                                                      
     l       E           TYP  RCUT    TYP  RCUT                                                     
     2     -5.2028939     23  2.600                                                                 
     2     -6.5634765     23  2.600                                                                 
     0     -4.2392259     23  2.700                                                                 
     0     27.2116520     23  2.700                                                                 
     1     -4.0817478     23  2.700                                                                 
     1     27.2116520     23  2.700                                                                 
     3     -5.4423304     23  2.600                                                                 
  local pseudopotential read in
  partial core-charges read in
  partial kinetic energy density read in
  atomic valenz-charges read in
  non local Contribution for L=           2  read in
    real space projection operators read in
  non local Contribution for L=           2  read in
    real space projection operators read in
  non local Contribution for L=           0  read in
    real space projection operators read in
  non local Contribution for L=           0  read in
    real space projection operators read in
  non local Contribution for L=           1  read in
    real space projection operators read in
  non local Contribution for L=           1  read in
    real space projection operators read in
    PAW grid and wavefunctions read in
 
   number of l-projection  operators is LMAX  =           6
   number of lm-projection operators is LMMAX =          18
 
 POTCAR:    PAW_PBE C 08Apr2002                   
   VRHFIN =C: s2p2                                                                                  
   LEXCH  = PE                                                                                      
   EATOM  =   147.1560 eV,   10.8157 Ry                                                             
                                                                                                    
   TITEL  = PAW_PBE C 08Apr2002                                                                     
   LULTRA =        F    use ultrasoft PP ?                                                          
   IUNSCR =        1    unscreen: 0-lin 1-nonlin 2-no                                               
   RPACOR =    1.200    partial core radius                                                         
   POMASS =   12.011; ZVAL   =    4.000    mass and valenz                                          
   RCORE  =    1.500    outmost cutoff radius                                                       
   RWIGS  =    1.630; RWIGS  =    0.863    wigner-seitz radius (au A)                               
   ENMAX  =  400.000; ENMIN  =  300.000 eV                                                          
   ICORE  =        2    local potential                                                             
   LCOR   =        T    correct aug charges                                                         
   LPAW   =        T    paw PP                                                                      
   EAUG   =  644.873                                                                                
   DEXC   =    0.000                                                                                
   RMAX   =    1.529    core radius for proj-oper                                                   
   RAUG   =    1.300    factor for augmentation sphere                                              
   RDEP   =    1.501    radius for radial grids                                                     
   RDEPT  =    1.300    core radius for aug-charge                                                  
                                                                                                    
   Atomic configuration                                                                             
    4 entries                                                                                       
     n  l   j            E        occ.                                                              
     1  0  0.50      -273.3789   2.0000                                                             
     2  0  0.50       -13.7508   2.0000                                                             
     2  1  0.50        -5.2854   2.0000                                                             
     3  2  1.50        -5.4423   0.0000                                                             
   Description                                                                                      
     l       E           TYP  RCUT    TYP  RCUT                                                     
     0    -13.7508458     23  1.200                                                                 
     0     -8.2022199     23  1.200                                                                 
     1     -5.2854383     23  1.500                                                                 
     1     34.0145650     23  1.500                                                                 
     2     -5.4423304      7  1.500                                                                 
  local pseudopotential read in
  partial core-charges read in
  partial kinetic energy density read in
  atomic valenz-charges read in
  non local Contribution for L=           0  read in
    real space projection operators read in
  non local Contribution for L=           0  read in
    real space projection operators read in
  non local Contribution for L=           1  read in
    real space projection operators read in
  non local Contribution for L=           1  read in
    real space projection operators read in
    PAW grid and wavefunctions read in
 
   number of l-projection  operators is LMAX  =           4
   number of lm-projection operators is LMMAX =           8
 
 POTCAR:    PAW_PBE O 08Apr2002                   
   VRHFIN =O: s2p4                                                                                  
   LEXCH  = PE                                                                                      
   EATOM  =   432.3788 eV,   31.7789 Ry                                                             
                                                                                                    
   TITEL  = PAW_PBE O 08Apr2002                                                                     
   LULTRA =        F    use ultrasoft PP ?                                                          
   IUNSCR =        1    unscreen: 0-lin 1-nonlin 2-no                                               
   RPACOR =    1.200    partial core radius                                                         
   POMASS =   16.000; ZVAL   =    6.000    mass and valenz                                          
   RCORE  =    1.520    outmost cutoff radius                                                       
   RWIGS  =    1.550; RWIGS  =    0.820    wigner-seitz radius (au A)                               
   ENMAX  =  400.000; ENMIN  =  300.000 eV                                                          
   ICORE  =        2    local potential                                                             
   LCOR   =        T    correct aug charges                                                         
   LPAW   =        T    paw PP                                                                      
   EAUG   =  605.392                                                                                
   DEXC   =    0.000                                                                                
   RMAX   =    1.553    core radius for proj-oper                                                   
   RAUG   =    1.300    factor for augmentation sphere                                              
   RDEP   =    1.550    radius for radial grids                                                     
   RDEPT  =    1.329    core radius for aug-charge                                                  
                                                                                                    
   Atomic configuration                                                                             
    4 entries                                                                                       
     n  l   j            E        occ.                                                              
     1  0  0.50      -514.6923   2.0000                                                             
     2  0  0.50       -23.9615   2.0000                                                             
     2  1  0.50        -9.0305   4.0000                                                             
     3  2  1.50        -9.5241   0.0000                                                             
   Description                                                                                      
     l       E           TYP  RCUT    TYP  RCUT                                                     
     0    -23.9615318     23  1.200                                                                 
     0     -9.5240782     23  1.200                                                                 
     1     -9.0304911     23  1.520                                                                 
     1      8.1634956     23  1.520                                                                 
     2     -9.5240782      7  1.500                                                                 
  local pseudopotential read in
  partial core-charges read in
  partial kinetic energy density read in
  kinetic energy density of atom read in
  atomic valenz-charges read in
  non local Contribution for L=           0  read in
    real space projection operators read in
  non local Contribution for L=           0  read in
    real space projection operators read in
  non local Contribution for L=           1  read in
    real space projection operators read in
  non local Contribution for L=           1  read in
    real space projection operators read in
    PAW grid and wavefunctions read in
 
   number of l-projection  operators is LMAX  =           4
   number of lm-projection operators is LMMAX =           8
 
 POTCAR:    PAW_PBE H 15Jun2001                   
   VRHFIN =H: ultrasoft test                                                                        
   LEXCH  = PE                                                                                      
   EATOM  =    12.4884 eV,    0.9179 Ry                                                             
                                                                                                    
   TITEL  = PAW_PBE H 15Jun2001                                                                     
   LULTRA =        F    use ultrasoft PP ?                                                          
   IUNSCR =        0    unscreen: 0-lin 1-nonlin 2-no                                               
   RPACOR =    0.000    partial core radius                                                         
   POMASS =    1.000; ZVAL   =    1.000    mass and valenz                                          
   RCORE  =    1.100    outmost cutoff radius                                                       
   RWIGS  =    0.700; RWIGS  =    0.370    wigner-seitz radius (au A)                               
   ENMAX  =  250.000; ENMIN  =  200.000 eV                                                          
   RCLOC  =    0.701    cutoff for local pot                                                        
   LCOR   =        T    correct aug charges                                                         
   LPAW   =        T    paw PP                                                                      
   EAUG   =  400.000                                                                                
   RMAX   =    1.123    core radius for proj-oper                                                   
   RAUG   =    1.200    factor for augmentation sphere                                              
   RDEP   =    1.112    radius for radial grids                                                     
   RDEPT  =    0.926    core radius for aug-charge                                                  
                                                                                                    
   Atomic configuration                                                                             
    2 entries                                                                                       
     n  l   j            E        occ.                                                              
     1  0  0.50        -6.4927   1.0000                                                             
     2  1  0.50        -3.4015   0.0000                                                             
   Description                                                                                      
     l       E           TYP  RCUT    TYP  RCUT                                                     
     0     -6.4927494     23  1.100                                                                 
     0      6.8029130     23  1.100                                                                 
     1     -4.0817478     23  1.100                                                                 
  local pseudopotential read in
  atomic valenz-charges read in
  non local Contribution for L=           0  read in
    real space projection operators read in
  non local Contribution for L=           0  read in
    real space projection operators read in
  non local Contribution for L=           1  read in
    real space projection operators read in
    PAW grid and wavefunctions read in
 
   number of l-projection  operators is LMAX  =           3
   number of lm-projection operators is LMMAX =           5
 
 Optimization of the real space projectors (new method)

 maximal supplied QI-value         = 15.12
 optimisation between [QCUT,QGAM] = [ 11.34, 22.83] = [ 36.00,145.93] Ry 
 Optimized for a Real-space Cutoff    1.43 Angstroem

   l    n(q)    QCUT    max X(q) W(low)/X(q) W(high)/X(q)  e(spline) 
   2      9    11.338    53.897    0.16E-03    0.20E-03    0.28E-06
   2      9    11.338    52.416    0.16E-03    0.20E-03    0.29E-06
   0     10    11.338   122.045    0.31E-04    0.76E-04    0.15E-06
   0     10    11.338    73.629    0.30E-04    0.72E-04    0.15E-06
   1      9    11.338    15.255    0.20E-03    0.19E-04    0.17E-06
   1      9    11.338     9.562    0.16E-03    0.15E-04    0.14E-06
 Optimization of the real space projectors (new method)

 maximal supplied QI-value         = 13.98
 optimisation between [QCUT,QGAM] = [ 11.33, 22.79] = [ 35.93,145.49] Ry 
 Optimized for a Real-space Cutoff    1.52 Angstroem

   l    n(q)    QCUT    max X(q) W(low)/X(q) W(high)/X(q)  e(spline) 
   2      9    11.327    61.733    0.26E-03    0.14E-03    0.16E-06
   2      9    11.327    59.886    0.26E-03    0.14E-03    0.17E-06
   0     10    11.327    23.358    0.19E-03    0.14E-04    0.46E-06
   0     10    11.327    11.320    0.15E-03    0.11E-04    0.37E-06
   1     10    11.327    14.765    0.49E-04    0.26E-03    0.24E-06
   1     10    11.327     8.283    0.37E-04    0.20E-03    0.18E-06
 Optimization of the real space projectors (new method)

 maximal supplied QI-value         = 25.13
 optimisation between [QCUT,QGAM] = [ 11.31, 22.87] = [ 35.82,146.48] Ry 
 Optimized for a Real-space Cutoff    1.00 Angstroem

   l    n(q)    QCUT    max X(q) W(low)/X(q) W(high)/X(q)  e(spline) 
   0      7    11.310   115.676    0.43E-03    0.13E-02    0.19E-06
   0      7    11.310    87.132    0.43E-03    0.13E-02    0.18E-06
   1      6    11.310     4.429    0.42E-03    0.74E-03    0.11E-06
   1      6    11.310     2.733    0.34E-03    0.55E-03    0.92E-07
 Optimization of the real space projectors (new method)

 maximal supplied QI-value         = 24.76
 optimisation between [QCUT,QGAM] = [ 11.39, 22.77] = [ 36.31,145.25] Ry 
 Optimized for a Real-space Cutoff    1.00 Angstroem

   l    n(q)    QCUT    max X(q) W(low)/X(q) W(high)/X(q)  e(spline) 
   0      7    11.387    20.381    0.39E-03    0.13E-02    0.15E-06
   0      7    11.387    15.268    0.42E-03    0.14E-02    0.17E-06
   1      6    11.387     5.964    0.41E-03    0.11E-02    0.17E-06
   1      6    11.387     5.382    0.39E-03    0.87E-03    0.15E-06
 Optimization of the real space projectors (new method)

 maximal supplied QI-value         = 34.20
 optimisation between [QCUT,QGAM] = [ 11.29, 22.57] = [ 35.68,142.71] Ry 
 Optimized for a Real-space Cutoff    1.16 Angstroem

   l    n(q)    QCUT    max X(q) W(low)/X(q) W(high)/X(q)  e(spline) 
   0      8    11.287    19.460    0.40E-03    0.73E-03    0.16E-06
   0      8    11.287    12.209    0.38E-03    0.70E-03    0.15E-06
   1      7    11.287     4.655    0.22E-03    0.25E-04    0.22E-06
  PAW_PBE Ag 02Apr2005                  :
 energy of atom  1       EATOM=-1037.2675
 kinetic energy error for atom=    0.0052 (will be added to EATOM!!)
  PAW_PBE Ru 04Feb2005                  :
 energy of atom  2       EATOM= -454.8837
 kinetic energy error for atom=    0.0015 (will be added to EATOM!!)
  PAW_PBE C 08Apr2002                   :
 energy of atom  3       EATOM= -147.1560
 kinetic energy error for atom=    0.0076 (will be added to EATOM!!)
  PAW_PBE O 08Apr2002                   :
 energy of atom  4       EATOM= -432.3788
 kinetic energy error for atom=    0.0224 (will be added to EATOM!!)
  PAW_PBE H 15Jun2001                   :
 energy of atom  5       EATOM=  -12.4884
 kinetic energy error for atom=    0.0020 (will be added to EATOM!!)
 
 
 POSCAR: Ag-Ru-COH
  positions in direct lattice
  velocities in cartesian coordinates
 exchange correlation table for  LEXCH =        8
   RHO(1)=    0.500       N(1)  =     2000
   RHO(2)=  100.500       N(2)  =     4000

 VTST: version 3.2, (02/03/18)

 CHAIN: initializing optimizer
 
 OPT: Using VASP Conjugate-Gradient optimizer
 CHAIN: Read ICHAIN            0
 
 POSCAR: Ag-Ru-COH
  positions in direct lattice
  velocities in cartesian coordinates
 


--------------------------------------------------------------------------------------------------------


 ion  position               nearest neighbor table
   1  0.000  0.000  0.199-   2 2.93   8 2.93   7 2.93   6 2.93   4 2.93  12 2.93  16 2.93  10 2.93
                             3 2.93
   2  0.333  0.000  0.199-   1 2.93   8 2.93   9 2.93   3 2.93   4 2.93   5 2.93  10 2.93  17 2.93
                            11 2.93
   3  0.667  0.000  0.199-   9 2.93   2 2.93   5 2.93  11 2.93   7 2.93  18 2.93   1 2.93   6 2.93
                            12 2.93
   4  0.000  0.333  0.199-   5 2.93   6 2.93   2 2.93   1 2.93   7 2.93  13 2.93  15 2.93   9 2.93
                            10 2.93
   5  0.333  0.333  0.199-   4 2.93   3 2.93   7 2.93   2 2.93   8 2.93  14 2.93  13 2.93  11 2.93
                             6 2.93
   6  0.667  0.333  0.199-   4 2.93   9 2.93   1 2.93  15 2.93   8 2.93  12 2.93   3 2.93   5 2.93
                            14 2.93
   7  0.000  0.667  0.199-   8 2.93   1 2.93   5 2.93   3 2.93   4 2.93  16 2.93  18 2.93  13 2.93
                             9 2.93
   8  0.333  0.667  0.199-   7 2.93   1 2.93   2 2.93   9 2.93   5 2.93  16 2.93   6 2.93  17 2.93
                            14 2.93
   9  0.667  0.667  0.199-   3 2.93   2 2.93   8 2.93   6 2.93  17 2.93   4 2.93  15 2.93   7 2.93
                            18 2.93
  10  0.111  0.111  0.289-  20 2.90  19 2.93  26 2.93  12 2.93  16 2.93  15 2.93  17 2.93  13 2.93
                            11 2.93   2 2.93   1 2.93   4 2.93
  11  0.444  0.111  0.289-  21 2.90  20 2.90  27 2.92  14 2.93  17 2.93  18 2.93   3 2.93  12 2.93
                            13 2.93  10 2.93   5 2.93   2 2.93
  12  0.778  0.111  0.289-  21 2.90  25 2.93  19 2.93  10 2.93  16 2.93  18 2.93  15 2.93  11 2.93
                             1 2.93  14 2.93   6 2.93   3 2.93
  13  0.111  0.444  0.289-  20 2.90  23 2.90  22 2.92  15 2.93  14 2.93  18 2.93  10 2.93  11 2.93
                            16 2.93   4 2.93   5 2.93   7 2.93
  14  0.444  0.444  0.289-  23 2.90  21 2.90  24 2.92  13 2.93  11 2.93  16 2.93   5 2.93  12 2.93
                            17 2.93   8 2.93  15 2.93   6 2.93
  15  0.778  0.444  0.289-  24 2.92  22 2.92  19 2.93  13 2.93  10 2.93  12 2.93  17 2.93  18 2.93
                             4 2.93   6 2.93   9 2.93  14 2.93
  16  0.111  0.778  0.289-  23 2.90  26 2.93  25 2.93  18 2.93  12 2.93  10 2.93  14 2.93  17 2.93
                            13 2.93   7 2.93   8 2.93   1 2.93
  17  0.444  0.778  0.289-  27 2.92  24 2.92  26 2.93  11 2.93  10 2.93   9 2.93  18 2.93  15 2.93
                            16 2.93   2 2.93  14 2.93   8 2.93
  18  0.778  0.778  0.289-  22 2.92  27 2.92  25 2.93  16 2.93  12 2.93  13 2.93  11 2.93  17 2.93
                            15 2.93   7 2.93   3 2.93   9 2.93
  19  0.889  0.223  0.379-  28 2.91  15 2.93  10 2.93  12 2.93  24 2.93  22 2.93  26 2.93  25 2.93
                            20 2.94  21 2.94  32 2.94  31 2.94
  20  0.223  0.223  0.377-  36 2.77  13 2.90  11 2.90  10 2.90  21 2.92  23 2.92  31 2.92  29 2.92
                            27 2.93  22 2.93  19 2.94  26 2.94
  21  0.555  0.223  0.377-  36 2.77  11 2.90  14 2.90  12 2.90  20 2.92  23 2.92  30 2.92  32 2.92
                            27 2.93  24 2.93  25 2.94  19 2.94
  22  0.888  0.556  0.378-  35 2.91  18 2.92  15 2.92  13 2.92  33 2.92  31 2.92  24 2.92  27 2.92
                            25 2.93  19 2.93  23 2.93  20 2.93
  23  0.223  0.555  0.377-  36 2.77  14 2.90  13 2.90  16 2.90  21 2.92  20 2.92  34 2.92  33 2.92
                            22 2.93  24 2.93  26 2.94  25 2.94
  24  0.556  0.556  0.378-  35 2.91  15 2.92  17 2.92  14 2.92  32 2.92  34 2.92  27 2.92  22 2.92
                            19 2.93  26 2.93  23 2.93  21 2.93
  25  0.889  0.889  0.379-  28 2.91  18 2.93  16 2.93  12 2.93  22 2.93  27 2.93  26 2.93  19 2.93
                            23 2.94  21 2.94  33 2.94  30 2.94
  26  0.223  0.889  0.379-  28 2.91  17 2.93  16 2.93  10 2.93  27 2.93  24 2.93  25 2.93  19 2.93
                            23 2.94  20 2.94  34 2.94  29 2.94
  27  0.556  0.888  0.378-  35 2.91  17 2.92  18 2.92  11 2.92  29 2.92  30 2.92  24 2.92  22 2.92
                            26 2.93  25 2.93  20 2.93  21 2.93
  28  0.000  0.000  0.467-  26 2.91  25 2.91  19 2.91  29 2.95  34 2.95  33 2.95  32 2.95  31 2.95
                            30 2.95
  29  0.333  0.006  0.468-  31 2.88  30 2.88  36 2.89  20 2.92  27 2.92  26 2.94  28 2.95  35 2.96
                            34 3.03
  30  0.661  0.006  0.468-  32 2.88  29 2.88  36 2.89  21 2.92  27 2.92  25 2.94  28 2.95  35 2.96
                            33 3.03
  31  0.006  0.333  0.468-  29 2.88  33 2.88  36 2.89  20 2.92  22 2.92  19 2.94  28 2.95  35 2.96
                            32 3.03
  32  0.661  0.333  0.468-  30 2.88  34 2.88  36 2.89  21 2.92  24 2.92  19 2.94  28 2.95  35 2.96
                            31 3.03
  33  0.006  0.661  0.468-  34 2.88  31 2.88  36 2.89  23 2.92  22 2.92  25 2.94  28 2.95  35 2.96
                            30 3.03
  34  0.333  0.661  0.468-  33 2.88  32 2.88  36 2.89  23 2.92  24 2.92  26 2.94  28 2.95  35 2.96
                            29 3.03
  35  0.667  0.667  0.467-  24 2.91  27 2.91  22 2.91  30 2.96  32 2.96  29 2.96  34 2.96  31 2.96
                            33 2.96
  36  0.333  0.333  0.460-  37 1.74  21 2.77  20 2.77  23 2.77  31 2.89  30 2.89  33 2.89  29 2.89
                            34 2.89  32 2.89
  37  0.333  0.333  0.526-  38 1.26  36 1.74
  38  0.333  0.333  0.573-  39 0.96  37 1.26
  39  0.333  0.333  0.609-  38 0.96
 
  LATTYP: Found a hexagonal cell.
 ALAT       =     8.7913665772
 C/A-ratio  =     3.0233954145
  
  Lattice vectors:
  
 A1 = (  -4.3956832886,  -7.6135467898,   0.0000000000)
 A2 = (   8.7913665771,   0.0000000000,   0.0000000000)
 A3 = (   0.0000000000,   0.0000000000,  26.5797773968)


Analysis of symmetry for initial positions (statically):
=====================================================================
 Subroutine PRICEL returns:
 Original cell was already a primitive cell.
 

 Routine SETGRP: Setting up the symmetry group for a 
 hexagonal supercell.


 Subroutine GETGRP returns: Found  6 space group operations
 (whereof  6 operations were pure point group operations)
 out of a pool of 24 trial point group operations.


The static configuration has the point symmetry C_3v.


Analysis of symmetry for dynamics (positions and initial velocities):
=====================================================================
 Subroutine PRICEL returns:
 Original cell was already a primitive cell.
 

 Routine SETGRP: Setting up the symmetry group for a 
 hexagonal supercell.


 Subroutine GETGRP returns: Found  6 space group operations
 (whereof  6 operations were pure point group operations)
 out of a pool of 24 trial point group operations.


The dynamic configuration has the point symmetry C_3v.


Analysis of constrained symmetry for selective dynamics:
=====================================================================
 Subroutine PRICEL returns:
 Original cell was already a primitive cell.
 

 Routine SETGRP: Setting up the symmetry group for a 
 hexagonal supercell.


 Subroutine GETGRP returns: Found  6 space group operations
 (whereof  6 operations were pure point group operations)
 out of a pool of 24 trial point group operations.


The constrained configuration has the point symmetry C_3v.


 Subroutine INISYM returns: Found  6 space group operations
 (whereof  6 operations are pure point group operations),
 and found     1 'primitive' translations


----------------------------------------------------------------------------------------

                                     Primitive cell                                     

  volume of cell :    1779.0770

  direct lattice vectors                    reciprocal lattice vectors
     8.791366577  0.000000000  0.000000000     0.113747958 -0.065672414  0.000000000
     4.395683289  7.613546790  0.000000000     0.000000000  0.131344829  0.000000000
     0.000000000  0.000000000 26.579777397     0.000000000  0.000000000  0.037622587

  length of vectors
     8.791366577  8.791366577 26.579777397     0.131344829  0.131344829  0.037622587

  position of ions in fractional coordinates (direct lattice)
     0.000000000  0.000000000  0.198729585
     0.333333313  0.000000000  0.198729585
     0.666666627  0.000000000  0.198729585
     1.000000000  0.333333343  0.198729585
     0.333333313  0.333333343  0.198729585
     0.666666687  0.333333343  0.198729585
     1.000000000  0.666666687  0.198729585
     0.333333313  0.666666687  0.198729585
     0.666666627  0.666666687  0.198729585
     0.111111104  0.111111112  0.288749421
     0.444444448  0.111111112  0.288749421
     0.777777791  0.111111112  0.288749421
     0.111111097  0.444444448  0.288749421
     0.444444418  0.444444448  0.288749421
     0.777777791  0.444444448  0.288749421
     0.111111104  0.777777791  0.288749421
     0.444444448  0.777777791  0.288749421
     0.777777791  0.777777791  0.288749421
     0.888718139  0.222563739  0.378589268
     0.222682212  0.222682227  0.377375437
     0.554635515  0.222682227  0.377375437
     0.888462106  0.555768977  0.378314900
     0.222682227  0.554635575  0.377375437
     0.555768977  0.555768977  0.378314900
     0.888718139  0.888718139  0.378589268
     0.222563709  0.888718139  0.378589268
     0.555768917  0.888462106  0.378314900
     0.000000000  0.000000000  0.467422845
     0.333086067  0.005822137  0.467930192
     0.661091736  0.005822137  0.467930192
     0.005822137  0.333086097  0.467930192
     0.661091796  0.333086097  0.467930192
     0.005822137  0.661091796  0.467930192
     0.333086067  0.661091796  0.467930192
     0.666666627  0.666666687  0.467298442
     0.333333313  0.333333343  0.460145243
     0.333333313  0.333333343  0.525644035
     0.333333313  0.333333343  0.573222064
     0.333333313  0.333333343  0.609383921

  ion indices of the primitive-cell ions
   primitive index   ion index
                 1           1
                 2           2
                 3           3
                 4           4
                 5           5
                 6           6
                 7           7
                 8           8
                 9           9
                10          10
                11          11
                12          12
                13          13
                14          14
                15          15
                16          16
                17          17
                18          18
                19          19
                20          20
                21          21
                22          22
                23          23
                24          24
                25          25
                26          26
                27          27
                28          28
                29          29
                30          30
                31          31
                32          32
                33          33
                34          34
                35          35
                36          36
                37          37
                38          38
                39          39

----------------------------------------------------------------------------------------

 
 
 KPOINTS: Automatic mesh                          

Automatic generation of k-mesh.
 Grid dimensions read from file:
 generate k-points for:    8    8    1

 Generating k-lattice:

  Cartesian coordinates                     Fractional coordinates (reciprocal lattice)
     0.014218495 -0.008209052  0.000000000     0.125000000 -0.000000000  0.000000000
     0.000000000  0.016418104  0.000000000     0.000000000  0.125000000  0.000000000
     0.000000000  0.000000000  0.037622587     0.000000000  0.000000000  1.000000000

  Length of vectors
     0.016418104  0.016418104  0.037622587

  Shift w.r.t. Gamma in fractional coordinates (k-lattice)
     0.000000000  0.000000000  0.000000000

 TETIRR: Found     36 inequivalent tetrahedra from      384
 
 Subroutine IBZKPT returns following result:
 ===========================================
 
 Found     10 irreducible k-points:
 
 Following reciprocal coordinates:
            Coordinates               Weight
  0.000000  0.000000  0.000000      1.000000
  0.125000 -0.000000  0.000000      6.000000
  0.250000 -0.000000  0.000000      6.000000
  0.375000 -0.000000  0.000000      6.000000
  0.500000 -0.000000  0.000000      3.000000
  0.250000  0.125000  0.000000      6.000000
  0.375000  0.125000  0.000000     12.000000
  0.500000  0.125000  0.000000     12.000000
  0.500000  0.250000  0.000000      6.000000
 -0.375000  0.250000  0.000000      6.000000
 
 Following cartesian coordinates:
            Coordinates               Weight
  0.000000  0.000000  0.000000      1.000000
  0.014218 -0.008209  0.000000      6.000000
  0.028437 -0.016418  0.000000      6.000000
  0.042655 -0.024627  0.000000      6.000000
  0.056874 -0.032836  0.000000      3.000000
  0.028437 -0.000000  0.000000      6.000000
  0.042655 -0.008209  0.000000     12.000000
  0.056874 -0.016418  0.000000     12.000000
  0.056874 -0.000000  0.000000      6.000000
 -0.042655  0.057463  0.000000      6.000000
 


--------------------------------------------------------------------------------------------------------




 Dimension of arrays:
   k-points           NKPTS =     10   k-points in BZ     NKDIM =     10   number of bands    NBANDS=    252
   number of dos      NEDOS =    301   number of ions     NIONS =     39
   non local maximal  LDIM  =      6   non local SUM 2l+1 LMDIM =     18
   total plane-waves  NPLWV = 345600
   max r-space proj   IRMAX =   2899   max aug-charges    IRDMAX=  13337
   dimension x,y,z NGX =    48 NGY =   48 NGZ =  150
   dimension x,y,z NGXF=    96 NGYF=   96 NGZF=  300
   support grid    NGXF=    96 NGYF=   96 NGZF=  300
   ions per type =              35   1   1   1   1
   NGX,Y,Z   is equivalent  to a cutoff of   9.08,  9.08,  9.38 a.u.
   NGXF,Y,Z  is equivalent  to a cutoff of  18.15, 18.15, 18.76 a.u.

 SYSTEM =  unknown system                          
 POSCAR =  Ag-Ru-COH                               

 Startparameter for this run:
   NWRITE =      2    write-flag & timer
   PREC   = normal    normal or accurate (medium, high low for compatibility)
   ISTART =      0    job   : 0-new  1-cont  2-samecut
   ICHARG =     11    charge: 1-file 2-atom 10-const
   ISPIN  =      1    spin polarized calculation?
   LNONCOLLINEAR =      F non collinear calculations
   LSORBIT =      F    spin-orbit coupling
   INIWAV =      1    electr: 0-lowe 1-rand  2-diag
   LASPH  =      F    aspherical Exc in radial PAW
   METAGGA=      F    non-selfconsistent MetaGGA calc.

 Electronic Relaxation 1
   ENCUT  =  500.0 eV  36.75 Ry    6.06 a.u.  16.03 16.03 48.46*2*pi/ulx,y,z
   ENINI  =  500.0     initial cutoff
   ENAUG  =  644.9 eV  augmentation charge cutoff
   NELM   =    150;   NELMIN=  2; NELMDL= -5     # of ELM steps 
   EDIFF  = 0.1E-04   stopping-criterion for ELM
   LREAL  =      T    real-space projection
   NLSPLINE    = F    spline interpolate recip. space projectors
   LCOMPAT=      F    compatible to vasp.4.4
   GGA_COMPAT  = T    GGA compatible to vasp.4.4-vasp.4.6
   LMAXPAW     = -100 max onsite density
   LMAXMIX     =    2 max onsite mixed and CHGCAR
   VOSKOWN=      0    Vosko Wilk Nusair interpolation
   ROPT   =   -0.00050  -0.00050  -0.00050  -0.00050
   ROPT   =   -0.00050
 Ionic relaxation
   EDIFFG = -.1E-01   stopping-criterion for IOM
   NSW    =      0    number of steps for IOM
   NBLOCK =      1;   KBLOCK =      1    inner block; outer block 
   IBRION =     -1    ionic relax: 0-MD 1-quasi-New 2-CG
   NFREE  =      1    steps in history (QN), initial steepest desc. (CG)
   ISIF   =      2    stress and relaxation
   IWAVPR =     10    prediction:  0-non 1-charg 2-wave 3-comb
   ISYM   =      2    0-nonsym 1-usesym 2-fastsym
   LCORR  =      T    Harris-Foulkes like correction to forces

   POTIM  = 0.5000    time-step for ionic-motion
   TEIN   =    0.0    initial temperature
   TEBEG  =    0.0;   TEEND  =   0.0 temperature during run
   SMASS  =  -3.00    Nose mass-parameter (am)
   estimated Nose-frequenzy (Omega)   =  0.10E-29 period in steps = 0.13E+47 mass=  -0.177E-26a.u.
   SCALEE = 1.0000    scale energy and forces
   NPACO  =    256;   APACO  = 16.0  distance and # of slots for P.C.
   PSTRESS=    0.0 pullay stress

  Mass of Ions in am
   POMASS = 107.87101.07 12.01 16.00  1.00
  Ionic Valenz
   ZVAL   =  11.00  8.00  4.00  6.00  1.00
  Atomic Wigner-Seitz radii
   RWIGS  =  -1.00 -1.00 -1.00 -1.00 -1.00
  virtual crystal weights 
   VCA    =   1.00  1.00  1.00  1.00  1.00
   NELECT =     404.0000    total number of electrons
   NUPDOWN=      -1.0000    fix difference up-down

 DOS related values:
   EMIN   =  10.00;   EMAX   =-10.00  energy-range for DOS
   EFERMI =   0.00
   ISMEAR =    -5;   SIGMA  =   0.10  broadening in eV -4-tet -1-fermi 0-gaus

 Electronic relaxation 2 (details)
   IALGO  =     68    algorithm
   LDIAG  =      T    sub-space diagonalisation (order eigenvalues)
   LSUBROT=      F    optimize rotation matrix (better conditioning)
   TURBO    =      0    0=normal 1=particle mesh
   IRESTART =      0    0=no restart 2=restart with 2 vectors
   NREBOOT  =      0    no. of reboots
   NMIN     =      0    reboot dimension
   EREF     =   0.00    reference energy to select bands
   IMIX   =      4    mixing-type and parameters
     AMIX     =   0.40;   BMIX     =  1.00
     AMIX_MAG =   1.60;   BMIX_MAG =  1.00
     AMIN     =   0.10
     WC   =   100.;   INIMIX=   1;  MIXPRE=   1;  MAXMIX= -45

 Intra band minimization:
   WEIMIN = 0.0000     energy-eigenvalue tresh-hold
   EBREAK =  0.99E-08  absolut break condition
   DEPER  =   0.30     relativ break condition  

   TIME   =   0.40     timestep for ELM

  volume/ion in A,a.u.               =      45.62       307.84
  Fermi-wavevector in a.u.,A,eV,Ry     =   0.998781  1.887423 13.572681  0.997564
  Thomas-Fermi vector in A             =   2.131028
 
 Write flags
   LWAVE        =      F    write WAVECAR
   LDOWNSAMPLE  =      F    k-point downsampling of WAVECAR
   LCHARG       =      F    write CHGCAR
   LVTOT        =      F    write LOCPOT, total local potential
   LVHAR        =      F    write LOCPOT, Hartree potential only
   LELF         =      F    write electronic localiz. function (ELF)
   LORBIT       =     10    0 simple, 1 ext, 2 COOP (PROOUT), +10 PAW based schemes


 Dipole corrections
   LMONO  =      F    monopole corrections only (constant potential shift)
   LDIPOL =      F    correct potential (dipole corrections)
   IDIPOL =      0    1-x, 2-y, 3-z, 4-all directions 
   EPSILON=  1.0000000 bulk dielectric constant

 Exchange correlation treatment:
   GGA     =    --    GGA type
   LEXCH   =     8    internal setting for exchange type
   VOSKOWN=      0    Vosko Wilk Nusair interpolation
   LHFCALC =     F    Hartree Fock is set to
   LHFONE  =     F    Hartree Fock one center treatment
   AEXX    =    0.0000 exact exchange contribution

 Linear response parameters
   LEPSILON=     F    determine dielectric tensor
   LRPA    =     F    only Hartree local field effects (RPA)
   LNABLA  =     F    use nabla operator in PAW spheres
   LVEL    =     F    velocity operator in full k-point grid
   LINTERFAST=   F  fast interpolation
   KINTER  =     0    interpolate to denser k-point grid
   CSHIFT  =0.1000    complex shift for real part using Kramers Kronig
   OMEGAMAX=  -1.0    maximum frequency
   DEG_THRESHOLD= 0.2000000E-02 threshold for treating states as degnerate
   RTIME   =   -0.100 relaxation time in fs
  (WPLASMAI=    0.000 imaginary part of plasma frequency in eV, 0.658/RTIME)
   DFIELD  = 0.0000000 0.0000000 0.0000000 field for delta impulse in time
 
 Orbital magnetization related:
   ORBITALMAG=     F  switch on orbital magnetization
   LCHIMAG   =     F  perturbation theory with respect to B field
   DQ        =  0.001000  dq finite difference perturbation B field
   LLRAUG    =     F  two centre corrections for induced B field



--------------------------------------------------------------------------------------------------------


 Static calculation
 charge density and potential remain constant during run
 non-spin polarized calculation
 RMM-DIIS sequential band-by-band and
  variant of blocked Davidson during initial phase
 perform sub-space diagonalisation
    before iterative eigenvector-optimisation
 no mixing
 using additional bands           50
 real space projection scheme for non local part
 use partial core corrections
 calculate Harris-corrections to forces 
   (improved forces if not selfconsistent)
 use gradient corrections 
 WARNING: stress and forces are not correct
  (second derivative of E(xc) not defined)
 use of overlap-Matrix (Vanderbilt PP)
 Fermi weights with tetrahedron method with Bloechl corrections


--------------------------------------------------------------------------------------------------------


  energy-cutoff  :      500.00
  volume of cell :     1779.08
      direct lattice vectors                 reciprocal lattice vectors
     8.791366577  0.000000000  0.000000000     0.113747958 -0.065672414  0.000000000
     4.395683289  7.613546790  0.000000000     0.000000000  0.131344829  0.000000000
     0.000000000  0.000000000 26.579777397     0.000000000  0.000000000  0.037622587

  length of vectors
     8.791366577  8.791366577 26.579777397     0.131344829  0.131344829  0.037622587


 
 k-points in units of 2pi/SCALE and weight: Automatic mesh                          
   0.00000000  0.00000000  0.00000000       0.016
   0.01421849 -0.00820905  0.00000000       0.094
   0.02843699 -0.01641810  0.00000000       0.094
   0.04265548 -0.02462716  0.00000000       0.094
   0.05687398 -0.03283621  0.00000000       0.047
   0.02843699 -0.00000000  0.00000000       0.094
   0.04265548 -0.00820905  0.00000000       0.188
   0.05687398 -0.01641810  0.00000000       0.188
   0.05687398 -0.00000000  0.00000000       0.094
  -0.04265548  0.05746336  0.00000000       0.094
 
 k-points in reciprocal lattice and weights: Automatic mesh                          
   0.00000000  0.00000000  0.00000000       0.016
   0.12500000 -0.00000000  0.00000000       0.094
   0.25000000 -0.00000000  0.00000000       0.094
   0.37500000 -0.00000000  0.00000000       0.094
   0.50000000 -0.00000000  0.00000000       0.047
   0.25000000  0.12500000  0.00000000       0.094
   0.37500000  0.12500000  0.00000000       0.188
   0.50000000  0.12500000  0.00000000       0.188
   0.50000000  0.25000000  0.00000000       0.094
  -0.37500000  0.25000000  0.00000000       0.094
 
 position of ions in fractional coordinates (direct lattice) 
   0.00000000  0.00000000  0.19872959
   0.33333331  0.00000000  0.19872959
   0.66666663  0.00000000  0.19872959
   0.00000000  0.33333334  0.19872959
   0.33333331  0.33333334  0.19872959
   0.66666669  0.33333334  0.19872959
   0.00000000  0.66666669  0.19872959
   0.33333331  0.66666669  0.19872959
   0.66666663  0.66666669  0.19872959
   0.11111110  0.11111111  0.28874942
   0.44444445  0.11111111  0.28874942
   0.77777779  0.11111111  0.28874942
   0.11111110  0.44444445  0.28874942
   0.44444442  0.44444445  0.28874942
   0.77777779  0.44444445  0.28874942
   0.11111110  0.77777779  0.28874942
   0.44444445  0.77777779  0.28874942
   0.77777779  0.77777779  0.28874942
   0.88871814  0.22256374  0.37858927
   0.22268221  0.22268223  0.37737544
   0.55463552  0.22268223  0.37737544
   0.88846211  0.55576898  0.37831490
   0.22268223  0.55463558  0.37737544
   0.55576898  0.55576898  0.37831490
   0.88871814  0.88871814  0.37858927
   0.22256371  0.88871814  0.37858927
   0.55576892  0.88846211  0.37831490
   0.00000000  0.00000000  0.46742285
   0.33308607  0.00582214  0.46793019
   0.66109174  0.00582214  0.46793019
   0.00582214  0.33308610  0.46793019
   0.66109180  0.33308610  0.46793019
   0.00582214  0.66109180  0.46793019
   0.33308607  0.66109180  0.46793019
   0.66666663  0.66666669  0.46729844
   0.33333331  0.33333334  0.46014524
   0.33333331  0.33333334  0.52564403
   0.33333331  0.33333334  0.57322206
   0.33333331  0.33333334  0.60938392
 
 position of ions in cartesian coordinates  (Angst):
   0.00000000  0.00000000  5.28218814
   2.93045535  0.00000000  5.28218814
   5.86091070  0.00000000  5.28218814
   1.46522781  2.53784900  5.28218814
   4.39568315  2.53784900  5.28218814
   7.32613904  2.53784900  5.28218814
   2.93045562  5.07569801  5.28218814
   5.86091096  5.07569801  5.28218814
   8.79136632  5.07569801  5.28218814
   1.46522770  0.84594965  7.67489535
   4.39568332  0.84594965  7.67489535
   7.32613893  0.84594965  7.67489535
   2.93045542  3.38379860  7.67489535
   5.86091083  3.38379860  7.67489535
   8.79136671  3.38379860  7.67489535
   4.39568328  5.92164760  7.67489535
   7.32613890  5.92164760  7.67489535
  10.25659451  5.92164760  7.67489535
   8.79136665  1.69449944 10.06281846
   2.93652150  1.69540156 10.03055511
   5.85484468  1.69540156 10.03055511
  10.25378047  4.23137311 10.05552583
   4.39568342  4.22274391 10.03055511
   7.32895321  4.23137311 10.05552583
  11.71957041  6.76629713 10.06281846
   5.86316262  6.76629713 10.06281846
   8.79136631  6.76434782 10.05552583
   0.00000000  0.00000000 12.42399517
   2.95387399  0.04432711 12.43748034
   5.83749206  0.04432711 12.43748034
   1.51532553  2.53596659 12.43748034
   7.27604131  2.53596659 12.43748034
   2.95713470  5.03325332 12.43748034
   5.83423188  5.03325332 12.43748034
   8.79136632  5.07569801 12.42068856
   4.39568315  2.53784900 12.23055812
   4.39568315  2.53784900 13.97150143
   4.39568315  2.53784900 15.23611486
   4.39568315  2.53784900 16.19728896
 


--------------------------------------------------------------------------------------------------------


 k-point   1 :   0.0000 0.0000 0.0000  plane waves:   44983
 k-point   2 :   0.1250-0.0000 0.0000  plane waves:   45042
 k-point   3 :   0.2500-0.0000 0.0000  plane waves:   45130
 k-point   4 :   0.3750-0.0000 0.0000  plane waves:   45154
 k-point   5 :   0.5000-0.0000 0.0000  plane waves:   45200
 k-point   6 :   0.2500 0.1250 0.0000  plane waves:   45136
 k-point   7 :   0.3750 0.1250 0.0000  plane waves:   45202
 k-point   8 :   0.5000 0.1250 0.0000  plane waves:   45204
 k-point   9 :   0.5000 0.2500 0.0000  plane waves:   45196
 k-point  10 :  -0.3750 0.2500 0.0000  plane waves:   45180

 maximum and minimum number of plane-waves per node :     45204    44983

 maximum number of plane-waves:     45204
 maximum index in each direction: 
   IXMAX=   16   IYMAX=   16   IZMAX=   48
   IXMIN=  -16   IYMIN=  -16   IZMIN=  -48


 serial   3D FFT for wavefunctions
 parallel 3D FFT for charge:
    minimum data exchange during FFTs selected (reduces bandwidth)


 total amount of memory used by VASP MPI-rank0   140362. kBytes
=======================================================================

   base      :      30000. kBytes
   nonlr-proj:      15396. kBytes
   fftplans  :       5150. kBytes
   grid      :      23126. kBytes
   one-center:        606. kBytes
   wavefun   :      66084. kBytes
 
     INWAV:  cpu time    0.0000: real time    0.0001
 initial charge density was supplied:
 number of electron     404.0000312 magnetization 
 keeping initial charge density in first step


--------------------------------------------------------------------------------------------------------


 Maximum index for non-local projection operator         2825
 Maximum index for augmentation-charges          702 (set IRDMAX)


--------------------------------------------------------------------------------------------------------


 First call to EWALD:  gamma=   0.146
 Maximum number of real-space cells 4x 4x 2
 Maximum number of reciprocal cells 2x 2x 5

    FEWALD:  cpu time    0.0013: real time    0.0014


--------------------------------------- Iteration      1(   1)  ---------------------------------------


    POTLOK:  cpu time    0.0633: real time    0.0636
    SETDIJ:  cpu time    0.0049: real time    0.0051
     EDDAV:  cpu time    8.3462: real time    8.3481
 BZINTS: Fermi energy:    8.906843;  404.000000 electrons
         Band energy: 0.104477E+04;  BLOECHL correction:   -0.044736
       DOS:  cpu time    0.0110: real time    0.0110
    --------------------------------------------
      LOOP:  cpu time    8.4254: real time    8.4277

 eigenvalue-minimisations  :  5040
 total energy-change (2. order) : 0.2429295E+04  (-0.1798729E+05)
 number of electron     404.0000312 magnetization 
 augmentation part      404.0000312 magnetization 

 Free energy of the ion-electron system (eV)
  ---------------------------------------------------
  alpha Z        PSCENC =       638.07641072
  Ewald energy   TEWEN  =    164267.23860042
  -Hartree energ DENC   =   -202074.47777235
  -exchange      EXHF   =         0.00000000
  -V(xc)+E(xc)   XCENC  =      -377.01485300
  PAW double counting   =     39843.45586087   -38263.81042842
  entropy T*S    EENTRO =         0.00000000
  eigenvalues    EBANDS =      1044.77332328
  atomic energy  EATOM  =     37351.05426692
  Solvation  Ediel_sol  =         0.00000000
  ---------------------------------------------------
  free energy    TOTEN  =      2429.29540845 eV

  energy without entropy =     2429.29540845  energy(sigma->0) =     2429.29540845


--------------------------------------------------------------------------------------------------------




--------------------------------------- Iteration      1(   2)  ---------------------------------------


     EDDAV:  cpu time    8.7255: real time    8.7259
 BZINTS: Fermi energy:    1.051952;  404.000000 electrons
         Band energy:-0.139116E+04;  BLOECHL correction:   -0.045696
       DOS:  cpu time    0.0105: real time    0.0105
    --------------------------------------------
      LOOP:  cpu time    8.7360: real time    8.7365

 eigenvalue-minimisations  :  5348
 total energy-change (2. order) :-0.2435937E+04  (-0.2305869E+04)
 number of electron     404.0000312 magnetization 
 augmentation part      404.0000312 magnetization 

 Free energy of the ion-electron system (eV)
  ---------------------------------------------------
  alpha Z        PSCENC =       638.07641072
  Ewald energy   TEWEN  =    164267.23860042
  -Hartree energ DENC   =   -202074.47777235
  -exchange      EXHF   =         0.00000000
  -V(xc)+E(xc)   XCENC  =      -377.01485300
  PAW double counting   =     39843.45586087   -38263.81042842
  entropy T*S    EENTRO =         0.00000000
  eigenvalues    EBANDS =     -1391.16387621
  atomic energy  EATOM  =     37351.05426692
  Solvation  Ediel_sol  =         0.00000000
  ---------------------------------------------------
  free energy    TOTEN  =        -6.64179104 eV

  energy without entropy =       -6.64179104  energy(sigma->0) =       -6.64179104


--------------------------------------------------------------------------------------------------------




--------------------------------------- Iteration      1(   3)  ---------------------------------------


     EDDAV:  cpu time    9.5450: real time    9.5454
 BZINTS: Fermi energy:    0.545055;  404.000000 electrons
         Band energy:-0.149734E+04;  BLOECHL correction:   -0.052150
       DOS:  cpu time    0.0105: real time    0.0105
    --------------------------------------------
      LOOP:  cpu time    9.5555: real time    9.5559

 eigenvalue-minimisations  :  5964
 total energy-change (2. order) :-0.1061736E+03  (-0.1042054E+03)
 number of electron     404.0000312 magnetization 
 augmentation part      404.0000312 magnetization 

 Free energy of the ion-electron system (eV)
  ---------------------------------------------------
  alpha Z        PSCENC =       638.07641072
  Ewald energy   TEWEN  =    164267.23860042
  -Hartree energ DENC   =   -202074.47777235
  -exchange      EXHF   =         0.00000000
  -V(xc)+E(xc)   XCENC  =      -377.01485300
  PAW double counting   =     39843.45586087   -38263.81042842
  entropy T*S    EENTRO =         0.00000000
  eigenvalues    EBANDS =     -1497.33751406
  atomic energy  EATOM  =     37351.05426692
  Solvation  Ediel_sol  =         0.00000000
  ---------------------------------------------------
  free energy    TOTEN  =      -112.81542889 eV

  energy without entropy =     -112.81542889  energy(sigma->0) =     -112.81542889


--------------------------------------------------------------------------------------------------------




--------------------------------------- Iteration      1(   4)  ---------------------------------------


     EDDAV:  cpu time    9.2023: real time    9.2027
 BZINTS: Fermi energy:    0.534085;  404.000000 electrons
         Band energy:-0.149918E+04;  BLOECHL correction:   -0.051629
       DOS:  cpu time    0.0103: real time    0.0103
    --------------------------------------------
      LOOP:  cpu time    9.2126: real time    9.2130

 eigenvalue-minimisations  :  5712
 total energy-change (2. order) :-0.1843730E+01  (-0.1834596E+01)
 number of electron     404.0000312 magnetization 
 augmentation part      404.0000312 magnetization 

 Free energy of the ion-electron system (eV)
  ---------------------------------------------------
  alpha Z        PSCENC =       638.07641072
  Ewald energy   TEWEN  =    164267.23860042
  -Hartree energ DENC   =   -202074.47777235
  -exchange      EXHF   =         0.00000000
  -V(xc)+E(xc)   XCENC  =      -377.01485300
  PAW double counting   =     39843.45586087   -38263.81042842
  entropy T*S    EENTRO =         0.00000000
  eigenvalues    EBANDS =     -1499.18124442
  atomic energy  EATOM  =     37351.05426692
  Solvation  Ediel_sol  =         0.00000000
  ---------------------------------------------------
  free energy    TOTEN  =      -114.65915926 eV

  energy without entropy =     -114.65915926  energy(sigma->0) =     -114.65915926


--------------------------------------------------------------------------------------------------------




--------------------------------------- Iteration      1(   5)  ---------------------------------------


     EDDAV:  cpu time    9.7945: real time    9.7951
 BZINTS: Fermi energy:    0.534035;  404.000000 electrons
         Band energy:-0.149922E+04;  BLOECHL correction:   -0.051620
       DOS:  cpu time    0.0105: real time    0.0105
    --------------------------------------------
      LOOP:  cpu time    9.8050: real time    9.8056

 eigenvalue-minimisations  :  6132
 total energy-change (2. order) :-0.4250175E-01  (-0.4249950E-01)
 number of electron     404.0000312 magnetization 
 augmentation part      404.0000312 magnetization 

 Free energy of the ion-electron system (eV)
  ---------------------------------------------------
  alpha Z        PSCENC =       638.07641072
  Ewald energy   TEWEN  =    164267.23860042
  -Hartree energ DENC   =   -202074.47777235
  -exchange      EXHF   =         0.00000000
  -V(xc)+E(xc)   XCENC  =      -377.01485300
  PAW double counting   =     39843.45586087   -38263.81042842
  entropy T*S    EENTRO =         0.00000000
  eigenvalues    EBANDS =     -1499.22374617
  atomic energy  EATOM  =     37351.05426692
  Solvation  Ediel_sol  =         0.00000000
  ---------------------------------------------------
  free energy    TOTEN  =      -114.70166100 eV

  energy without entropy =     -114.70166100  energy(sigma->0) =     -114.70166100


--------------------------------------------------------------------------------------------------------




--------------------------------------- Iteration      1(   6)  ---------------------------------------


    EDDIAG:  cpu time    1.6587: real time    1.6622
  RMM-DIIS:  cpu time    4.7737: real time    4.7739
    ORTHCH:  cpu time    0.3038: real time    0.3038
 BZINTS: Fermi energy:    0.534034;  404.000000 electrons
         Band energy:-0.149922E+04;  BLOECHL correction:   -0.051619
       DOS:  cpu time    0.0105: real time    0.0105
    --------------------------------------------
      LOOP:  cpu time    6.7468: real time    6.7504

 eigenvalue-minimisations  :  5101
 total energy-change (2. order) :-0.8765134E-03  (-0.8765199E-03)
 number of electron     404.0000312 magnetization 
 augmentation part      404.0000312 magnetization 

 Free energy of the ion-electron system (eV)
  ---------------------------------------------------
  alpha Z        PSCENC =       638.07641072
  Ewald energy   TEWEN  =    164267.23860042
  -Hartree energ DENC   =   -202074.47777235
  -exchange      EXHF   =         0.00000000
  -V(xc)+E(xc)   XCENC  =      -377.01485300
  PAW double counting   =     39843.45586087   -38263.81042842
  entropy T*S    EENTRO =         0.00000000
  eigenvalues    EBANDS =     -1499.22462268
  atomic energy  EATOM  =     37351.05426692
  Solvation  Ediel_sol  =         0.00000000
  ---------------------------------------------------
  free energy    TOTEN  =      -114.70253752 eV

  energy without entropy =     -114.70253752  energy(sigma->0) =     -114.70253752


--------------------------------------------------------------------------------------------------------




--------------------------------------- Iteration      1(   7)  ---------------------------------------


    EDDIAG:  cpu time    1.6601: real time    1.6602
  RMM-DIIS:  cpu time    6.8269: real time    6.8272
    ORTHCH:  cpu time    0.3040: real time    0.3040
 BZINTS: Fermi energy:    0.534034;  404.000000 electrons
         Band energy:-0.149922E+04;  BLOECHL correction:   -0.051619
       DOS:  cpu time    0.0105: real time    0.0105
    --------------------------------------------
      LOOP:  cpu time    8.8014: real time    8.8019

 eigenvalue-minimisations  :  7342
 total energy-change (2. order) :-0.3031469E-03  (-0.3026607E-03)
 number of electron     404.0000312 magnetization 
 augmentation part      404.0000312 magnetization 

 Free energy of the ion-electron system (eV)
  ---------------------------------------------------
  alpha Z        PSCENC =       638.07641072
  Ewald energy   TEWEN  =    164267.23860042
  -Hartree energ DENC   =   -202074.47777235
  -exchange      EXHF   =         0.00000000
  -V(xc)+E(xc)   XCENC  =      -377.01485300
  PAW double counting   =     39843.45586087   -38263.81042842
  entropy T*S    EENTRO =         0.00000000
  eigenvalues    EBANDS =     -1499.22492583
  atomic energy  EATOM  =     37351.05426692
  Solvation  Ediel_sol  =         0.00000000
  ---------------------------------------------------
  free energy    TOTEN  =      -114.70284066 eV

  energy without entropy =     -114.70284066  energy(sigma->0) =     -114.70284066


--------------------------------------------------------------------------------------------------------




--------------------------------------- Iteration      1(   8)  ---------------------------------------


    EDDIAG:  cpu time    1.6607: real time    1.6609
  RMM-DIIS:  cpu time    5.0107: real time    5.0108
    ORTHCH:  cpu time    0.3038: real time    0.3038
 BZINTS: Fermi energy:    0.534034;  404.000000 electrons
         Band energy:-0.149922E+04;  BLOECHL correction:   -0.051619
       DOS:  cpu time    0.0100: real time    0.0100
    --------------------------------------------
      LOOP:  cpu time    6.9852: real time    6.9855

 eigenvalue-minimisations  :  5110
 total energy-change (2. order) :-0.1606124E-04  (-0.1714637E-04)
 number of electron     404.0000312 magnetization 
 augmentation part      404.0000312 magnetization 

 Free energy of the ion-electron system (eV)
  ---------------------------------------------------
  alpha Z        PSCENC =       638.07641072
  Ewald energy   TEWEN  =    164267.23860042
  -Hartree energ DENC   =   -202074.47777235
  -exchange      EXHF   =         0.00000000
  -V(xc)+E(xc)   XCENC  =      -377.01485300
  PAW double counting   =     39843.45586087   -38263.81042842
  entropy T*S    EENTRO =         0.00000000
  eigenvalues    EBANDS =     -1499.22494189
  atomic energy  EATOM  =     37351.05426692
  Solvation  Ediel_sol  =         0.00000000
  ---------------------------------------------------
  free energy    TOTEN  =      -114.70285673 eV

  energy without entropy =     -114.70285673  energy(sigma->0) =     -114.70285673


--------------------------------------------------------------------------------------------------------




--------------------------------------- Iteration      1(   9)  ---------------------------------------


    EDDIAG:  cpu time    1.6605: real time    1.6607
  RMM-DIIS:  cpu time    4.2561: real time    4.2562
    ORTHCH:  cpu time    0.3039: real time    0.3039
 BZINTS: Fermi energy:    0.534034;  404.000000 electrons
         Band energy:-0.149922E+04;  BLOECHL correction:   -0.051619
       DOS:  cpu time    0.0104: real time    0.0104
    --------------------------------------------
      LOOP:  cpu time    6.2310: real time    6.2312

 eigenvalue-minimisations  :  3685
 total energy-change (2. order) :-0.2387533E-05  (-0.2580979E-05)
 number of electron     404.0000312 magnetization 
 augmentation part      404.0000312 magnetization 

 Free energy of the ion-electron system (eV)
  ---------------------------------------------------
  alpha Z        PSCENC =       638.07641072
  Ewald energy   TEWEN  =    164267.23860042
  -Hartree energ DENC   =   -202074.47777235
  -exchange      EXHF   =         0.00000000
  -V(xc)+E(xc)   XCENC  =      -377.01485300
  PAW double counting   =     39843.45586087   -38263.81042842
  entropy T*S    EENTRO =         0.00000000
  eigenvalues    EBANDS =     -1499.22494428
  atomic energy  EATOM  =     37351.05426692
  Solvation  Ediel_sol  =         0.00000000
  ---------------------------------------------------
  free energy    TOTEN  =      -114.70285911 eV

  energy without entropy =     -114.70285911  energy(sigma->0) =     -114.70285911


--------------------------------------------------------------------------------------------------------




 average (electrostatic) potential at core
  the test charge radii are     1.1249  1.2511  0.6991  0.7215  0.5201
  (the norm of the test charge is              1.0000)
       1 -78.3997       2 -78.3506       3 -78.3505       4 -78.3506       5 -78.3268
       6 -78.3503       7 -78.3505       8 -78.3503       9 -78.3802      10 -78.5958
      11 -78.5594      12 -78.5955      13 -78.5594      14 -78.5591      15 -78.5807
      16 -78.5955      17 -78.5807      18 -78.5808      19 -78.5487      20 -78.6158
      21 -78.6157      22 -78.5603      23 -78.6157      24 -78.5602      25 -78.5487
      26 -78.5487      27 -78.5603      28 -78.3075      29 -78.2484      30 -78.2484
      31 -78.2484      32 -78.2482      33 -78.2484      34 -78.2482      35 -78.2813
      36 -67.4315      37 -57.1056      38 -79.0075      39 -43.3756
 
 
 
 E-fermi :   0.5340     XC(G=0):  -5.0844     alpha+bet : -4.7801

 Fermi energy:         0.5340337333

 k-point     1 :       0.0000    0.0000    0.0000
  band No.  band energies     occupation 
      1     -24.0440      2.00000
      2     -14.7426      2.00000
      3      -7.7651      2.00000
      4      -6.8685      2.00000
      5      -6.8683      2.00000
      6      -6.5448      2.00000
      7      -5.6836      2.00000
      8      -5.4231      2.00000
      9      -5.3013      2.00000
     10      -5.2998      2.00000
     11      -5.2998      2.00000
     12      -5.2960      2.00000
     13      -5.2960      2.00000
     14      -5.2942      2.00000
     15      -5.2727      2.00000
     16      -5.2586      2.00000
     17      -5.2586      2.00000
     18      -5.2506      2.00000
     19      -5.2433      2.00000
     20      -5.2432      2.00000
     21      -5.2082      2.00000
     22      -5.0920      2.00000
     23      -5.0920      2.00000
     24      -5.0876      2.00000
     25      -5.0857      2.00000
     26      -5.0815      2.00000
     27      -5.0814      2.00000
     28      -4.8955      2.00000
     29      -4.8955      2.00000
     30      -4.8911      2.00000
     31      -4.8796      2.00000
     32      -4.8682      2.00000
     33      -4.8675      2.00000
     34      -4.8652      2.00000
     35      -4.8651      2.00000
     36      -4.8409      2.00000
     37      -4.8409      2.00000
     38      -4.8391      2.00000
     39      -4.8391      2.00000
     40      -4.7167      2.00000
     41      -4.7153      2.00000
     42      -4.7153      2.00000
     43      -4.6567      2.00000
     44      -4.6109      2.00000
     45      -4.6109      2.00000
     46      -4.5111      2.00000
     47      -4.5110      2.00000
     48      -4.4994      2.00000
     49      -4.4994      2.00000
     50      -4.4885      2.00000
     51      -4.4798      2.00000
     52      -4.4792      2.00000
     53      -4.4792      2.00000
     54      -4.4582      2.00000
     55      -4.4582      2.00000
     56      -4.3524      2.00000
     57      -4.3461      2.00000
     58      -4.3151      2.00000
     59      -4.3092      2.00000
     60      -4.1125      2.00000
     61      -4.1104      2.00000
     62      -4.1104      2.00000
     63      -4.1024      2.00000
     64      -4.0993      2.00000
     65      -4.0992      2.00000
     66      -4.0900      2.00000
     67      -4.0768      2.00000
     68      -4.0767      2.00000
     69      -4.0500      2.00000
     70      -4.0500      2.00000
     71      -3.9550      2.00000
     72      -3.9550      2.00000
     73      -3.9303      2.00000
     74      -3.9302      2.00000
     75      -3.9290      2.00000
     76      -3.9252      2.00000
     77      -3.9111      2.00000
     78      -3.9110      2.00000
     79      -3.8936      2.00000
     80      -3.8936      2.00000
     81      -3.8815      2.00000
     82      -3.8626      2.00000
     83      -3.8626      2.00000
     84      -3.8574      2.00000
     85      -3.8573      2.00000
     86      -3.8559      2.00000
     87      -3.8541      2.00000
     88      -3.8019      2.00000
     89      -3.8019      2.00000
     90      -3.7243      2.00000
     91      -3.7222      2.00000
     92      -3.7222      2.00000
     93      -3.6993      2.00000
     94      -3.6993      2.00000
     95      -3.6617      2.00000
     96      -3.6617      2.00000
     97      -3.6372      2.00000
     98      -3.6368      2.00000
     99      -3.6368      2.00000
    100      -3.6285      2.00000
    101      -3.6285      2.00000
    102      -3.5673      2.00000
    103      -3.5673      2.00000
    104      -3.3948      2.00000
    105      -3.3948      2.00000
    106      -3.3875      2.00000
    107      -3.3867      2.00000
    108      -3.3866      2.00000
    109      -3.3725      2.00000
    110      -3.3628      2.00000
    111      -3.3628      2.00000
    112      -3.3376      2.00000
    113      -3.3160      2.00000
    114      -3.3159      2.00000
    115      -3.2707      2.00000
    116      -3.2686      2.00000
    117      -3.2472      2.00000
    118      -3.2472      2.00000
    119      -3.1817      2.00000
    120      -3.1368      2.00000
    121      -3.1368      2.00000
    122      -3.1175      2.00000
    123      -3.1175      2.00000
    124      -3.0512      2.00000
    125      -3.0512      2.00000
    126      -3.0376      2.00000
    127      -3.0375      2.00000
    128      -3.0336      2.00000
    129      -3.0274      2.00000
    130      -3.0274      2.00000
    131      -3.0059      2.00000
    132      -3.0058      2.00000
    133      -3.0058      2.00000
    134      -2.9968      2.00000
    135      -2.9897      2.00000
    136      -2.9897      2.00000
[...]
  0.000   0.000   0.000   0.000   0.000   0.000   0.000   0.000   0.000   0.000   1.000   0.000   0.000   0.000   0.000   0.000
  0.000   0.000   0.000   0.000   0.000   0.000   0.000   0.000   0.000   0.000   0.000   0.000   0.000   0.000   0.000   0.000
  0.000   0.000   0.000   0.000   0.000   0.000   0.000   0.000   0.000   0.000   0.000   0.000   0.000   0.000   0.000   0.000
  0.000   0.000   0.000   0.000   0.000   0.000   0.000   0.000   0.000   0.000   0.000   0.000   0.000   0.000   0.000   0.000
  0.000   0.000   0.000   0.000   0.000   0.000   0.000   0.000   0.000   0.000   0.000   0.000   0.000   0.000   0.000   0.000
  0.000   0.000   0.000   0.000   0.000   0.000   0.000   0.000   0.000   0.000   0.000   0.000   0.000   0.000   0.000   0.000
  0.000   0.000   0.000   0.000   0.000   0.000   0.000   0.000   0.000   0.000   0.000   0.000   0.000   0.000   0.000   0.000
  0.000   0.000   0.000   0.000   0.000   0.000   0.000   0.000   0.000   0.000   0.000   0.000   0.000   0.000   0.000   0.000


------------------------ aborting loop because EDIFF is reached ----------------------------------------





 total charge

# of ion       s       p       d       tot
------------------------------------------
    1        0.417   0.202   9.179   9.798
    2        0.419   0.204   9.177   9.799
    3        0.419   0.204   9.177   9.799
    4        0.419   0.204   9.177   9.799
    5        0.420   0.204   9.175   9.800
    6        0.419   0.204   9.177   9.799
    7        0.419   0.204   9.177   9.799
    8        0.419   0.204   9.177   9.799
    9        0.413   0.205   9.178   9.796
   10        0.407   0.268   9.165   9.839
   11        0.409   0.268   9.167   9.845
   12        0.407   0.268   9.165   9.839
   13        0.409   0.268   9.167   9.845
   14        0.409   0.268   9.167   9.845
   15        0.400   0.271   9.165   9.836
   16        0.407   0.268   9.165   9.839
   17        0.400   0.271   9.165   9.836
   18        0.400   0.271   9.165   9.836
   19        0.404   0.266   9.166   9.837
   20        0.432   0.291   9.151   9.874
   21        0.432   0.291   9.151   9.874
   22        0.395   0.277   9.164   9.836
   23        0.432   0.291   9.151   9.874
   24        0.395   0.277   9.164   9.836
   25        0.404   0.266   9.166   9.837
   26        0.404   0.266   9.166   9.837
   27        0.395   0.277   9.164   9.836
   28        0.420   0.196   9.181   9.798
   29        0.410   0.217   9.176   9.802
   30        0.410   0.217   9.176   9.802
   31        0.410   0.217   9.176   9.802
   32        0.410   0.217   9.176   9.802
   33        0.410   0.217   9.176   9.802
   34        0.410   0.217   9.176   9.802
   35        0.415   0.198   9.181   9.795
   36        0.564   0.674   6.873   8.110
   37        0.924   1.454   0.000   2.378
   38        1.527   3.757   0.000   5.284
   39        0.560   0.133   0.000   0.693
--------------------------------------------------
tot         17.972  14.471 327.817 360.261
 
    CHARGE:  cpu time    0.4334: real time    0.4335
    FORLOC:  cpu time    0.0142: real time    0.0142
    FORNL :  cpu time    1.7546: real time    1.7548
    STRESS:  cpu time    5.2580: real time    5.2584
    FORCOR:  cpu time    0.0540: real time    0.0540
    FORHAR:  cpu time    0.0223: real time    0.0224
    OFIELD:  cpu time    0.0003: real time    0.0003

  FORCE on cell =-STRESS in cart. coord.  units (eV):
  Direction    XX          YY          ZZ          XY          YZ          ZX
  --------------------------------------------------------------------------------------
  Alpha Z   638.07641   638.07641   638.07641
  Ewald  186808.06116186808.06121************     0.00004    -0.00000     0.00005
  Hartree197003.98552197003.98554************     0.00002     0.00000     0.00002
  E(xc)   -2115.42939 -2115.42956 -2119.14483     0.00014    -0.00001    -0.00002
  Local  ************************394778.40043     0.00064    -0.00007    -0.00020
  n-local  -348.15594  -329.18331  -335.91800    11.55044    -0.40691     0.53391
  augment  3276.55312  3276.55335  3273.63929    -0.00020    -0.00002     0.00000
  Kinetic  5083.72048  5088.31584  5030.37373     5.44484     0.94053    -0.33694
  Fock        0.00000     0.00000     0.00000     0.00000     0.00000     0.00000
  -------------------------------------------------------------------------------------
  Total      -6.68621    -6.68621     0.73853    -0.00000    -0.00000    -0.00000
  in kB      -6.02138    -6.02138     0.66510    -0.00000    -0.00000    -0.00000
  external pressure =       -3.79 kB  Pullay stress =        0.00 kB


 VOLUME and BASIS-vectors are now :
 -----------------------------------------------------------------------------
  energy-cutoff  :      500.00
  volume of cell :     1779.08
      direct lattice vectors                 reciprocal lattice vectors
     8.791366577  0.000000000  0.000000000     0.113747958 -0.065672414  0.000000000
     4.395683289  7.613546790  0.000000000     0.000000000  0.131344829  0.000000000
     0.000000000  0.000000000 26.579777397     0.000000000  0.000000000  0.037622587

  length of vectors
     8.791366577  8.791366577 26.579777397     0.131344829  0.131344829  0.037622587


 FORCES acting on ions
    electron-ion (+dipol)            ewald-force                    non-local-force                 convergence-correction
 -----------------------------------------------------------------------------------------------
   0.456E-04 -.285E-04 0.285E+04   -.954E-04 0.593E-04 -.285E+04   0.183E-17 -.224E-17 -.232E+01   -.106E-03 -.168E-03 -.393E+00
   0.391E+00 0.487E+00 0.285E+04   -.411E+00 -.518E+00 -.285E+04   0.426E-01 0.937E-01 -.162E+01   -.120E-01 -.433E-01 -.370E+00
   -.391E+00 0.487E+00 0.285E+04   0.411E+00 -.518E+00 -.285E+04   -.426E-01 0.937E-01 -.162E+01   0.115E-01 -.414E-01 -.369E+00
   0.617E+00 0.952E-01 0.285E+04   -.654E+00 -.973E-01 -.285E+04   0.102E+00 -.991E-02 -.162E+01   -.433E-01 0.115E-01 -.370E+00
   -.427E-05 -.180E-04 0.285E+04   0.981E-04 -.198E-05 -.285E+04   0.143E-17 0.521E-18 -.138E+01   0.624E-02 0.381E-02 -.310E+00
   -.617E+00 0.952E-01 0.285E+04   0.654E+00 -.973E-01 -.285E+04   -.102E+00 -.991E-02 -.162E+01   0.419E-01 0.124E-01 -.369E+00
   0.226E+00 -.582E+00 0.285E+04   -.243E+00 0.615E+00 -.285E+04   0.598E-01 -.837E-01 -.162E+01   -.297E-01 0.311E-01 -.369E+00
   -.226E+00 -.582E+00 0.285E+04   0.243E+00 0.615E+00 -.285E+04   -.598E-01 -.837E-01 -.162E+01   0.313E-01 0.301E-01 -.369E+00
   0.369E-04 -.125E-04 0.285E+04   0.792E-04 -.643E-04 -.285E+04   0.185E-17 -.131E-17 -.204E+01   -.666E-02 -.344E-02 -.384E+00
   0.480E+01 0.277E+01 0.993E+03   -.439E+01 -.253E+01 -.992E+03   -.405E+00 -.234E+00 -.783E+00   -.632E-02 -.362E-02 0.255E-01
   -.291E-04 0.532E+01 0.999E+03   0.413E-04 -.542E+01 -.999E+03   0.734E-12 0.112E+00 -.408E+00   0.629E-02 -.509E-01 0.279E-01
   -.480E+01 0.277E+01 0.993E+03   0.439E+01 -.253E+01 -.992E+03   0.405E+00 -.234E+00 -.783E+00   0.474E-02 -.255E-02 0.253E-01
   0.461E+01 -.266E+01 0.999E+03   -.470E+01 0.271E+01 -.999E+03   0.968E-01 -.559E-01 -.408E+00   -.410E-01 0.309E-01 0.279E-01
   -.461E+01 -.266E+01 0.999E+03   0.470E+01 0.271E+01 -.999E+03   -.968E-01 -.559E-01 -.408E+00   0.517E-01 0.301E-01 0.271E-01
   0.158E-04 0.572E+00 0.993E+03   -.108E-03 -.647E+00 -.992E+03   0.618E-13 0.941E-02 -.795E+00   -.165E-02 0.472E-01 -.162E-02
   -.731E-05 -.554E+01 0.993E+03   0.206E-04 0.507E+01 -.992E+03   0.307E-11 0.467E+00 -.783E+00   0.121E-03 0.531E-02 0.253E-01
   0.495E+00 -.286E+00 0.993E+03   -.561E+00 0.324E+00 -.992E+03   0.815E-02 -.470E-02 -.795E+00   0.400E-01 -.250E-01 -.162E-02
   -.496E+00 -.286E+00 0.993E+03   0.561E+00 0.324E+00 -.992E+03   -.815E-02 -.470E-02 -.795E+00   -.400E-01 -.231E-01 -.990E-03
   0.400E-04 0.104E+01 -.890E+03   -.128E-03 -.876E+00 0.889E+03   -.358E-12 -.544E-01 0.667E+00   -.411E-03 -.822E-01 0.947E-01
   0.127E+02 0.734E+01 -.856E+03   -.116E+02 -.671E+01 0.857E+03   -.119E+01 -.689E+00 -.114E+01   -.409E-01 -.236E-01 0.585E-01
   -.127E+02 0.734E+01 -.856E+03   0.116E+02 -.671E+01 0.857E+03   0.119E+01 -.689E+00 -.114E+01   0.409E-01 -.232E-01 0.582E-01
   0.481E+01 -.278E+01 -.881E+03   -.497E+01 0.287E+01 0.880E+03   0.232E+00 -.134E+00 0.557E+00   -.316E-01 0.186E-01 0.457E-01
   -.561E-04 -.147E+02 -.856E+03   0.432E-04 0.134E+02 0.857E+03   0.905E-11 0.138E+01 -.114E+01   0.653E-03 0.476E-01 0.582E-01
   -.481E+01 -.278E+01 -.881E+03   0.497E+01 0.287E+01 0.880E+03   -.232E+00 -.134E+00 0.557E+00   0.317E-01 0.184E-01 0.458E-01
   -.900E+00 -.520E+00 -.890E+03   0.758E+00 0.438E+00 0.889E+03   0.472E-01 0.272E-01 0.667E+00   0.717E-01 0.412E-01 0.944E-01
   0.900E+00 -.520E+00 -.890E+03   -.759E+00 0.438E+00 0.889E+03   -.472E-01 0.272E-01 0.667E+00   -.717E-01 0.406E-01 0.947E-01
   0.200E-04 0.555E+01 -.881E+03   0.110E-03 -.574E+01 0.880E+03   0.176E-11 0.268E+00 0.557E+00   -.395E-03 -.367E-01 0.457E-01
   0.538E-04 -.372E-04 -.274E+04   -.116E-03 0.784E-04 0.274E+04   0.318E-17 0.714E-17 0.187E+01   0.413E-04 -.113E-03 0.322E+00
   0.263E+02 0.458E+02 -.272E+04   -.258E+02 -.452E+02 0.272E+04   -.511E+00 -.691E+00 0.206E+01   -.482E-01 -.366E-01 0.321E+00
   -.263E+02 0.458E+02 -.272E+04   0.258E+02 -.452E+02 0.272E+04   0.511E+00 -.691E+00 0.206E+01   0.476E-01 -.350E-01 0.321E+00
   0.528E+02 -.162E+00 -.272E+04   -.520E+02 0.294E+00 0.272E+04   -.854E+00 -.974E-01 0.206E+01   -.556E-01 -.233E-01 0.321E+00
   -.528E+02 -.162E+00 -.272E+04   0.520E+02 0.294E+00 0.272E+04   0.854E+00 -.974E-01 0.206E+01   0.546E-01 -.224E-01 0.321E+00
   0.265E+02 -.456E+02 -.272E+04   -.263E+02 0.449E+02 0.272E+04   -.343E+00 0.788E+00 0.206E+01   -.606E-02 0.593E-01 0.321E+00
   -.265E+02 -.456E+02 -.272E+04   0.263E+02 0.449E+02 0.272E+04   0.343E+00 0.788E+00 0.206E+01   0.752E-02 0.586E-01 0.321E+00
   0.221E-04 -.109E-04 -.274E+04   0.106E-03 -.664E-04 0.274E+04   0.742E-18 0.175E-18 0.200E+01   -.658E-02 -.337E-02 0.388E+00
   -.132E-05 -.113E-04 -.173E+04   0.767E-04 0.950E-05 0.173E+04   0.240E-17 0.282E-17 -.788E+01   0.211E-02 0.128E-02 0.171E+00
   0.755E-06 -.750E-04 -.107E+04   0.189E-04 0.274E-06 0.105E+04   -.732E-18 -.252E-18 0.187E+02   0.119E-02 0.731E-03 0.105E+00
   0.240E-03 -.909E-04 -.175E+04   0.927E-05 0.155E-07 0.176E+04   0.111E-18 0.973E-19 -.491E+01   0.384E-02 0.236E-02 0.557E-01
   0.661E-05 -.141E-04 -.334E+03   0.630E-06 -.270E-08 0.342E+03   0.514E-21 0.146E-20 -.851E+01   0.202E-03 0.124E-03 0.434E-02
 -----------------------------------------------------------------------------------------------
   0.647E-03 -.854E-03 0.713E+01   -.205E-13 0.126E-12 -.421E-11   0.114E-15 -.108E-15 -.747E+01   0.135E-01 0.112E-01 0.419E+00
 
 
 POSITION                                       TOTAL-FORCE (eV/Angst)
 -----------------------------------------------------------------------------------
      0.00000      0.00000      5.28219        -0.000000     -0.000000      0.019293
      2.93046      0.00000      5.28219         0.010933      0.020172      0.053357
      5.86091      0.00000      5.28219        -0.010933      0.020172      0.053357
      1.46523      2.53785      5.28219         0.022936     -0.000617      0.053357
      4.39568      2.53785      5.28219        -0.000000     -0.000000      0.032221
      7.32614      2.53785      5.28219        -0.022936     -0.000617      0.053357
      2.93046      5.07570      5.28219         0.012003     -0.019554      0.053357
      5.86091      5.07570      5.28219        -0.012003     -0.019554      0.053357
      8.79137      5.07570      5.28219        -0.000000     -0.000000      0.047379
      1.46523      0.84595      7.67490         0.000468      0.000270     -0.018058
      4.39568      0.84595      7.67490        -0.000000     -0.046047     -0.085732
      7.32614      0.84595      7.67490        -0.000468      0.000270     -0.018058
      2.93046      3.38380      7.67490        -0.039878      0.023024     -0.085732
      5.86091      3.38380      7.67490         0.039878      0.023024     -0.085732
      8.79137      3.38380      7.67490        -0.000000     -0.019004      0.003554
      4.39568      5.92165      7.67490        -0.000000     -0.000540     -0.018058
      7.32614      5.92165      7.67490        -0.016458      0.009502      0.003554
     10.25659      5.92165      7.67490         0.016458      0.009502      0.003554
      8.79137      1.69450     10.06282         0.000000      0.026734      0.023588
      2.93652      1.69540     10.03056        -0.130083     -0.075103     -0.251310
      5.85484      1.69540     10.03056         0.130083     -0.075103     -0.251310
     10.25378      4.23137     10.05553         0.036557     -0.021106     -0.003844
      4.39568      4.22274     10.03056         0.000000      0.150206     -0.251310
      7.32895      4.23137     10.05553        -0.036557     -0.021106     -0.003844
     11.71957      6.76630     10.06282        -0.023152     -0.013367      0.023588
      5.86316      6.76630     10.06282         0.023152     -0.013367      0.023588
      8.79137      6.76435     10.05553         0.000000      0.042212     -0.003844
      0.00000      0.00000     12.42400        -0.000000     -0.000000      0.000355
      2.95387      0.04433     12.43748        -0.060433     -0.127226     -0.066911
      5.83749      0.04433     12.43748         0.060433     -0.127226     -0.066911
      1.51533      2.53597     12.43748        -0.140398      0.011277     -0.066911
      7.27604      2.53597     12.43748         0.140398      0.011277     -0.066911
      2.95713      5.03325     12.43748        -0.079965      0.115950     -0.066911
      5.83423      5.03325     12.43748         0.079965      0.115950     -0.066911
      8.79137      5.07570     12.42069        -0.000000     -0.000000     -0.007645
      4.39568      2.53785     12.23056        -0.000000     -0.000000      0.998766
      4.39568      2.53785     13.97150        -0.000000     -0.000000     -0.005303
      4.39568      2.53785     15.23611        -0.000000     -0.000000      0.001039
      4.39568      2.53785     16.19729        -0.000000     -0.000000     -0.009377
 -----------------------------------------------------------------------------------
    total drift:                                0.014163      0.010351      0.082009


--------------------------------------------------------------------------------------------------------



  FREE ENERGIE OF THE ION-ELECTRON SYSTEM (eV)
  ---------------------------------------------------
  free  energy   TOTEN  =      -114.70285911 eV

  energy  without entropy=     -114.70285911  energy(sigma->0) =     -114.70285911
 


--------------------------------------------------------------------------------------------------------


    POTLOK:  cpu time    0.0524: real time    0.0524


--------------------------------------------------------------------------------------------------------


 stress matrix after NEB project (eV)
     -6.68621     -0.00000     -0.00000
     -0.00000     -6.68621     -0.00000
     -0.00000     -0.00000      0.73853
  FORCES: max atom, RMS     0.009377    0.001733
  FORCE total and by dimension    0.010823    0.009377
  Stress total and by dimension    9.484524    6.686209
     LOOP+:  cpu time   82.1363: real time   82.1503
 -----------------------------------------------------------------------------
|                                                                             |
|           W    W    AA    RRRRR   N    N  II  N    N   GGGG   !!!           |
|           W    W   A  A   R    R  NN   N  II  NN   N  G    G  !!!           |
|           W    W  A    A  R    R  N N  N  II  N N  N  G       !!!           |
|           W WW W  AAAAAA  RRRRR   N  N N  II  N  N N  G  GGG   !            |
|           WW  WW  A    A  R   R   N   NN  II  N   NN  G    G                |
|           W    W  A    A  R    R  N    N  II  N    N   GGGG   !!!           |
|                                                                             |
|     Tetrahedron method does not include variations of the Fermi             |
|     occupations, so forces and stress will be inaccurate. We suggest        |
|     using a different smearing scheme ISMEAR = 1 or 2 for metals in         |
|     relaxations.                                                            |
|                                                                             |
 -----------------------------------------------------------------------------

    4ORBIT:  cpu time    0.0000: real time    0.0000



 total charge

# of ion       s       p       d       tot
------------------------------------------
    1        0.417   0.202   9.179   9.798
    2        0.419   0.204   9.177   9.799
    3        0.419   0.204   9.177   9.799
    4        0.419   0.204   9.177   9.799
    5        0.420   0.204   9.175   9.800
    6        0.419   0.204   9.177   9.799
    7        0.419   0.204   9.177   9.799
    8        0.419   0.204   9.177   9.799
    9        0.413   0.205   9.178   9.796
   10        0.407   0.268   9.165   9.839
   11        0.409   0.268   9.167   9.845
   12        0.407   0.268   9.165   9.839
   13        0.409   0.268   9.167   9.845
   14        0.409   0.268   9.167   9.845
   15        0.400   0.271   9.165   9.836
   16        0.407   0.268   9.165   9.839
   17        0.400   0.271   9.165   9.836
   18        0.400   0.271   9.165   9.836
   19        0.404   0.266   9.166   9.837
   20        0.432   0.291   9.151   9.874
   21        0.432   0.291   9.151   9.874
   22        0.395   0.277   9.164   9.836
   23        0.432   0.291   9.151   9.874
   24        0.395   0.277   9.164   9.836
   25        0.404   0.266   9.166   9.837
   26        0.404   0.266   9.166   9.837
   27        0.395   0.277   9.164   9.836
   28        0.420   0.196   9.181   9.798
   29        0.410   0.217   9.176   9.802
   30        0.410   0.217   9.176   9.802
   31        0.410   0.217   9.176   9.802
   32        0.410   0.217   9.176   9.802
   33        0.410   0.217   9.176   9.802
   34        0.410   0.217   9.176   9.802
   35        0.415   0.198   9.181   9.795
   36        0.564   0.674   6.873   8.110
   37        0.924   1.454   0.000   2.378
   38        1.527   3.757   0.000   5.284
   39        0.560   0.133   0.000   0.693
--------------------------------------------------
tot         17.972  14.471 327.817 360.261
 
 BZINTS: Fermi energy:    0.534034;  404.000000 electrons
         Band energy:-0.149922E+04;  BLOECHL correction:   -0.051619

 total amount of memory used by VASP MPI-rank0   140362. kBytes
=======================================================================

   base      :      30000. kBytes
   nonlr-proj:      15396. kBytes
   fftplans  :       5150. kBytes
   grid      :      23126. kBytes
   one-center:        606. kBytes
   wavefun   :      66084. kBytes
 
  
  
 General timing and accounting informations for this job:
 ========================================================
  
                  Total CPU time used (sec):       90.590
                            User time (sec):       87.293
                          System time (sec):        3.297
                         Elapsed time (sec):       90.966
  
                   Maximum memory used (kb):      413592.
                   Average memory used (kb):          N/A
  
                          Minor page faults:        68608
                          Major page faults:            0
                 Voluntary context switches:         4735
