PROCAR new format
# of k-points:   10         # of bands:  252         # of ions:   39

 k-point     1 :    0.00000000 0.00000000 0.00000000     weight = 0.01562500

band     1 # energy  -24.04397464 # occ.  2.00000000
 
ion      s      p      d    tot
    1  0.000  0.000  0.000  0.000
    2  0.000  0.000  0.000  0.000
    3  0.000  0.000  0.000  0.000
    4  0.000  0.000  0.000  0.000
    5  0.000  0.000  0.000  0.000
    6  0.000  0.000  0.000  0.000
    7  0.000  0.000  0.000  0.000
    8  0.000  0.000  0.000  0.000
    9  0.000  0.000  0.000  0.000
   10  0.000  0.000  0.000  0.000
   11  0.000  0.000  0.000  0.000
   12  0.000  0.000  0.000  0.000
   13  0.000  0.000  0.000  0.000
   14  0.000  0.000  0.000  0.000
   15  0.000  0.000  0.000  0.000
   16  0.000  0.000  0.000  0.000
   17  0.000  0.000  0.000  0.000
   18  0.000  0.000  0.000  0.000
   19  0.000  0.000  0.000  0.000
   20  0.000  0.000  0.000  0.000
   21  0.000  0.000  0.000  0.000
   22  0.000  0.000  0.000  0.000
   23  0.000  0.000  0.000  0.000
   24  0.000  0.000  0.000  0.000
   25  0.000  0.000  0.000  0.000
   26  0.000  0.000  0.000  0.000
   27  0.000  0.000  0.000  0.000
   28  0.000  0.000  0.000  0.000
   29  0.000  0.000  0.000  0.000
   30  0.000  0.000  0.000  0.000
   31  0.000  0.000  0.000  0.000
   32  0.000  0.000  0.000  0.000
   33  0.000  0.000  0.000  0.000
   34  0.000  0.000  0.000  0.000
   35  0.000  0.000  0.000  0.000
   36  0.000  0.000  0.000  0.001
   37  0.077  0.057  0.000  0.134
   38  0.724  0.007  0.000  0.731
   39  0.061  0.013  0.000  0.074
tot    0.863  0.077  0.000  0.940
 
band     2 # energy  -14.74262634 # occ.  2.00000000
 
ion      s      p      d    tot
    1  0.000  0.000  0.000  0.000
    2  0.000  0.000  0.000  0.000
    3  0.000  0.000  0.000  0.000
    4  0.000  0.000  0.000  0.000
    5  0.000  0.000  0.000  0.000
    6  0.000  0.000  0.000  0.000
    7  0.000  0.000  0.000  0.000
    8  0.000  0.000  0.000  0.000
    9  0.000  0.000  0.000  0.000
   10  0.000  0.000  0.000  0.000
   11  0.000  0.000  0.000  0.000
   12  0.000  0.000  0.000  0.000
   13  0.000  0.000  0.000  0.000
   14  0.000  0.000  0.000  0.000
   15  0.000  0.000  0.000  0.000
   16  0.000  0.000  0.000  0.000
   17  0.000  0.000  0.000  0.000
   18  0.000  0.000  0.000  0.000
   19  0.000  0.000  0.000  0.000
   20  0.000  0.000  0.000  0.000
   21  0.000  0.000  0.000  0.000
   22  0.000  0.000  0.000  0.000
   23  0.000  0.000  0.000  0.000
   24  0.000  0.000  0.000  0.000
   25  0.000  0.000  0.000  0.000
   26  0.000  0.000  0.000  0.000
   27  0.000  0.000  0.000  0.000
   28  0.000  0.000  0.000  0.000
   29  0.000  0.000  0.000  0.000
   30  0.000  0.000  0.000  0.000
   31  0.000  0.000  0.000  0.000
   32  0.000  0.000  0.000  0.000
   33  0.000  0.000  0.000  0.000
   34  0.000  0.000  0.000  0.000
   35  0.000  0.000  0.000  0.000
   36  0.003  0.003  0.005  0.012
   37  0.160  0.049  0.000  0.209
   38  0.018  0.520  0.000  0.538
   39  0.200  0.032  0.000  0.232
tot    0.381  0.605  0.005  0.991
 
band     3 # energy   -7.76505784 # occ.  2.00000000
 
ion      s      p      d    tot
    1  0.000  0.000  0.000  0.000
    2  0.000  0.000  0.000  0.000
    3  0.000  0.000  0.000  0.000
    4  0.000  0.000  0.000  0.000
    5  0.000  0.000  0.000  0.000
    6  0.000  0.000  0.000  0.000
    7  0.000  0.000  0.000  0.000
    8  0.000  0.000  0.000  0.000
    9  0.000  0.000  0.000  0.000
   10  0.000  0.000  0.000  0.000
   11  0.000  0.000  0.000  0.000
   12  0.000  0.000  0.000  0.000
   13  0.000  0.000  0.000  0.000
   14  0.000  0.000  0.000  0.000
   15  0.000  0.000  0.000  0.000
   16  0.000  0.000  0.000  0.000
   17  0.000  0.000  0.000  0.000
   18  0.000  0.000  0.000  0.000
   19  0.000  0.000  0.000  0.001
   20  0.003  0.001  0.005  0.009
   21  0.003  0.001  0.005  0.009
   22  0.000  0.000  0.000  0.000
   23  0.003  0.001  0.005  0.009
   24  0.000  0.000  0.000  0.000
   25  0.000  0.000  0.000  0.001
   26  0.000  0.000  0.000  0.001
   27  0.000  0.000  0.000  0.000
   28  0.000  0.000  0.000  0.000
   29  0.001  0.000  0.001  0.002
   30  0.001  0.000  0.001  0.002
   31  0.001  0.000  0.001  0.002
   32  0.001  0.000  0.001  0.002
   33  0.001  0.000  0.001  0.002
   34  0.001  0.000  0.001  0.002
   35  0.000  0.000  0.000  0.000
   36  0.142  0.072  0.324  0.539
   37  0.191  0.180  0.000  0.370
   38  0.012  0.050  0.000  0.062
   39  0.014  0.001  0.000  0.015
tot    0.381  0.307  0.344  1.031
 
band     4 # energy   -6.86851578 # occ.  2.00000000
 
ion      s      p      d    tot
    1  0.000  0.000  0.000  0.000
    2  0.000  0.000  0.000  0.000
    3  0.000  0.000  0.000  0.000
    4  0.000  0.000  0.000  0.000
    5  0.000  0.000  0.000  0.000
    6  0.000  0.000  0.000  0.000
    7  0.000  0.000  0.000  0.000
    8  0.000  0.000  0.000  0.000
    9  0.000  0.000  0.000  0.000
   10  0.000  0.000  0.000  0.000
   11  0.000  0.000  0.000  0.000
   12  0.000  0.000  0.000  0.000
   13  0.000  0.000  0.000  0.000
   14  0.000  0.000  0.000  0.000
   15  0.000  0.000  0.000  0.000
   16  0.000  0.000  0.000  0.000
   17  0.000  0.000  0.000  0.000
   18  0.000  0.000  0.000  0.000
   19  0.000  0.000  0.000  0.000
   20  0.000  0.000  0.000  0.000
   21  0.000  0.000  0.000  0.000
   22  0.000  0.000  0.000  0.000
   23  0.000  0.000  0.000  0.000
   24  0.000  0.000  0.000  0.000
   25  0.000  0.000  0.000  0.000
   26  0.000  0.000  0.000  0.000
   27  0.000  0.000  0.000  0.000
   28  0.000  0.000  0.000  0.000
   29  0.000  0.000  0.001  0.001
   30  0.000  0.000  0.000  0.000
   31  0.000  0.000  0.001  0.001
   32  0.000  0.000  0.001  0.001
   33  0.000  0.000  0.000  0.000
   34  0.000  0.000  0.001  0.001
   35  0.000  0.000  0.000  0.000
   36  0.000  0.003  0.027  0.030
   37  0.000  0.118  0.000  0.118
   38  0.000  0.523  0.000  0.523
   39  0.000  0.007  0.000  0.007
tot    0.001  0.652  0.032  0.685
 
band     5 # energy   -6.86832748 # occ.  2.00000000
 
ion      s      p      d    tot
    1  0.000  0.000  0.000  0.000
    2  0.000  0.000  0.000  0.000
    3  0.000  0.000  0.000  0.000
    4  0.000  0.000  0.000  0.000
    5  0.000  0.000  0.000  0.000
    6  0.000  0.000  0.000  0.000
    7  0.000  0.000  0.000  0.000
    8  0.000  0.000  0.000  0.000
    9  0.000  0.000  0.000  0.000
   10  0.000  0.000  0.000  0.000
   11  0.000  0.000  0.000  0.000
   12  0.000  0.000  0.000  0.000
   13  0.000  0.000  0.000  0.000
   14  0.000  0.000  0.000  0.000
   15  0.000  0.000  0.000  0.000
   16  0.000  0.000  0.000  0.000
   17  0.000  0.000  0.000  0.000
   18  0.000  0.000  0.000  0.000
   19  0.000  0.000  0.000  0.000
   20  0.000  0.000  0.000  0.000
   21  0.000  0.000  0.000  0.000
   22  0.000  0.000  0.000  0.000
   23  0.000  0.000  0.000  0.000
   24  0.000  0.000  0.000  0.000
   25  0.000  0.000  0.000  0.000
   26  0.000  0.000  0.000  0.000
   27  0.000  0.000  0.000  0.000
   28  0.000  0.000  0.000  0.000
   29  0.000  0.000  0.000  0.001
   30  0.000  0.000  0.001  0.002
   31  0.000  0.000  0.000  0.001
   32  0.000  0.000  0.000  0.001
   33  0.000  0.000  0.001  0.002
   34  0.000  0.000  0.000  0.001
   35  0.000  0.000  0.000  0.000
   36  0.000  0.003  0.027  0.030
   37  0.000  0.118  0.000  0.118
   38  0.000  0.523  0.000  0.523
   39  0.000  0.007  0.000  0.007
tot    0.001  0.652  0.032  0.685
 
band     6 # energy   -6.54484380 # occ.  2.00000000
 
ion      s      p      d    tot
    1  0.007  0.001  0.000  0.007
    2  0.007  0.001  0.000  0.007
    3  0.007  0.001  0.000  0.007
    4  0.007  0.001  0.000  0.007
    5  0.007  0.001  0.000  0.007
    6  0.007  0.001  0.000  0.007
    7  0.007  0.001  0.000  0.007
    8  0.007  0.001  0.000  0.007
    9  0.007  0.001  0.000  0.007
   10  0.025  0.000  0.001  0.025
   11  0.025  0.000  0.000  0.026
   12  0.025  0.000  0.001  0.025
   13  0.025  0.000  0.000  0.026
   14  0.025  0.000  0.000  0.026
   15  0.025  0.000  0.000  0.025
   16  0.025  0.000  0.001  0.025
   17  0.025  0.000  0.000  0.025
   18  0.025  0.000  0.000  0.025
   19  0.021  0.000  0.000  0.022
   20  0.020  0.000  0.001  0.021
   21  0.020  0.000  0.001  0.021
   22  0.022  0.000  0.000  0.022
   23  0.020  0.000  0.001  0.021
   24  0.022  0.000  0.000  0.022
   25  0.021  0.000  0.000  0.022
   26  0.021  0.000  0.000  0.022
   27  0.022  0.000  0.000  0.022
   28  0.005  0.001  0.000  0.005
   29  0.004  0.001  0.000  0.005
   30  0.004  0.001  0.000  0.005
   31  0.004  0.001  0.000  0.005
   32  0.004  0.001  0.000  0.005
   33  0.004  0.001  0.000  0.005
   34  0.004  0.001  0.000  0.005
   35  0.005  0.001  0.000  0.005
   36  0.000  0.006  0.010  0.016
   37  0.005  0.004  0.000  0.009
   38  0.000  0.001  0.000  0.001
   39  0.000  0.000  0.000  0.000
tot    0.514  0.024  0.019  0.557
 
band     7 # energy   -5.68361933 # occ.  2.00000000
 
ion      s      p      d    tot
    1  0.008  0.000  0.000  0.008
    2  0.007  0.000  0.000  0.007
    3  0.007  0.000  0.000  0.007
    4  0.007  0.000  0.000  0.007
    5  0.006  0.000  0.000  0.007
    6  0.007  0.000  0.000  0.007
    7  0.007  0.000  0.000  0.007
    8  0.007  0.000  0.000  0.007
    9  0.006  0.000  0.000  0.007
   10  0.011  0.001  0.015  0.027
   11  0.009  0.001  0.017  0.027
   12  0.011  0.001  0.015  0.027
   13  0.009  0.001  0.017  0.027
   14  0.009  0.001  0.017  0.027
   15  0.008  0.001  0.016  0.025
   16  0.011  0.001  0.015  0.027
   17  0.008  0.001  0.016  0.025
   18  0.008  0.001  0.016  0.025
   19  0.014  0.001  0.019  0.034
   20  0.012  0.001  0.023  0.035
   21  0.012  0.001  0.023  0.035
   22  0.015  0.001  0.018  0.034
   23  0.012  0.001  0.023  0.035
   24  0.015  0.001  0.018  0.034
   25  0.014  0.001  0.019  0.034
   26  0.014  0.001  0.019  0.034
   27  0.015  0.001  0.018  0.034
   28  0.007  0.001  0.000  0.007
   29  0.005  0.000  0.000  0.006
   30  0.005  0.000  0.000  0.006
   31  0.005  0.000  0.000  0.006
   32  0.005  0.000  0.000  0.006
   33  0.005  0.000  0.000  0.006
   34  0.005  0.000  0.000  0.006
   35  0.007  0.001  0.000  0.007
   36  0.001  0.003  0.004  0.008
   37  0.002  0.001  0.000  0.003
   38  0.000  0.000  0.000  0.000
   39  0.000  0.000  0.000  0.000
tot    0.317  0.027  0.331  0.674
 
band     8 # energy   -5.42309861 # occ.  2.00000000
 
ion      s      p      d    tot
    1  0.019  0.000  0.028  0.047
    2  0.017  0.000  0.026  0.043
    3  0.017  0.000  0.026  0.043
    4  0.017  0.000  0.026  0.043
    5  0.015  0.000  0.025  0.040
    6  0.016  0.000  0.026  0.043
    7  0.017  0.000  0.026  0.043
    8  0.016  0.000  0.026  0.043
    9  0.016  0.000  0.026  0.043
   10  0.000  0.000  0.025  0.026
   11  0.001  0.001  0.019  0.021
   12  0.000  0.000  0.025  0.026
   13  0.001  0.001  0.019  0.021
   14  0.001  0.001  0.019  0.020
   15  0.001  0.001  0.019  0.020
   16  0.000  0.000  0.025  0.026
   17  0.001  0.001  0.019  0.020
   18  0.001  0.001  0.019  0.020
   19  0.000  0.000  0.007  0.007
   20  0.000  0.000  0.010  0.011
   21  0.000  0.000  0.010  0.011
   22  0.000  0.000  0.007  0.008
   23  0.000  0.000  0.010  0.011
   24  0.000  0.000  0.007  0.008
   25  0.000  0.000  0.007  0.007
   26  0.000  0.000  0.007  0.007
   27  0.000  0.000  0.007  0.008
   28  0.006  0.000  0.005  0.011
   29  0.005  0.000  0.005  0.011
   30  0.005  0.000  0.005  0.011
   31  0.005  0.000  0.005  0.011
   32  0.005  0.000  0.005  0.011
   33  0.005  0.000  0.005  0.011
   34  0.005  0.000  0.005  0.011
   35  0.007  0.000  0.005  0.012
   36  0.003  0.000  0.006  0.009
   37  0.000  0.000  0.000  0.000
   38  0.000  0.000  0.000  0.000
   39  0.000  0.000  0.000  0.000
tot    0.202  0.007  0.549  0.758
 
band     9 # energy   -5.30133295 # occ.  2.00000000
 
ion      s      p      d    tot
    1  0.000  0.000  0.007  0.008
    2  0.000  0.000  0.005  0.006
    3  0.000  0.000  0.005  0.006
    4  0.000  0.000  0.005  0.006
    5  0.000  0.000  0.002  0.002
    6  0.000  0.000  0.005  0.006
    7  0.000  0.000  0.005  0.006
    8  0.000  0.000  0.005  0.006
    9  0.005  0.001  0.003  0.008
   10  0.000  0.000  0.052  0.052
   11  0.010  0.001  0.011  0.022
   12  0.000  0.000  0.051  0.052
   13  0.010  0.001  0.011  0.022
   14  0.009  0.001  0.011  0.022
   15  0.010  0.000  0.049  0.060
   16  0.000  0.000  0.051  0.052
   17  0.010  0.000  0.049  0.060
   18  0.010  0.000  0.050  0.061
   19  0.000  0.000  0.040  0.040
   20  0.012  0.001  0.036  0.048
   21  0.011  0.001  0.036  0.048
   22  0.005  0.001  0.009  0.015
   23  0.011  0.001  0.036  0.048
   24  0.005  0.001  0.009  0.015
   25  0.000  0.000  0.039  0.040
   26  0.000  0.000  0.040  0.040
   27  0.005  0.001  0.009  0.015
   28  0.003  0.000  0.000  0.003
   29  0.000  0.000  0.005  0.005
   30  0.000  0.000  0.005  0.005
   31  0.000  0.000  0.005  0.005
   32  0.000  0.000  0.005  0.005
   33  0.000  0.000  0.005  0.005
   34  0.000  0.000  0.005  0.005
   35  0.001  0.000  0.000  0.001
   36  0.000  0.003  0.000  0.003
   37  0.001  0.001  0.000  0.001
   38  0.000  0.000  0.000  0.000
   39  0.000  0.000  0.000  0.000
tot    0.122  0.020  0.663  0.805
 
band    10 # energy   -5.29979154 # occ.  2.00000000
 
ion      s      p      d    tot
    1  0.000  0.000  0.011  0.011
    2  0.001  0.000  0.005  0.006
    3  0.002  0.001  0.004  0.007
    4  0.001  0.000  0.005  0.006
    5  0.000  0.000  0.005  0.006
    6  0.000  0.000  0.003  0.003
    7  0.002  0.001  0.005  0.007
    8  0.000  0.000  0.003  0.003
    9  0.000  0.000  0.001  0.001
   10  0.000  0.000  0.078  0.079
   11  0.013  0.001  0.029  0.042
   12  0.018  0.001  0.023  0.042
   13  0.013  0.001  0.029  0.042
   14  0.000  0.002  0.017  0.019
   15  0.001  0.000  0.026  0.027
   16  0.018  0.001  0.024  0.043
   17  0.001  0.000  0.026  0.027
   18  0.000  0.001  0.043  0.044
   19  0.007  0.001  0.026  0.033
   20  0.000  0.001  0.068  0.069
   21  0.020  0.001  0.024  0.045
   22  0.003  0.000  0.024  0.028
   23  0.020  0.001  0.024  0.045
   24  0.000  0.000  0.056  0.056
   25  0.000  0.002  0.011  0.012
   26  0.007  0.001  0.026  0.033
   27  0.003  0.000  0.024  0.028
   28  0.000  0.000  0.002  0.002
   29  0.000  0.000  0.003  0.004
   30  0.000  0.000  0.002  0.003
   31  0.000  0.000  0.003  0.004
   32  0.001  0.001  0.005  0.007
   33  0.000  0.000  0.002  0.003
   34  0.001  0.001  0.005  0.007
   35  0.000  0.000  0.002  0.002
   36  0.000  0.001  0.004  0.005
   37  0.000  0.000  0.000  0.000
   38  0.000  0.001  0.000  0.001
   39  0.000  0.000  0.000  0.000
tot    0.134  0.019  0.646  0.799
 
band    11 # energy   -5.29978694 # occ.  2.00000000
 
ion      s      p      d    tot
    1  0.000  0.000  0.011  0.011
    2  0.001  0.000  0.003  0.004
    3  0.000  0.000  0.003  0.004
    4  0.001  0.000  0.003  0.004
    5  0.000  0.000  0.005  0.006
    6  0.002  0.001  0.005  0.008
    7  0.000  0.000  0.003  0.004
    8  0.002  0.001  0.005  0.008
    9  0.000  0.000  0.001  0.001
   10  0.024  0.001  0.005  0.030
   11  0.004  0.001  0.021  0.027
   12  0.006  0.000  0.060  0.067
   13  0.004  0.001  0.021  0.027
   14  0.018  0.000  0.032  0.050
   15  0.000  0.001  0.038  0.038
   16  0.006  0.000  0.060  0.066
   17  0.000  0.001  0.038  0.038
   18  0.001  0.000  0.019  0.020
   19  0.002  0.001  0.016  0.019
   20  0.027  0.001  0.010  0.037
   21  0.007  0.001  0.053  0.061
   22  0.001  0.000  0.046  0.047
   23  0.007  0.001  0.053  0.061
   24  0.004  0.001  0.014  0.018
   25  0.009  0.000  0.031  0.040
   26  0.002  0.001  0.015  0.019
   27  0.001  0.000  0.045  0.047
   28  0.000  0.000  0.002  0.002
   29  0.001  0.000  0.003  0.005
   30  0.001  0.000  0.004  0.006
   31  0.001  0.000  0.003  0.005
   32  0.000  0.000  0.002  0.002
   33  0.001  0.000  0.004  0.006
   34  0.000  0.000  0.002  0.002
   35  0.000  0.000  0.002  0.002
   36  0.000  0.001  0.004  0.005
   37  0.000  0.000  0.000  0.000
   38  0.000  0.001  0.000  0.001
   39  0.000  0.000  0.000  0.000
tot    0.134  0.019  0.646  0.799
 
band    12 # energy   -5.29598668 # occ.  2.00000000
 
ion      s      p      d    tot
    1  0.000  0.000  0.001  0.001
    2  0.000  0.000  0.004  0.004
    3  0.001  0.001  0.006  0.007
    4  0.000  0.000  0.004  0.005
    5  0.000  0.000  0.005  0.005
    6  0.000  0.000  0.003  0.003
    7  0.001  0.001  0.006  0.007
    8  0.000  0.000  0.003  0.003
    9  0.000  0.000  0.007  0.007
   10  0.001  0.000  0.036  0.037
   11  0.004  0.000  0.077  0.081
   12  0.000  0.001  0.033  0.035
   13  0.003  0.000  0.079  0.082
   14  0.014  0.001  0.008  0.023
   15  0.006  0.001  0.031  0.038
   16  0.000  0.001  0.033  0.035
   17  0.006  0.001  0.031  0.038
   18  0.024  0.001  0.026  0.050
   19  0.004  0.000  0.043  0.047
   20  0.000  0.000  0.029  0.030
   21  0.000  0.001  0.042  0.043
   22  0.003  0.001  0.019  0.024
   23  0.000  0.001  0.042  0.042
   24  0.014  0.001  0.025  0.039
   25  0.014  0.001  0.009  0.024
   26  0.003  0.000  0.044  0.047
   27  0.004  0.001  0.019  0.024
   28  0.000  0.000  0.005  0.005
   29  0.000  0.000  0.002  0.003
   30  0.000  0.000  0.002  0.002
   31  0.000  0.000  0.002  0.003
   32  0.001  0.000  0.003  0.004
   33  0.000  0.000  0.002  0.002
   34  0.001  0.000  0.003  0.004
   35  0.000  0.000  0.005  0.005
   36  0.000  0.000  0.001  0.001
   37  0.000  0.000  0.000  0.000
   38  0.000  0.000  0.000  0.000
   39  0.000  0.000  0.000  0.000
tot    0.107  0.015  0.690  0.812
 
band    13 # energy   -5.29598058 # occ.  2.00000000
 
ion      s      p      d    tot
    1  0.000  0.000  0.001  0.001
    2  0.001  0.000  0.004  0.005
    3  0.000  0.000  0.002  0.003
    4  0.001  0.000  0.004  0.005
    5  0.000  0.000  0.005  0.005
    6  0.001  0.000  0.005  0.007
    7  0.000  0.000  0.002  0.003
    8  0.001  0.000  0.005  0.007
    9  0.000  0.000  0.007  0.007
   10  0.000  0.001  0.032  0.034
   11  0.011  0.000  0.032  0.043
   12  0.001  0.000  0.035  0.036
   13  0.011  0.000  0.030  0.041
   14  0.000  0.000  0.101  0.101
   15  0.018  0.001  0.028  0.046
   16  0.001  0.001  0.035  0.036
   17  0.018  0.001  0.027  0.046
   18  0.000  0.001  0.033  0.034
   19  0.011  0.001  0.021  0.032
   20  0.000  0.001  0.047  0.048
   21  0.000  0.000  0.033  0.034
   22  0.010  0.001  0.023  0.034
   23  0.000  0.000  0.034  0.034
   24  0.000  0.001  0.018  0.019
   25  0.000  0.000  0.055  0.055
   26  0.011  0.001  0.020  0.031
   27  0.010  0.001  0.023  0.034
   28  0.000  0.000  0.005  0.005
   29  0.000  0.000  0.003  0.004
   30  0.001  0.000  0.003  0.004
   31  0.000  0.000  0.003  0.004
   32  0.000  0.000  0.002  0.002
   33  0.001  0.000  0.003  0.004
   34  0.000  0.000  0.002  0.002
   35  0.000  0.000  0.005  0.005
   36  0.000  0.000  0.001  0.001
   37  0.000  0.000  0.000  0.000
   38  0.000  0.000  0.000  0.000
   39  0.000  0.000  0.000  0.000
tot    0.107  0.015  0.690  0.812
 
band    14 # energy   -5.29419039 # occ.  2.00000000
 
ion      s      p      d    tot
    1  0.001  0.001  0.006  0.008
    2  0.000  0.000  0.005  0.005
    3  0.000  0.000  0.005  0.005
    4  0.000  0.000  0.005  0.005
    5  0.005  0.001  0.003  0.009
    6  0.000  0.000  0.005  0.006
    7  0.000  0.000  0.005  0.006
    8  0.000  0.000  0.005  0.006
    9  0.000  0.000  0.002  0.002
   10  0.013  0.001  0.015  0.029
   11  0.006  0.000  0.061  0.066
   12  0.013  0.001  0.014  0.029
   13  0.006  0.000  0.061  0.066
   14  0.006  0.000  0.060  0.066
   15  0.001  0.001  0.025  0.026
   16  0.013  0.001  0.014  0.029
   17  0.001  0.001  0.025  0.026
   18  0.001  0.001  0.024  0.026
   19  0.013  0.001  0.014  0.028
   20  0.001  0.001  0.026  0.027
   21  0.001  0.001  0.026  0.027
   22  0.004  0.000  0.058  0.062
   23  0.001  0.001  0.026  0.027
   24  0.004  0.000  0.057  0.061
   25  0.014  0.001  0.013  0.028
   26  0.013  0.001  0.014  0.028
   27  0.004  0.000  0.058  0.062
   28  0.001  0.001  0.005  0.007
   29  0.000  0.000  0.003  0.003
   30  0.000  0.000  0.003  0.003
   31  0.000  0.000  0.003  0.003
   32  0.000  0.000  0.003  0.003
   33  0.000  0.000  0.003  0.003
   34  0.000  0.000  0.003  0.003
   35  0.004  0.001  0.004  0.009
   36  0.000  0.001  0.000  0.001
   37  0.000  0.000  0.000  0.001
   38  0.000  0.000  0.000  0.000
   39  0.000  0.000  0.000  0.000
tot    0.128  0.018  0.657  0.802
 
band    15 # energy   -5.27272369 # occ.  2.00000000
 
ion      s      p      d    tot
    1  0.000  0.000  0.010  0.011
    2  0.000  0.000  0.009  0.009
    3  0.000  0.000  0.009  0.009
    4  0.000  0.000  0.009  0.009
    5  0.003  0.000  0.004  0.007
    6  0.000  0.000  0.009  0.009
    7  0.000  0.000  0.009  0.009
    8  0.000  0.000  0.009  0.009
    9  0.005  0.001  0.001  0.006
   10  0.002  0.000  0.047  0.048
   11  0.001  0.000  0.051  0.051
   12  0.002  0.000  0.047  0.048
   13  0.001  0.000  0.051  0.051
   14  0.001  0.000  0.051  0.051
   15  0.004  0.000  0.009  0.014
   16  0.002  0.000  0.047  0.048
   17  0.004  0.000  0.009  0.014
   18  0.004  0.000  0.009  0.014
   19  0.003  0.000  0.010  0.013
   20  0.000  0.000  0.062  0.062
   21  0.000  0.000  0.062  0.062
   22  0.004  0.000  0.038  0.042
   23  0.000  0.000  0.062  0.062
   24  0.004  0.000  0.038  0.042
   25  0.003  0.000  0.010  0.013
   26  0.003  0.000  0.010  0.013
   27  0.004  0.000  0.038  0.042
   28  0.006  0.001  0.000  0.007
   29  0.000  0.000  0.008  0.008
   30  0.000  0.000  0.008  0.008
   31  0.000  0.000  0.008  0.008
   32  0.000  0.000  0.008  0.008
   33  0.000  0.000  0.008  0.008
   34  0.000  0.000  0.008  0.008
   35  0.000  0.001  0.011  0.012
   36  0.002  0.000  0.001  0.003
   37  0.000  0.000  0.000  0.000
   38  0.000  0.000  0.000  0.000
   39  0.000  0.000  0.000  0.000
tot    0.059  0.007  0.779  0.845
 
band    16 # energy   -5.25861992 # occ.  2.00000000
 
ion      s      p      d    tot
    1  0.000  0.000  0.018  0.018
    2  0.003  0.000  0.006  0.010
    3  0.000  0.000  0.011  0.011
    4  0.003  0.000  0.006  0.010
    5  0.000  0.000  0.010  0.010
    6  0.002  0.001  0.007  0.010
    7  0.000  0.000  0.011  0.011
    8  0.002  0.001  0.007  0.010
    9  0.000  0.000  0.006  0.006
   10  0.000  0.000  0.055  0.055
   11  0.000  0.000  0.036  0.036
   12  0.006  0.000  0.036  0.042
   13  0.000  0.000  0.036  0.036
   14  0.000  0.000  0.019  0.020
   15  0.008  0.000  0.026  0.035
   16  0.006  0.000  0.036  0.042
   17  0.008  0.000  0.026  0.035
   18  0.000  0.000  0.086  0.086
   19  0.002  0.000  0.030  0.032
   20  0.000  0.000  0.069  0.069
   21  0.006  0.000  0.022  0.028
   22  0.001  0.000  0.026  0.028
   23  0.006  0.000  0.022  0.028
   24  0.000  0.000  0.025  0.025
   25  0.000  0.000  0.028  0.028
   26  0.002  0.000  0.030  0.032
   27  0.001  0.000  0.026  0.028
   28  0.000  0.000  0.011  0.011
   29  0.000  0.000  0.006  0.006
   30  0.003  0.000  0.004  0.007
   31  0.000  0.000  0.006  0.006
   32  0.001  0.000  0.005  0.007
   33  0.003  0.000  0.004  0.007
   34  0.001  0.000  0.005  0.007
   35  0.000  0.000  0.005  0.005
   36  0.000  0.001  0.002  0.003
   37  0.000  0.000  0.000  0.000
   38  0.000  0.000  0.000  0.000
   39  0.000  0.000  0.000  0.000
tot    0.065  0.008  0.767  0.840
 
band    17 # energy   -5.25859358 # occ.  2.00000000
 
ion      s      p      d    tot
    1  0.000  0.000  0.018  0.018
    2  0.001  0.000  0.010  0.011
    3  0.003  0.001  0.006  0.010
    4  0.001  0.000  0.010  0.011
    5  0.000  0.000  0.010  0.010
    6  0.001  0.000  0.009  0.010
    7  0.003  0.001  0.006  0.010
    8  0.001  0.000  0.009  0.010
    9  0.000  0.000  0.006  0.006
   10  0.008  0.000  0.030  0.038
   11  0.000  0.000  0.025  0.025
   12  0.002  0.000  0.049  0.051
   13  0.000  0.000  0.025  0.025
   14  0.000  0.000  0.042  0.042
   15  0.003  0.000  0.066  0.069
   16  0.002  0.000  0.049  0.051
   17  0.003  0.000  0.066  0.069
   18  0.011  0.000  0.007  0.018
   19  0.001  0.000  0.029  0.030
   20  0.008  0.000  0.006  0.014
   21  0.002  0.000  0.054  0.056
   22  0.000  0.000  0.026  0.026
   23  0.002  0.000  0.054  0.056
   24  0.002  0.000  0.027  0.029
   25  0.002  0.000  0.031  0.033
   26  0.001  0.000  0.029  0.030
   27  0.000  0.000  0.026  0.026
   28  0.000  0.000  0.011  0.011
   29  0.002  0.001  0.004  0.007
   30  0.000  0.000  0.006  0.006
   31  0.002  0.001  0.004  0.007
   32  0.002  0.000  0.004  0.006
   33  0.000  0.000  0.006  0.006
   34  0.002  0.000  0.004  0.006
   35  0.000  0.000  0.005  0.005
   36  0.000  0.001  0.002  0.003
   37  0.000  0.000  0.000  0.000
   38  0.000  0.000  0.000  0.000
   39  0.000  0.000  0.000  0.000
tot    0.065  0.008  0.767  0.840
 
band    18 # energy   -5.25060741 # occ.  2.00000000
 
ion      s      p      d    tot
    1  0.001  0.000  0.001  0.002
    2  0.001  0.000  0.012  0.013
    3  0.001  0.000  0.012  0.013
    4  0.001  0.000  0.012  0.013
    5  0.005  0.000  0.000  0.005
    6  0.001  0.000  0.012  0.013
    7  0.001  0.000  0.012  0.013
    8  0.001  0.000  0.012  0.013
    9  0.004  0.000  0.020  0.024
   10  0.003  0.000  0.023  0.026
   11  0.001  0.000  0.007  0.008
   12  0.003  0.000  0.023  0.026
   13  0.001  0.000  0.007  0.008
   14  0.001  0.000  0.007  0.009
   15  0.001  0.000  0.055  0.056
   16  0.003  0.000  0.023  0.026
   17  0.001  0.000  0.055  0.056
   18  0.001  0.000  0.055  0.056
   19  0.000  0.000  0.043  0.044
   20  0.006  0.000  0.022  0.029
   21  0.006  0.000  0.022  0.029
   22  0.000  0.000  0.034  0.035
   23  0.006  0.000  0.022  0.029
   24  0.000  0.000  0.034  0.035
   25  0.000  0.000  0.043  0.044
   26  0.000  0.000  0.043  0.044
   27  0.000  0.000  0.034  0.035
   28  0.003  0.000  0.000  0.003
   29  0.003  0.000  0.011  0.015
   30  0.003  0.000  0.011  0.015
   31  0.003  0.000  0.011  0.015
   32  0.003  0.000  0.011  0.015
   33  0.003  0.000  0.011  0.015
   34  0.003  0.000  0.011  0.015
   35  0.011  0.000  0.013  0.024
   36  0.000  0.003  0.003  0.006
   37  0.000  0.000  0.000  0.001
   38  0.000  0.000  0.000  0.000
   39  0.000  0.000  0.000  0.000
tot    0.086  0.010  0.733  0.829
 
band    19 # energy   -5.24325496 # occ.  2.00000000
 
ion      s      p      d    tot
    1  0.000  0.000  0.005  0.006
    2  0.003  0.000  0.007  0.010
    3  0.000  0.000  0.009  0.010
    4  0.003  0.000  0.007  0.010
    5  0.000  0.000  0.010  0.010
    6  0.002  0.000  0.007  0.009
    7  0.000  0.000  0.009  0.010
    8  0.002  0.000  0.007  0.009
    9  0.000  0.000  0.021  0.021
   10  0.003  0.000  0.023  0.027
   11  0.001  0.000  0.043  0.045
   12  0.001  0.000  0.025  0.026
   13  0.001  0.000  0.042  0.044
   14  0.005  0.000  0.010  0.015
   15  0.000  0.000  0.029  0.029
   16  0.001  0.000  0.025  0.026
   17  0.000  0.000  0.030  0.030
   18  0.000  0.000  0.040  0.041
   19  0.002  0.000  0.067  0.069
   20  0.001  0.000  0.048  0.049
   21  0.000  0.000  0.020  0.020
   22  0.004  0.000  0.063  0.067
   23  0.000  0.000  0.019  0.019
   24  0.014  0.000  0.020  0.034
   25  0.008  0.000  0.009  0.016
   26  0.002  0.000  0.065  0.067
   27  0.003  0.000  0.064  0.068
   28  0.000  0.000  0.004  0.004
   29  0.000  0.000  0.007  0.007
   30  0.002  0.000  0.002  0.004
   31  0.000  0.000  0.007  0.007
   32  0.001  0.001  0.007  0.009
   33  0.002  0.000  0.002  0.004
   34  0.001  0.001  0.007  0.009
   35  0.000  0.000  0.009  0.010
   36  0.000  0.000  0.002  0.002
   37  0.000  0.000  0.000  0.000
   38  0.000  0.000  0.000  0.000
   39  0.000  0.000  0.000  0.000
tot    0.061  0.008  0.774  0.843
 
band    20 # energy   -5.24322188 # occ.  2.00000000
 
ion      s      p      d    tot
    1  0.000  0.000  0.005  0.006
    2  0.000  0.000  0.009  0.009
    3  0.003  0.000  0.006  0.010
    4  0.000  0.000  0.009  0.009
    5  0.000  0.000  0.010  0.010
    6  0.002  0.000  0.009  0.011
    7  0.003  0.000  0.006  0.010
    8  0.002  0.000  0.008  0.011
    9  0.000  0.000  0.021  0.021
   10  0.000  0.000  0.025  0.025
   11  0.004  0.000  0.020  0.024
   12  0.002  0.000  0.024  0.026
   13  0.003  0.000  0.021  0.025
   14  0.000  0.000  0.054  0.054
   15  0.000  0.000  0.037  0.037
   16  0.002  0.000  0.024  0.026
   17  0.000  0.000  0.037  0.037
   18  0.000  0.000  0.026  0.026
   19  0.006  0.000  0.027  0.033
   20  0.000  0.000  0.009  0.010
   21  0.001  0.000  0.038  0.039
   22  0.010  0.000  0.035  0.046
   23  0.001  0.000  0.039  0.040
   24  0.000  0.000  0.078  0.078
   25  0.000  0.000  0.086  0.086
   26  0.006  0.000  0.029  0.035
   27  0.011  0.000  0.034  0.045
   28  0.000  0.000  0.004  0.004
   29  0.002  0.001  0.004  0.006
   30  0.000  0.000  0.009  0.009
   31  0.002  0.001  0.004  0.006
   32  0.001  0.000  0.004  0.005
   33  0.000  0.000  0.009  0.009
   34  0.001  0.000  0.004  0.005
   35  0.000  0.000  0.009  0.010
   36  0.000  0.000  0.002  0.002
   37  0.000  0.000  0.000  0.000
   38  0.000  0.000  0.000  0.000
   39  0.000  0.000  0.000  0.000