 vasp.6.2.0 18Jan21 (build Jun 12 2021 23:27:24) complex                        
  
 executed on             LinuxIFC date 2022.05.28  01:56:32
 running on   28 total cores
 distrk:  each k-point on   28 cores,    1 groups
 distr:  one band on NCORE=   1 cores,   28 groups


--------------------------------------------------------------------------------------------------------


 INCAR:
   ISMEAR = -5
   SIGMA = 0.1
   ISPIN = 1
   EDIFF = 1.d-5
   EDIFFG = -0.01
   NSW = 0
   NELM = 150
   ENCUT = 500
   ISIF = 2
   IBRION = 2
   LREAL = Auto
   ALGO = Fast
   ICHARG = 11
   LORBIT = 10
   LCHARG = .F.
   LWAVE = .F.

 POTCAR:    PAW_PBE Ag 02Apr2005                  
 POTCAR:    PAW_PBE Hf 20Jan2003                  
 POTCAR:    PAW_PBE H 15Jun2001                   
 POTCAR:    PAW_PBE O 08Apr2002                   
 -----------------------------------------------------------------------------
|                                                                             |
|           W    W    AA    RRRRR   N    N  II  N    N   GGGG   !!!           |
|           W    W   A  A   R    R  NN   N  II  NN   N  G    G  !!!           |
|           W    W  A    A  R    R  N N  N  II  N N  N  G       !!!           |
|           W WW W  AAAAAA  RRRRR   N  N N  II  N  N N  G  GGG   !            |
|           WW  WW  A    A  R   R   N   NN  II  N   NN  G    G                |
|           W    W  A    A  R    R  N    N  II  N    N   GGGG   !!!           |
|                                                                             |
|     For optimal performance we recommend to set                             |
|       NCORE = 2 up to number-of-cores-per-socket                            |
|     NCORE specifies how many cores store one orbital (NPAR=cpu/NCORE).      |
|     This setting can greatly improve the performance of VASP for DFT.       |
|     The default, NCORE=1 might be grossly inefficient on modern             |
|     multi-core architectures or massively parallel machines. Do your        |
|     own testing! More info at https://www.vasp.at/wiki/index.php/NCORE      |
|     Unfortunately you need to use the default for GW and RPA                |
|     calculations (for HF NCORE is supported but not extensively tested      |
|     yet).                                                                   |
|                                                                             |
 -----------------------------------------------------------------------------

 POTCAR:    PAW_PBE Ag 02Apr2005                  
   VRHFIN =Ag : s1 d10                                                                              
   LEXCH  = PE                                                                                      
   EATOM  =  1037.2675 eV,   76.2370 Ry                                                             
                                                                                                    
   TITEL  = PAW_PBE Ag 02Apr2005                                                                    
   LULTRA =        F    use ultrasoft PP ?                                                          
   IUNSCR =        1    unscreen: 0-lin 1-nonlin 2-no                                               
   RPACOR =    2.000    partial core radius                                                         
   POMASS =  107.868; ZVAL   =   11.000    mass and valenz                                          
   RCORE  =    2.500    outmost cutoff radius                                                       
   RWIGS  =    2.840; RWIGS  =    1.503    wigner-seitz radius (au A)                               
   ENMAX  =  249.844; ENMIN  =  187.383 eV                                                          
   ICORE  =        3    local potential                                                             
   LCOR   =        T    correct aug charges                                                         
   LPAW   =        T    paw PP                                                                      
   EAUG   =  412.496                                                                                
   DEXC   =    0.000                                                                                
   RMAX   =    2.560    core radius for proj-oper                                                   
   RAUG   =    1.300    factor for augmentation sphere                                              
   RDEP   =    2.576    radius for radial grids                                                     
   RDEPT  =    2.072    core radius for aug-charge                                                  
                                                                                                    
   Atomic configuration                                                                             
   12 entries                                                                                       
     n  l   j            E        occ.                                                              
     1  0  0.50    -25324.9161   2.0000                                                             
     2  0  0.50     -3728.5341   2.0000                                                             
     2  1  1.50     -3344.0404   6.0000                                                             
     3  0  0.50      -683.5581   2.0000                                                             
     3  1  1.50      -557.3225   6.0000                                                             
     3  2  2.50      -358.3853  10.0000                                                             
     4  0  0.50       -95.0341   2.0000                                                             
     4  1  1.50       -58.5511   6.0000                                                             
     4  2  2.50        -7.4440  10.0000                                                             
     5  0  0.50        -4.4045   1.0000                                                             
     5  1  0.50        -1.3606   0.0000                                                             
     4  3  2.50        -1.3606   0.0000                                                             
   Description                                                                                      
     l       E           TYP  RCUT    TYP  RCUT                                                     
     2     -7.4439781     23  2.400                                                                 
     2     -8.8045607     23  2.400                                                                 
     0     -4.4044681     23  2.400                                                                 
     0      1.9520038     23  2.400                                                                 
     1     -1.3605826     23  2.500                                                                 
     1     27.2116520     23  2.500                                                                 
     3     -4.0817478     23  2.400                                                                 
  local pseudopotential read in
  partial core-charges read in
  partial kinetic energy density read in
  atomic valenz-charges read in
  non local Contribution for L=           2  read in
    real space projection operators read in
  non local Contribution for L=           2  read in
    real space projection operators read in
  non local Contribution for L=           0  read in
    real space projection operators read in
  non local Contribution for L=           0  read in
    real space projection operators read in
  non local Contribution for L=           1  read in
    real space projection operators read in
  non local Contribution for L=           1  read in
    real space projection operators read in
    PAW grid and wavefunctions read in
 
   number of l-projection  operators is LMAX  =           6
   number of lm-projection operators is LMMAX =          18
 
 POTCAR:    PAW_PBE Hf 20Jan2003                  
   VRHFIN =Hf: 6s5d                                                                                 
   LEXCH  = PE                                                                                      
   EATOM  =    75.9011 eV,    5.5786 Ry                                                             
                                                                                                    
   TITEL  = PAW_PBE Hf 20Jan2003                                                                    
   LULTRA =        F    use ultrasoft PP ?                                                          
   IUNSCR =        1    unscreen: 0-lin 1-nonlin 2-no                                               
   RPACOR =    2.500    partial core radius                                                         
   POMASS =  178.490; ZVAL   =    4.000    mass and valenz                                          
   RCORE  =    3.000    outmost cutoff radius                                                       
   RWIGS  =    3.050; RWIGS  =    1.614    wigner-seitz radius (au A)                               
   ENMAX  =  220.334; ENMIN  =  165.250 eV                                                          
   RCLOC  =    2.212    cutoff for local pot                                                        
   LCOR   =        T    correct aug charges                                                         
   LPAW   =        T    paw PP                                                                      
   EAUG   =  335.116                                                                                
   DEXC   =    0.000                                                                                
   RMAX   =    3.077    core radius for proj-oper                                                   
   RAUG   =    1.300    factor for augmentation sphere                                              
   RDEP   =    3.047    radius for radial grids                                                     
   RDEPT  =    2.344    core radius for aug-charge                                                  
                                                                                                    
   Atomic configuration                                                                             
   16 entries                                                                                       
     n  l   j            E        occ.                                                              
     1  0  0.50    -65259.4397   2.0000                                                             
     2  0  0.50    -11157.9882   2.0000                                                             
     2  1  1.50     -9795.2113   6.0000                                                             
     3  0  0.50     -2541.4058   2.0000                                                             
     3  1  1.50     -2134.4770   6.0000                                                             
     3  2  2.50     -1653.5418  10.0000                                                             
     4  0  0.50      -510.9575   2.0000                                                             
     4  1  1.50      -377.5023   6.0000                                                             
     4  2  2.50      -205.2085  10.0000                                                             
     4  3  3.50       -15.4905  14.0000                                                             
     5  0  0.50       -65.6020   2.0000                                                             
     5  1  1.50       -34.2798   6.0000                                                             
     5  2  2.50        -1.9877   3.0000                                                             
     6  0  0.50        -4.7357   1.0000                                                             
     6  1  1.50        -1.3606   0.0000                                                             
     5  3  2.50        -1.3606   0.0000                                                             
   Description                                                                                      
     l       E           TYP  RCUT    TYP  RCUT                                                     
     2     -1.9876627     23  2.500                                                                 
     2      0.0744703     23  2.500                                                                 
     0     -4.7356889     23  2.600                                                                 
     0      3.2364747     23  2.600                                                                 
     1     -1.3605826     23  3.000                                                                 
     1     27.2116520     23  3.000                                                                 
  local pseudopotential read in
  partial core-charges read in
  partial kinetic energy density read in
  atomic valenz-charges read in
  non local Contribution for L=           2  read in
    real space projection operators read in
  non local Contribution for L=           2  read in
    real space projection operators read in
  non local Contribution for L=           0  read in
    real space projection operators read in
  non local Contribution for L=           0  read in
    real space projection operators read in
  non local Contribution for L=           1  read in
    real space projection operators read in
  non local Contribution for L=           1  read in
    real space projection operators read in
    PAW grid and wavefunctions read in
 
   number of l-projection  operators is LMAX  =           6
   number of lm-projection operators is LMMAX =          18
 
 POTCAR:    PAW_PBE H 15Jun2001                   
   VRHFIN =H: ultrasoft test                                                                        
   LEXCH  = PE                                                                                      
   EATOM  =    12.4884 eV,    0.9179 Ry                                                             
                                                                                                    
   TITEL  = PAW_PBE H 15Jun2001                                                                     
   LULTRA =        F    use ultrasoft PP ?                                                          
   IUNSCR =        0    unscreen: 0-lin 1-nonlin 2-no                                               
   RPACOR =    0.000    partial core radius                                                         
   POMASS =    1.000; ZVAL   =    1.000    mass and valenz                                          
   RCORE  =    1.100    outmost cutoff radius                                                       
   RWIGS  =    0.700; RWIGS  =    0.370    wigner-seitz radius (au A)                               
   ENMAX  =  250.000; ENMIN  =  200.000 eV                                                          
   RCLOC  =    0.701    cutoff for local pot                                                        
   LCOR   =        T    correct aug charges                                                         
   LPAW   =        T    paw PP                                                                      
   EAUG   =  400.000                                                                                
   RMAX   =    1.123    core radius for proj-oper                                                   
   RAUG   =    1.200    factor for augmentation sphere                                              
   RDEP   =    1.112    radius for radial grids                                                     
   RDEPT  =    0.926    core radius for aug-charge                                                  
                                                                                                    
   Atomic configuration                                                                             
    2 entries                                                                                       
     n  l   j            E        occ.                                                              
     1  0  0.50        -6.4927   1.0000                                                             
     2  1  0.50        -3.4015   0.0000                                                             
   Description                                                                                      
     l       E           TYP  RCUT    TYP  RCUT                                                     
     0     -6.4927494     23  1.100                                                                 
     0      6.8029130     23  1.100                                                                 
     1     -4.0817478     23  1.100                                                                 
  local pseudopotential read in
  atomic valenz-charges read in
  non local Contribution for L=           0  read in
    real space projection operators read in
  non local Contribution for L=           0  read in
    real space projection operators read in
  non local Contribution for L=           1  read in
    real space projection operators read in
    PAW grid and wavefunctions read in
 
   number of l-projection  operators is LMAX  =           3
   number of lm-projection operators is LMMAX =           5
 
 POTCAR:    PAW_PBE O 08Apr2002                   
   VRHFIN =O: s2p4                                                                                  
   LEXCH  = PE                                                                                      
   EATOM  =   432.3788 eV,   31.7789 Ry                                                             
                                                                                                    
   TITEL  = PAW_PBE O 08Apr2002                                                                     
   LULTRA =        F    use ultrasoft PP ?                                                          
   IUNSCR =        1    unscreen: 0-lin 1-nonlin 2-no                                               
   RPACOR =    1.200    partial core radius                                                         
   POMASS =   16.000; ZVAL   =    6.000    mass and valenz                                          
   RCORE  =    1.520    outmost cutoff radius                                                       
   RWIGS  =    1.550; RWIGS  =    0.820    wigner-seitz radius (au A)                               
   ENMAX  =  400.000; ENMIN  =  300.000 eV                                                          
   ICORE  =        2    local potential                                                             
   LCOR   =        T    correct aug charges                                                         
   LPAW   =        T    paw PP                                                                      
   EAUG   =  605.392                                                                                
   DEXC   =    0.000                                                                                
   RMAX   =    1.553    core radius for proj-oper                                                   
   RAUG   =    1.300    factor for augmentation sphere                                              
   RDEP   =    1.550    radius for radial grids                                                     
   RDEPT  =    1.329    core radius for aug-charge                                                  
                                                                                                    
   Atomic configuration                                                                             
    4 entries                                                                                       
     n  l   j            E        occ.                                                              
     1  0  0.50      -514.6923   2.0000                                                             
     2  0  0.50       -23.9615   2.0000                                                             
     2  1  0.50        -9.0305   4.0000                                                             
     3  2  1.50        -9.5241   0.0000                                                             
   Description                                                                                      
     l       E           TYP  RCUT    TYP  RCUT                                                     
     0    -23.9615318     23  1.200                                                                 
     0     -9.5240782     23  1.200                                                                 
     1     -9.0304911     23  1.520                                                                 
     1      8.1634956     23  1.520                                                                 
     2     -9.5240782      7  1.500                                                                 
  local pseudopotential read in
  partial core-charges read in
  partial kinetic energy density read in
  kinetic energy density of atom read in
  atomic valenz-charges read in
  non local Contribution for L=           0  read in
    real space projection operators read in
  non local Contribution for L=           0  read in
    real space projection operators read in
  non local Contribution for L=           1  read in
    real space projection operators read in
  non local Contribution for L=           1  read in
    real space projection operators read in
    PAW grid and wavefunctions read in
 
   number of l-projection  operators is LMAX  =           4
   number of lm-projection operators is LMMAX =           8
 
 Optimization of the real space projectors (new method)

 maximal supplied QI-value         = 15.12
 optimisation between [QCUT,QGAM] = [ 11.34, 22.83] = [ 36.00,145.93] Ry 
 Optimized for a Real-space Cutoff    1.43 Angstroem

   l    n(q)    QCUT    max X(q) W(low)/X(q) W(high)/X(q)  e(spline) 
   2      9    11.338    53.897    0.16E-03    0.20E-03    0.28E-06
   2      9    11.338    52.416    0.16E-03    0.20E-03    0.29E-06
   0     10    11.338   122.045    0.31E-04    0.76E-04    0.15E-06
   0     10    11.338    73.629    0.30E-04    0.72E-04    0.15E-06
   1      9    11.338    15.255    0.20E-03    0.19E-04    0.17E-06
   1      9    11.338     9.562    0.16E-03    0.15E-04    0.14E-06
 Optimization of the real space projectors (new method)

 maximal supplied QI-value         = 12.47
 optimisation between [QCUT,QGAM] = [ 11.35, 22.82] = [ 36.07,145.88] Ry 
 Optimized for a Real-space Cutoff    1.66 Angstroem

   l    n(q)    QCUT    max X(q) W(low)/X(q) W(high)/X(q)  e(spline) 
   2     10    11.350    48.111    0.20E-03    0.11E-03    0.41E-06
   2     10    11.350    40.545    0.19E-03    0.10E-03    0.39E-06
   0     11    11.350   121.658    0.22E-04    0.19E-04    0.24E-06
   0     11    11.350    71.177    0.17E-04    0.17E-04    0.23E-06
   1     11    11.350    14.183    0.25E-03    0.43E-03    0.12E-05
   1     11    11.350     8.257    0.17E-03    0.29E-03    0.81E-06
 Optimization of the real space projectors (new method)

 maximal supplied QI-value         = 34.20
 optimisation between [QCUT,QGAM] = [ 11.29, 22.57] = [ 35.68,142.71] Ry 
 Optimized for a Real-space Cutoff    1.16 Angstroem

   l    n(q)    QCUT    max X(q) W(low)/X(q) W(high)/X(q)  e(spline) 
   0      8    11.287    19.460    0.40E-03    0.73E-03    0.16E-06
   0      8    11.287    12.209    0.38E-03    0.70E-03    0.15E-06
   1      7    11.287     4.655    0.22E-03    0.25E-04    0.22E-06
 Optimization of the real space projectors (new method)

 maximal supplied QI-value         = 24.76
 optimisation between [QCUT,QGAM] = [ 11.39, 22.77] = [ 36.31,145.25] Ry 
 Optimized for a Real-space Cutoff    1.00 Angstroem

   l    n(q)    QCUT    max X(q) W(low)/X(q) W(high)/X(q)  e(spline) 
   0      7    11.387    20.381    0.39E-03    0.13E-02    0.15E-06
   0      7    11.387    15.268    0.42E-03    0.14E-02    0.17E-06
   1      6    11.387     5.964    0.41E-03    0.11E-02    0.17E-06
   1      6    11.387     5.382    0.39E-03    0.87E-03    0.15E-06
  PAW_PBE Ag 02Apr2005                  :
 energy of atom  1       EATOM=-1037.2675
 kinetic energy error for atom=    0.0052 (will be added to EATOM!!)
  PAW_PBE Hf 20Jan2003                  :
 energy of atom  2       EATOM=  -75.9011
 kinetic energy error for atom=    0.0007 (will be added to EATOM!!)
  PAW_PBE H 15Jun2001                   :
 energy of atom  3       EATOM=  -12.4884
 kinetic energy error for atom=    0.0020 (will be added to EATOM!!)
  PAW_PBE O 08Apr2002                   :
 energy of atom  4       EATOM= -432.3788
 kinetic energy error for atom=    0.0224 (will be added to EATOM!!)
 
 
 POSCAR: Ag-Hf-H2O
  positions in direct lattice
  velocities in cartesian coordinates
 exchange correlation table for  LEXCH =        8
   RHO(1)=    0.500       N(1)  =     2000
   RHO(2)=  100.500       N(2)  =     4000

 VTST: version 3.2, (02/03/18)

 CHAIN: initializing optimizer
 
 OPT: Using VASP Conjugate-Gradient optimizer
 CHAIN: Read ICHAIN            0
 
 POSCAR: Ag-Hf-H2O
  positions in direct lattice
  velocities in cartesian coordinates
 


--------------------------------------------------------------------------------------------------------


 ion  position               nearest neighbor table
   1  0.000  0.000  0.212-   2 2.93   8 2.93   7 2.93   6 2.93   4 2.93  12 2.93  16 2.93  10 2.93
                             3 2.93
   2  0.333  0.000  0.212-   1 2.93   8 2.93   9 2.93   3 2.93   4 2.93   5 2.93  10 2.93  17 2.93
                            11 2.93
   3  0.667  0.000  0.212-   9 2.93   2 2.93   5 2.93  11 2.93   7 2.93  18 2.93   1 2.93   6 2.93
                            12 2.93
   4  0.000  0.333  0.212-   5 2.93   6 2.93   2 2.93   1 2.93   7 2.93  13 2.93  15 2.93   9 2.93
                            10 2.93
   5  0.333  0.333  0.212-   4 2.93   3 2.93   7 2.93   2 2.93   8 2.93  14 2.93  13 2.93  11 2.93
                             6 2.93
   6  0.667  0.333  0.212-   4 2.93   9 2.93   1 2.93  15 2.93   8 2.93  12 2.93   3 2.93   5 2.93
                            14 2.93
   7  0.000  0.667  0.212-   8 2.93   1 2.93   5 2.93   3 2.93   4 2.93  16 2.93  18 2.93  13 2.93
                             9 2.93
   8  0.333  0.667  0.212-   7 2.93   1 2.93   2 2.93   9 2.93   5 2.93  16 2.93   6 2.93  17 2.93
                            14 2.93
   9  0.667  0.667  0.212-   3 2.93   2 2.93   8 2.93   6 2.93  17 2.93   4 2.93  15 2.93   7 2.93
                            18 2.93
  10  0.111  0.111  0.308-  20 2.90  19 2.92  26 2.92  12 2.93  16 2.93  15 2.93  17 2.93  13 2.93
                            11 2.93   2 2.93   1 2.93   4 2.93
  11  0.444  0.111  0.308-  21 2.90  20 2.90  14 2.93  17 2.93  18 2.93   3 2.93  12 2.93  13 2.93
                            10 2.93   5 2.93   2 2.93  27 2.93
  12  0.778  0.111  0.308-  21 2.90  25 2.92  19 2.92  10 2.93  16 2.93  18 2.93  15 2.93  11 2.93
                             1 2.93  14 2.93   6 2.93   3 2.93
  13  0.111  0.444  0.308-  20 2.90  23 2.90  15 2.93  14 2.93  18 2.93  10 2.93  11 2.93  16 2.93
                             4 2.93   5 2.93   7 2.93  22 2.93
  14  0.444  0.444  0.308-  23 2.90  21 2.90  13 2.93  11 2.93  16 2.93   5 2.93  12 2.93  17 2.93
                             8 2.93  15 2.93   6 2.93  24 2.93
  15  0.778  0.444  0.308-  19 2.92  24 2.93  22 2.93  13 2.93  10 2.93  12 2.93  17 2.93  18 2.93
                             4 2.93   6 2.93   9 2.93  14 2.93
  16  0.111  0.778  0.308-  23 2.90  26 2.92  25 2.92  18 2.93  12 2.93  10 2.93  14 2.93  17 2.93
                            13 2.93   7 2.93   8 2.93   1 2.93
  17  0.444  0.778  0.308-  26 2.92  27 2.93  24 2.93  11 2.93  10 2.93   9 2.93  18 2.93  15 2.93
                            16 2.93   2 2.93  14 2.93   8 2.93
  18  0.778  0.778  0.308-  25 2.92  22 2.93  27 2.93  16 2.93  12 2.93  13 2.93  11 2.93  17 2.93
                            15 2.93   7 2.93   3 2.93   9 2.93
  19  0.889  0.222  0.403-  10 2.92  12 2.92  15 2.92  20 2.93  21 2.93  26 2.93  25 2.93  24 2.93
                            22 2.93  28 2.94  32 2.98  31 2.98
  20  0.222  0.222  0.402-  36 2.86  10 2.90  13 2.90  11 2.90  19 2.93  26 2.93  27 2.93  22 2.93
                            21 2.94  23 2.94  31 2.97  29 2.97
  21  0.556  0.222  0.402-  36 2.86  12 2.90  11 2.90  14 2.90  25 2.93  19 2.93  27 2.93  24 2.93
                            20 2.94  23 2.94  30 2.97  32 2.97
  22  0.889  0.556  0.403-  24 2.93  27 2.93  18 2.93  15 2.93  25 2.93  19 2.93  13 2.93  23 2.93
                            20 2.93  35 2.94  33 2.96  31 2.96
  23  0.222  0.556  0.402-  36 2.86  16 2.90  14 2.90  13 2.90  26 2.93  25 2.93  22 2.93  24 2.93
                            21 2.94  20 2.94  34 2.97  33 2.97
  24  0.556  0.556  0.403-  27 2.93  22 2.93  15 2.93  17 2.93  19 2.93  26 2.93  14 2.93  23 2.93
                            21 2.93  35 2.94  32 2.96  34 2.96
  25  0.889  0.889  0.403-  16 2.92  12 2.92  18 2.92  23 2.93  21 2.93  26 2.93  19 2.93  22 2.93
                            27 2.93  28 2.94  33 2.98  30 2.98
  26  0.222  0.889  0.403-  16 2.92  10 2.92  17 2.92  23 2.93  20 2.93  25 2.93  19 2.93  27 2.93
                            24 2.93  28 2.94  34 2.98  29 2.98
  27  0.556  0.889  0.403-  24 2.93  22 2.93  17 2.93  18 2.93  26 2.93  25 2.93  11 2.93  20 2.93
                            21 2.93  35 2.94  29 2.96  30 2.96
  28  0.000  0.000  0.499-  26 2.94  25 2.94  19 2.94  29 2.94  34 2.94  33 2.94  32 2.94  31 2.94
                            30 2.94
  29  0.333  0.003  0.501-  30 2.90  31 2.91  36 2.91  35 2.94  28 2.94  27 2.96  20 2.97  26 2.98
                            34 2.98
  30  0.664  0.003  0.501-  29 2.90  32 2.91  36 2.91  35 2.94  28 2.94  27 2.96  21 2.97  25 2.98
                            33 2.98
  31  0.003  0.333  0.501-  33 2.90  29 2.91  36 2.91  35 2.94  28 2.94  22 2.96  20 2.97  19 2.98
                            32 2.98
  32  0.664  0.333  0.501-  34 2.90  30 2.91  36 2.91  35 2.94  28 2.94  24 2.96  21 2.97  19 2.98
                            31 2.98
  33  0.003  0.664  0.501-  31 2.90  34 2.91  36 2.91  35 2.94  28 2.94  22 2.96  23 2.97  25 2.98
                            30 2.98
  34  0.333  0.664  0.501-  32 2.90  33 2.91  36 2.91  35 2.94  28 2.94  24 2.96  23 2.97  26 2.98
                            29 2.98
  35  0.667  0.667  0.500-  30 2.94  29 2.94  32 2.94  34 2.94  31 2.94  33 2.94  24 2.94  27 2.94
                            22 2.94
  36  0.333  0.333  0.494-  39 2.26  21 2.86  20 2.86  23 2.86  31 2.91  33 2.91  30 2.91  29 2.91
                            34 2.91  32 2.91
  37  0.276  0.265  0.596-  39 0.98
  38  0.459  0.261  0.596-  39 0.98
  39  0.336  0.329  0.585-  38 0.98  37 0.98  36 2.26
 
  LATTYP: Found a hexagonal cell.
 ALAT       =     8.7913665772
 C/A-ratio  =     2.8382349142
  
  Lattice vectors:
  
 A1 = (  -4.3956832886,  -7.6135467898,   0.0000000000)
 A2 = (   8.7913665771,   0.0000000000,   0.0000000000)
 A3 = (   0.0000000000,   0.0000000000,  24.9519635625)


Analysis of symmetry for initial positions (statically):
=====================================================================
 Subroutine PRICEL returns:
 Original cell was already a primitive cell.
 

 Routine SETGRP: Setting up the symmetry group for a 
 hexagonal supercell.


 Subroutine GETGRP returns: Found  1 space group operations
 (whereof  1 operations were pure point group operations)
 out of a pool of 24 trial point group operations.


The static configuration has the point symmetry C_1 .


Analysis of symmetry for dynamics (positions and initial velocities):
=====================================================================
 Subroutine PRICEL returns:
 Original cell was already a primitive cell.
 

 Routine SETGRP: Setting up the symmetry group for a 
 hexagonal supercell.


 Subroutine GETGRP returns: Found  1 space group operations
 (whereof  1 operations were pure point group operations)
 out of a pool of 24 trial point group operations.


The dynamic configuration has the point symmetry C_1 .


Analysis of constrained symmetry for selective dynamics:
=====================================================================
 Subroutine PRICEL returns:
 Original cell was already a primitive cell.
 

 Routine SETGRP: Setting up the symmetry group for a 
 hexagonal supercell.


 Subroutine GETGRP returns: Found  1 space group operations
 (whereof  1 operations were pure point group operations)
 out of a pool of 24 trial point group operations.


The constrained configuration has the point symmetry C_1 .


 Subroutine INISYM returns: Found  1 space group operations
 (whereof  1 operations are pure point group operations),
 and found     1 'primitive' translations


----------------------------------------------------------------------------------------

                                     Primitive cell                                     

  volume of cell :    1670.1218

  direct lattice vectors                    reciprocal lattice vectors
     8.791366577  0.000000000  0.000000000     0.113747958 -0.065672414  0.000000000
     4.395683289  7.613546790  0.000000000     0.000000000  0.131344829  0.000000000
     0.000000000  0.000000000 24.951963562     0.000000000  0.000000000  0.040077006

  length of vectors
     8.791366577  8.791366577 24.951963562     0.131344829  0.131344829  0.040077006

  position of ions in fractional coordinates (direct lattice)
     0.000000000  0.000000000  0.211694287
     0.333333313  0.000000000  0.211694287
     0.666666627  0.000000000  0.211694287
     0.000000000  0.333333343  0.211694287
     0.333333313  0.333333343  0.211694287
     0.666666687  0.333333343  0.211694287
     0.000000000  0.666666687  0.211694287
     0.333333313  0.666666687  0.211694287
     0.666666627  0.666666687  0.211694287
     0.111111104  0.111111112  0.307586829
     0.444444448  0.111111112  0.307586829
     0.777777791  0.111111112  0.307586829
     0.111111097  0.444444448  0.307586829
     0.444444418  0.444444448  0.307586829
     0.777777791  0.444444448  0.307586829
     0.111111104  0.777777791  0.307586829
     0.444444448  0.777777791  0.307586829
     0.777777791  0.777777791  0.307586829
     0.888897030  0.222205956  0.403105386
     0.221894504  0.221894519  0.402094854
     0.556210932  0.221894519  0.402094854
     0.888580280  0.555709890  0.403485503
     0.221894519  0.556210992  0.402094854
     0.555709890  0.555709890  0.403485503
     0.888897030  0.888897030  0.403105386
     0.222205926  0.888897030  0.403105386
     0.555709830  0.888580280  0.403485503
     0.000000000  0.000000000  0.499245734
     0.333428019  0.002724273  0.500774348
     0.663847648  0.002724273  0.500774348
     0.002724273  0.333428049  0.500774348
     0.663847708  0.333428049  0.500774348
     0.002724273  0.663847708  0.500774348
     0.333428019  0.663847708  0.500774348
     0.666666627  0.666666687  0.500099270
     0.333333313  0.333333343  0.494311040
     0.276216209  0.264877018  0.596473613
     0.458743338  0.260656963  0.596396440
     0.335545939  0.328892614  0.584823317

  ion indices of the primitive-cell ions
   primitive index   ion index
                 1           1
                 2           2
                 3           3
                 4           4
                 5           5
                 6           6
                 7           7
                 8           8
                 9           9
                10          10
                11          11
                12          12
                13          13
                14          14
                15          15
                16          16
                17          17
                18          18
                19          19
                20          20
                21          21
                22          22
                23          23
                24          24
                25          25
                26          26
                27          27
                28          28
                29          29
                30          30
                31          31
                32          32
                33          33
                34          34
                35          35
                36          36
                37          37
                38          38
                39          39

----------------------------------------------------------------------------------------

 
 
 KPOINTS: Automatic mesh                          

Automatic generation of k-mesh.
 Grid dimensions read from file:
 generate k-points for:    8    8    1

 Generating k-lattice:

  Cartesian coordinates                     Fractional coordinates (reciprocal lattice)
     0.014218495 -0.008209052  0.000000000     0.125000000  0.000000000  0.000000000
     0.000000000  0.016418104  0.000000000     0.000000000  0.125000000  0.000000000
     0.000000000  0.000000000  0.040077006     0.000000000  0.000000000  1.000000000

  Length of vectors
     0.016418104  0.016418104  0.040077006

  Shift w.r.t. Gamma in fractional coordinates (k-lattice)
     0.000000000  0.000000000  0.000000000

 TETIRR: Found    192 inequivalent tetrahedra from      384
 
 Subroutine IBZKPT returns following result:
 ===========================================
 
 Found     34 irreducible k-points:
 
 Following reciprocal coordinates:
            Coordinates               Weight
  0.000000  0.000000  0.000000      1.000000
  0.125000  0.000000  0.000000      2.000000
  0.125000  0.125000  0.000000      2.000000
  0.000000  0.125000  0.000000      2.000000
  0.250000  0.000000  0.000000      2.000000
  0.250000  0.250000  0.000000      2.000000
  0.000000  0.250000  0.000000      2.000000
  0.375000  0.000000  0.000000      2.000000
  0.375000  0.375000  0.000000      2.000000
  0.000000  0.375000  0.000000      2.000000
  0.500000  0.000000  0.000000      1.000000
  0.500000  0.500000  0.000000      1.000000
  0.000000  0.500000  0.000000      1.000000
  0.250000  0.125000  0.000000      2.000000
  0.125000  0.250000  0.000000      2.000000
 -0.125000  0.125000  0.000000      2.000000
  0.375000  0.125000  0.000000      2.000000
  0.250000  0.375000  0.000000      2.000000
 -0.125000  0.250000  0.000000      2.000000
  0.250000 -0.125000  0.000000      2.000000
 -0.125000 -0.375000  0.000000      2.000000
 -0.375000 -0.250000  0.000000      2.000000
  0.500000  0.125000  0.000000      2.000000
  0.375000  0.500000  0.000000      2.000000
 -0.125000  0.375000  0.000000      2.000000
  0.375000 -0.125000  0.000000      2.000000
 -0.125000  0.500000  0.000000      2.000000
  0.500000 -0.375000  0.000000      2.000000
  0.500000  0.250000  0.000000      2.000000
  0.250000  0.500000  0.000000      2.000000
 -0.250000  0.250000  0.000000      2.000000
 -0.375000  0.250000  0.000000      2.000000
  0.375000 -0.375000  0.000000      2.000000
 -0.250000  0.375000  0.000000      2.000000
 
 Following cartesian coordinates:
            Coordinates               Weight
  0.000000  0.000000  0.000000      1.000000
  0.014218 -0.008209  0.000000      2.000000
  0.014218  0.008209  0.000000      2.000000
  0.000000  0.016418  0.000000      2.000000
  0.028437 -0.016418  0.000000      2.000000
  0.028437  0.016418  0.000000      2.000000
  0.000000  0.032836  0.000000      2.000000
  0.042655 -0.024627  0.000000      2.000000
  0.042655  0.024627  0.000000      2.000000
  0.000000  0.049254  0.000000      2.000000
  0.056874 -0.032836  0.000000      1.000000
  0.056874  0.032836  0.000000      1.000000
  0.000000  0.065672  0.000000      1.000000
  0.028437 -0.000000  0.000000      2.000000
  0.014218  0.024627  0.000000      2.000000
 -0.014218  0.024627  0.000000      2.000000
  0.042655 -0.008209  0.000000      2.000000
  0.028437  0.032836  0.000000      2.000000
 -0.014218  0.041045  0.000000      2.000000
  0.028437 -0.032836  0.000000      2.000000
 -0.014218 -0.041045  0.000000      2.000000
 -0.042655 -0.008209  0.000000      2.000000
  0.056874 -0.016418  0.000000      2.000000
  0.042655  0.041045  0.000000      2.000000
 -0.014218  0.057463  0.000000      2.000000
  0.042655 -0.041045  0.000000      2.000000
 -0.014218  0.073881  0.000000      2.000000
  0.056874 -0.082091  0.000000      2.000000
  0.056874 -0.000000  0.000000      2.000000
  0.028437  0.049254  0.000000      2.000000
 -0.028437  0.049254  0.000000      2.000000
 -0.042655  0.057463  0.000000      2.000000
  0.042655 -0.073881  0.000000      2.000000
 -0.028437  0.065672  0.000000      2.000000
 


--------------------------------------------------------------------------------------------------------




 Dimension of arrays:
   k-points           NKPTS =     34   k-points in BZ     NKDIM =     34   number of bands    NBANDS=    252
   number of dos      NEDOS =    301   number of ions     NIONS =     39
   non local maximal  LDIM  =      6   non local SUM 2l+1 LMDIM =     18
   total plane-waves  NPLWV = 322560
   max r-space proj   IRMAX =   3746   max aug-charges    IRDMAX=  13166
   dimension x,y,z NGX =    48 NGY =   48 NGZ =  140
   dimension x,y,z NGXF=    96 NGYF=   96 NGZF=  280
   support grid    NGXF=    96 NGYF=   96 NGZF=  280
   ions per type =              35   1   2   1
   NGX,Y,Z   is equivalent  to a cutoff of   9.08,  9.08,  9.33 a.u.
   NGXF,Y,Z  is equivalent  to a cutoff of  18.15, 18.15, 18.66 a.u.

 SYSTEM =  unknown system                          
 POSCAR =  Ag-Hf-H2O                               

 Startparameter for this run:
   NWRITE =      2    write-flag & timer
   PREC   = normal    normal or accurate (medium, high low for compatibility)
   ISTART =      0    job   : 0-new  1-cont  2-samecut
   ICHARG =     11    charge: 1-file 2-atom 10-const
   ISPIN  =      1    spin polarized calculation?
   LNONCOLLINEAR =      F non collinear calculations
   LSORBIT =      F    spin-orbit coupling
   INIWAV =      1    electr: 0-lowe 1-rand  2-diag
   LASPH  =      F    aspherical Exc in radial PAW
   METAGGA=      F    non-selfconsistent MetaGGA calc.

 Electronic Relaxation 1
   ENCUT  =  500.0 eV  36.75 Ry    6.06 a.u.  16.03 16.03 45.49*2*pi/ulx,y,z
   ENINI  =  500.0     initial cutoff
   ENAUG  =  605.4 eV  augmentation charge cutoff
   NELM   =    150;   NELMIN=  2; NELMDL= -5     # of ELM steps 
   EDIFF  = 0.1E-04   stopping-criterion for ELM
   LREAL  =      T    real-space projection
   NLSPLINE    = F    spline interpolate recip. space projectors
   LCOMPAT=      F    compatible to vasp.4.4
   GGA_COMPAT  = T    GGA compatible to vasp.4.4-vasp.4.6
   LMAXPAW     = -100 max onsite density
   LMAXMIX     =    2 max onsite mixed and CHGCAR
   VOSKOWN=      0    Vosko Wilk Nusair interpolation
   ROPT   =   -0.00050  -0.00050  -0.00050  -0.00050
 Ionic relaxation
   EDIFFG = -.1E-01   stopping-criterion for IOM
   NSW    =      0    number of steps for IOM
   NBLOCK =      1;   KBLOCK =      1    inner block; outer block 
   IBRION =     -1    ionic relax: 0-MD 1-quasi-New 2-CG
   NFREE  =      1    steps in history (QN), initial steepest desc. (CG)
   ISIF   =      2    stress and relaxation
   IWAVPR =     10    prediction:  0-non 1-charg 2-wave 3-comb
   ISYM   =      2    0-nonsym 1-usesym 2-fastsym
   LCORR  =      T    Harris-Foulkes like correction to forces

   POTIM  = 0.5000    time-step for ionic-motion
   TEIN   =    0.0    initial temperature
   TEBEG  =    0.0;   TEEND  =   0.0 temperature during run
   SMASS  =  -3.00    Nose mass-parameter (am)
   estimated Nose-frequenzy (Omega)   =  0.10E-29 period in steps = 0.13E+47 mass=  -0.177E-26a.u.
   SCALEE = 1.0000    scale energy and forces
   NPACO  =    256;   APACO  = 16.0  distance and # of slots for P.C.
   PSTRESS=    0.0 pullay stress

  Mass of Ions in am
   POMASS = 107.87178.49  1.00 16.00
  Ionic Valenz
   ZVAL   =  11.00  4.00  1.00  6.00
  Atomic Wigner-Seitz radii
   RWIGS  =  -1.00 -1.00 -1.00 -1.00
  virtual crystal weights 
   VCA    =   1.00  1.00  1.00  1.00
   NELECT =     397.0000    total number of electrons
   NUPDOWN=      -1.0000    fix difference up-down

 DOS related values:
   EMIN   =  10.00;   EMAX   =-10.00  energy-range for DOS
   EFERMI =   0.00
   ISMEAR =    -5;   SIGMA  =   0.10  broadening in eV -4-tet -1-fermi 0-gaus

 Electronic relaxation 2 (details)
   IALGO  =     68    algorithm
   LDIAG  =      T    sub-space diagonalisation (order eigenvalues)
   LSUBROT=      F    optimize rotation matrix (better conditioning)
   TURBO    =      0    0=normal 1=particle mesh
   IRESTART =      0    0=no restart 2=restart with 2 vectors
   NREBOOT  =      0    no. of reboots
   NMIN     =      0    reboot dimension
   EREF     =   0.00    reference energy to select bands
   IMIX   =      4    mixing-type and parameters
     AMIX     =   0.40;   BMIX     =  1.00
     AMIX_MAG =   1.60;   BMIX_MAG =  1.00
     AMIN     =   0.10
     WC   =   100.;   INIMIX=   1;  MIXPRE=   1;  MAXMIX= -45

 Intra band minimization:
   WEIMIN = 0.0000     energy-eigenvalue tresh-hold
   EBREAK =  0.99E-08  absolut break condition
   DEPER  =   0.30     relativ break condition  

   TIME   =   0.40     timestep for ELM

  volume/ion in A,a.u.               =      42.82       288.99
  Fermi-wavevector in a.u.,A,eV,Ry     =   1.014119  1.916407 13.992742  1.028438
  Thomas-Fermi vector in A             =   2.147328
 
 Write flags
   LWAVE        =      F    write WAVECAR
   LDOWNSAMPLE  =      F    k-point downsampling of WAVECAR
   LCHARG       =      F    write CHGCAR
   LVTOT        =      F    write LOCPOT, total local potential
   LVHAR        =      F    write LOCPOT, Hartree potential only
   LELF         =      F    write electronic localiz. function (ELF)
   LORBIT       =     10    0 simple, 1 ext, 2 COOP (PROOUT), +10 PAW based schemes


 Dipole corrections
   LMONO  =      F    monopole corrections only (constant potential shift)
   LDIPOL =      F    correct potential (dipole corrections)
   IDIPOL =      0    1-x, 2-y, 3-z, 4-all directions 
   EPSILON=  1.0000000 bulk dielectric constant

 Exchange correlation treatment:
   GGA     =    --    GGA type
   LEXCH   =     8    internal setting for exchange type
   VOSKOWN=      0    Vosko Wilk Nusair interpolation
   LHFCALC =     F    Hartree Fock is set to
   LHFONE  =     F    Hartree Fock one center treatment
   AEXX    =    0.0000 exact exchange contribution

 Linear response parameters
   LEPSILON=     F    determine dielectric tensor
   LRPA    =     F    only Hartree local field effects (RPA)
   LNABLA  =     F    use nabla operator in PAW spheres
   LVEL    =     F    velocity operator in full k-point grid
   LINTERFAST=   F  fast interpolation
   KINTER  =     0    interpolate to denser k-point grid
   CSHIFT  =0.1000    complex shift for real part using Kramers Kronig
   OMEGAMAX=  -1.0    maximum frequency
   DEG_THRESHOLD= 0.2000000E-02 threshold for treating states as degnerate
   RTIME   =   -0.100 relaxation time in fs
  (WPLASMAI=    0.000 imaginary part of plasma frequency in eV, 0.658/RTIME)
   DFIELD  = 0.0000000 0.0000000 0.0000000 field for delta impulse in time
 
 Orbital magnetization related:
   ORBITALMAG=     F  switch on orbital magnetization
   LCHIMAG   =     F  perturbation theory with respect to B field
   DQ        =  0.001000  dq finite difference perturbation B field
   LLRAUG    =     F  two centre corrections for induced B field



--------------------------------------------------------------------------------------------------------


 Static calculation
 charge density and potential remain constant during run
 non-spin polarized calculation
 RMM-DIIS sequential band-by-band and
  variant of blocked Davidson during initial phase
 perform sub-space diagonalisation
    before iterative eigenvector-optimisation
 no mixing
 using additional bands           53
 real space projection scheme for non local part
 use partial core corrections
 calculate Harris-corrections to forces 
   (improved forces if not selfconsistent)
 use gradient corrections 
 WARNING: stress and forces are not correct
  (second derivative of E(xc) not defined)
 use of overlap-Matrix (Vanderbilt PP)
 Fermi weights with tetrahedron method with Bloechl corrections


--------------------------------------------------------------------------------------------------------


  energy-cutoff  :      500.00
  volume of cell :     1670.12
      direct lattice vectors                 reciprocal lattice vectors
     8.791366577  0.000000000  0.000000000     0.113747958 -0.065672414  0.000000000
     4.395683289  7.613546790  0.000000000     0.000000000  0.131344829  0.000000000
     0.000000000  0.000000000 24.951963562     0.000000000  0.000000000  0.040077006

  length of vectors
     8.791366577  8.791366577 24.951963562     0.131344829  0.131344829  0.040077006


 
 k-points in units of 2pi/SCALE and weight: Automatic mesh                          
   0.00000000  0.00000000  0.00000000       0.016
   0.01421849 -0.00820905  0.00000000       0.031
   0.01421849  0.00820905  0.00000000       0.031
   0.00000000  0.01641810  0.00000000       0.031
   0.02843699 -0.01641810  0.00000000       0.031
   0.02843699  0.01641810  0.00000000       0.031
   0.00000000  0.03283621  0.00000000       0.031
   0.04265548 -0.02462716  0.00000000       0.031
   0.04265548  0.02462716  0.00000000       0.031
   0.00000000  0.04925431  0.00000000       0.031
   0.05687398 -0.03283621  0.00000000       0.016
   0.05687398  0.03283621  0.00000000       0.016
   0.00000000  0.06567241  0.00000000       0.016
   0.02843699 -0.00000000  0.00000000       0.031
   0.01421849  0.02462716  0.00000000       0.031
  -0.01421849  0.02462716  0.00000000       0.031
   0.04265548 -0.00820905  0.00000000       0.031
   0.02843699  0.03283621  0.00000000       0.031
  -0.01421849  0.04104526  0.00000000       0.031
   0.02843699 -0.03283621  0.00000000       0.031
  -0.01421849 -0.04104526  0.00000000       0.031
  -0.04265548 -0.00820905  0.00000000       0.031
   0.05687398 -0.01641810  0.00000000       0.031
   0.04265548  0.04104526  0.00000000       0.031
  -0.01421849  0.05746336  0.00000000       0.031
   0.04265548 -0.04104526  0.00000000       0.031
  -0.01421849  0.07388147  0.00000000       0.031
   0.05687398 -0.08209052  0.00000000       0.031
   0.05687398 -0.00000000  0.00000000       0.031
   0.02843699  0.04925431  0.00000000       0.031
  -0.02843699  0.04925431  0.00000000       0.031
  -0.04265548  0.05746336  0.00000000       0.031
   0.04265548 -0.07388147  0.00000000       0.031
  -0.02843699  0.06567241  0.00000000       0.031
 
 k-points in reciprocal lattice and weights: Automatic mesh                          
   0.00000000  0.00000000  0.00000000       0.016
   0.12500000  0.00000000  0.00000000       0.031
   0.12500000  0.12500000  0.00000000       0.031
   0.00000000  0.12500000  0.00000000       0.031
   0.25000000  0.00000000  0.00000000       0.031
   0.25000000  0.25000000  0.00000000       0.031
   0.00000000  0.25000000  0.00000000       0.031
   0.37500000  0.00000000  0.00000000       0.031
   0.37500000  0.37500000  0.00000000       0.031
   0.00000000  0.37500000  0.00000000       0.031
   0.50000000  0.00000000  0.00000000       0.016
   0.50000000  0.50000000  0.00000000       0.016
   0.00000000  0.50000000  0.00000000       0.016
   0.25000000  0.12500000  0.00000000       0.031
   0.12500000  0.25000000  0.00000000       0.031
  -0.12500000  0.12500000  0.00000000       0.031
   0.37500000  0.12500000  0.00000000       0.031
   0.25000000  0.37500000  0.00000000       0.031
  -0.12500000  0.25000000  0.00000000       0.031
   0.25000000 -0.12500000  0.00000000       0.031
  -0.12500000 -0.37500000  0.00000000       0.031
  -0.37500000 -0.25000000  0.00000000       0.031
   0.50000000  0.12500000  0.00000000       0.031
   0.37500000  0.50000000  0.00000000       0.031
  -0.12500000  0.37500000  0.00000000       0.031
   0.37500000 -0.12500000  0.00000000       0.031
  -0.12500000  0.50000000  0.00000000       0.031
   0.50000000 -0.37500000  0.00000000       0.031
   0.50000000  0.25000000  0.00000000       0.031
   0.25000000  0.50000000  0.00000000       0.031
  -0.25000000  0.25000000  0.00000000       0.031
  -0.37500000  0.25000000  0.00000000       0.031
   0.37500000 -0.37500000  0.00000000       0.031
  -0.25000000  0.37500000  0.00000000       0.031
 
 position of ions in fractional coordinates (direct lattice) 
   0.00000000  0.00000000  0.21169429
   0.33333331  0.00000000  0.21169429
   0.66666663  0.00000000  0.21169429
   0.00000000  0.33333334  0.21169429
   0.33333331  0.33333334  0.21169429
   0.66666669  0.33333334  0.21169429
   0.00000000  0.66666669  0.21169429
   0.33333331  0.66666669  0.21169429
   0.66666663  0.66666669  0.21169429
   0.11111110  0.11111111  0.30758683
   0.44444445  0.11111111  0.30758683
   0.77777779  0.11111111  0.30758683
   0.11111110  0.44444445  0.30758683
   0.44444442  0.44444445  0.30758683
   0.77777779  0.44444445  0.30758683
   0.11111110  0.77777779  0.30758683
   0.44444445  0.77777779  0.30758683
   0.77777779  0.77777779  0.30758683
   0.88889703  0.22220596  0.40310539
   0.22189450  0.22189452  0.40209485
   0.55621093  0.22189452  0.40209485
   0.88858028  0.55570989  0.40348550
   0.22189452  0.55621099  0.40209485
   0.55570989  0.55570989  0.40348550
   0.88889703  0.88889703  0.40310539
   0.22220593  0.88889703  0.40310539
   0.55570983  0.88858028  0.40348550
   0.00000000  0.00000000  0.49924573
   0.33342802  0.00272427  0.50077435
   0.66384765  0.00272427  0.50077435
   0.00272427  0.33342805  0.50077435
   0.66384771  0.33342805  0.50077435
   0.00272427  0.66384771  0.50077435
   0.33342802  0.66384771  0.50077435
   0.66666663  0.66666669  0.50009927
   0.33333331  0.33333334  0.49431104
   0.27621621  0.26487702  0.59647361
   0.45874334  0.26065696  0.59639644
   0.33554594  0.32889261  0.58482332
 
 position of ions in cartesian coordinates  (Angst):
   0.00000000  0.00000000  5.28218814
   2.93045535  0.00000000  5.28218814
   5.86091070  0.00000000  5.28218814
   1.46522781  2.53784900  5.28218814
   4.39568315  2.53784900  5.28218814
   7.32613904  2.53784900  5.28218814
   2.93045562  5.07569801  5.28218814
   5.86091096  5.07569801  5.28218814
   8.79136632  5.07569801  5.28218814
   1.46522770  0.84594965  7.67489535
   4.39568332  0.84594965  7.67489535
   7.32613893  0.84594965  7.67489535
   2.93045542  3.38379860  7.67489535
   5.86091083  3.38379860  7.67489535
   8.79136671  3.38379860  7.67489535
   4.39568328  5.92164760  7.67489535
   7.32613890  5.92164760  7.67489535
  10.25659451  5.92164760  7.67489535
   8.79136665  1.69177544 10.05827089
   2.92613395  1.68940430 10.03305614
   5.86523223  1.68940430 10.03305614
  10.25455965  4.23092325 10.06775557
   4.39568342  4.23473842 10.03305614
   7.32817403  4.23092325 10.06775557
  11.72192946  6.76765913 10.05827089
   5.86080357  6.76765913 10.05827089
   8.79136631  6.76524754 10.06775557
   0.00000000  0.00000000 12.45716136
   2.94326298  0.02074138 12.49530329
   5.84810307  0.02074138 12.49530329
   1.48959418  2.53857005 12.49530329
   7.30177266  2.53857005 12.49530329
   2.94201436  5.05423559 12.49530329
   5.84935222  5.05423559 12.49530329
   8.79136632  5.07569801 12.47845876
   4.39568315  2.53784900 12.33403106
   3.59263343  2.01665357 14.88318785
   5.17874630  1.98452398 14.88126223
   4.39561512  2.50403931 14.59249009
 


--------------------------------------------------------------------------------------------------------


 k-point   1 :   0.0000 0.0000 0.0000  plane waves:   42349
 k-point   2 :   0.1250 0.0000 0.0000  plane waves:   42346
 k-point   3 :   0.1250 0.1250 0.0000  plane waves:   42346
 k-point   4 :   0.0000 0.1250 0.0000  plane waves:   42346
 k-point   5 :   0.2500 0.0000 0.0000  plane waves:   42376
 k-point   6 :   0.2500 0.2500 0.0000  plane waves:   42376
 k-point   7 :   0.0000 0.2500 0.0000  plane waves:   42376
 k-point   8 :   0.3750 0.0000 0.0000  plane waves:   42380
 k-point   9 :   0.3750 0.3750 0.0000  plane waves:   42380
 k-point  10 :   0.0000 0.3750 0.0000  plane waves:   42380
 k-point  11 :   0.5000 0.0000 0.0000  plane waves:   42416
 k-point  12 :   0.5000 0.5000 0.0000  plane waves:   42416
 k-point  13 :   0.0000 0.5000 0.0000  plane waves:   42416
 k-point  14 :   0.2500 0.1250 0.0000  plane waves:   42390
 k-point  15 :   0.1250 0.2500 0.0000  plane waves:   42390
 k-point  16 :  -0.1250 0.1250 0.0000  plane waves:   42390
 k-point  17 :   0.3750 0.1250 0.0000  plane waves:   42414
 k-point  18 :   0.2500 0.3750 0.0000  plane waves:   42414
 k-point  19 :  -0.1250 0.2500 0.0000  plane waves:   42414
 k-point  20 :   0.2500-0.1250 0.0000  plane waves:   42414
 k-point  21 :  -0.1250-0.3750 0.0000  plane waves:   42414
 k-point  22 :  -0.3750-0.2500 0.0000  plane waves:   42414
 k-point  23 :   0.5000 0.1250 0.0000  plane waves:   42428
 k-point  24 :   0.3750 0.5000 0.0000  plane waves:   42428
 k-point  25 :  -0.1250 0.3750 0.0000  plane waves:   42428
 k-point  26 :   0.3750-0.1250 0.0000  plane waves:   42428
 k-point  27 :  -0.1250 0.5000 0.0000  plane waves:   42428
 k-point  28 :   0.5000-0.3750 0.0000  plane waves:   42428
 k-point  29 :   0.5000 0.2500 0.0000  plane waves:   42438
 k-point  30 :   0.2500 0.5000 0.0000  plane waves:   42438
 k-point  31 :  -0.2500 0.2500 0.0000  plane waves:   42438
 k-point  32 :  -0.3750 0.2500 0.0000  plane waves:   42416
 k-point  33 :   0.3750-0.3750 0.0000  plane waves:   42416
 k-point  34 :  -0.2500 0.3750 0.0000  plane waves:   42416

 maximum and minimum number of plane-waves per node :     42438    42346

 maximum number of plane-waves:     42438
 maximum index in each direction: 
   IXMAX=   16   IYMAX=   16   IZMAX=   45
   IXMIN=  -16   IYMIN=  -16   IZMIN=  -45


 serial   3D FFT for wavefunctions
 parallel 3D FFT for charge:
    minimum data exchange during FFTs selected (reduces bandwidth)


 total amount of memory used by VASP MPI-rank0   283226. kBytes
=======================================================================

   base      :      30000. kBytes
   nonlr-proj:      15974. kBytes
   fftplans  :       4808. kBytes
   grid      :      20723. kBytes
   one-center:        606. kBytes
   wavefun   :     211115. kBytes
 
     INWAV:  cpu time    0.0000: real time    0.0000
 initial charge density was supplied:
 number of electron     396.9999960 magnetization 
 keeping initial charge density in first step


--------------------------------------------------------------------------------------------------------


 Maximum index for non-local projection operator         3601
 Maximum index for augmentation-charges          704 (set IRDMAX)


--------------------------------------------------------------------------------------------------------


 First call to EWALD:  gamma=   0.149
 Maximum number of real-space cells 4x 4x 2
 Maximum number of reciprocal cells 2x 2x 5

    FEWALD:  cpu time    0.0013: real time    0.0014


--------------------------------------- Iteration      1(   1)  ---------------------------------------


    POTLOK:  cpu time    0.0471: real time    0.0476
    SETDIJ:  cpu time    0.0052: real time    0.0053
     EDDAV:  cpu time   26.7276: real time   26.7304
 BZINTS: Fermi energy:    8.856372;  397.000000 electrons
         Band energy: 0.102447E+04;  BLOECHL correction:   -0.021147
       DOS:  cpu time    0.0579: real time    0.0580
    --------------------------------------------
      LOOP:  cpu time   26.8379: real time   26.8413

 eigenvalue-minimisations  : 17136
 total energy-change (2. order) : 0.2376571E+04  (-0.1786824E+05)
 number of electron     396.9999960 magnetization 
 augmentation part      396.9999960 magnetization 

 Free energy of the ion-electron system (eV)
  ---------------------------------------------------
  alpha Z        PSCENC =       669.60973410
  Ewald energy   TEWEN  =    135274.32997636
  -Hartree energ DENC   =   -172610.51064164
  -exchange      EXHF   =         0.00000000
  -V(xc)+E(xc)   XCENC  =      -407.52272181
  PAW double counting   =     39146.23988845   -37557.45761326
  entropy T*S    EENTRO =         0.00000000
  eigenvalues    EBANDS =      1024.47148641
  atomic energy  EATOM  =     36837.41047401
  Solvation  Ediel_sol  =         0.00000000
  ---------------------------------------------------
  free energy    TOTEN  =      2376.57058261 eV

  energy without entropy =     2376.57058261  energy(sigma->0) =     2376.57058261


--------------------------------------------------------------------------------------------------------




--------------------------------------- Iteration      1(   2)  ---------------------------------------


     EDDAV:  cpu time   27.9358: real time   27.9372
 BZINTS: Fermi energy:    1.179749;  397.000000 electrons
         Band energy:-0.137063E+04;  BLOECHL correction:   -0.047455
       DOS:  cpu time    0.0558: real time    0.0558
    --------------------------------------------
      LOOP:  cpu time   27.9915: real time   27.9930

 eigenvalue-minimisations  : 18116
 total energy-change (2. order) :-0.2395106E+04  (-0.2268496E+04)
 number of electron     396.9999960 magnetization 
 augmentation part      396.9999960 magnetization 

 Free energy of the ion-electron system (eV)
  ---------------------------------------------------
  alpha Z        PSCENC =       669.60973410
  Ewald energy   TEWEN  =    135274.32997636
  -Hartree energ DENC   =   -172610.51064164
  -exchange      EXHF   =         0.00000000
  -V(xc)+E(xc)   XCENC  =      -407.52272181
  PAW double counting   =     39146.23988845   -37557.45761326
  entropy T*S    EENTRO =         0.00000000
  eigenvalues    EBANDS =     -1370.63453522
  atomic energy  EATOM  =     36837.41047401
  Solvation  Ediel_sol  =         0.00000000
  ---------------------------------------------------
  free energy    TOTEN  =       -18.53543902 eV

  energy without entropy =      -18.53543902  energy(sigma->0) =      -18.53543902


--------------------------------------------------------------------------------------------------------




--------------------------------------- Iteration      1(   3)  ---------------------------------------


     EDDAV:  cpu time   30.4803: real time   30.4819
 BZINTS: Fermi energy:    0.667775;  397.000000 electrons
         Band energy:-0.146352E+04;  BLOECHL correction:   -0.034143
       DOS:  cpu time    0.0562: real time    0.0562
    --------------------------------------------
      LOOP:  cpu time   30.5365: real time   30.5381

 eigenvalue-minimisations  : 20132
 total energy-change (2. order) :-0.9288823E+02  (-0.9099616E+02)
 number of electron     396.9999960 magnetization 
 augmentation part      396.9999960 magnetization 

 Free energy of the ion-electron system (eV)
  ---------------------------------------------------
  alpha Z        PSCENC =       669.60973410
  Ewald energy   TEWEN  =    135274.32997636
  -Hartree energ DENC   =   -172610.51064164
  -exchange      EXHF   =         0.00000000
  -V(xc)+E(xc)   XCENC  =      -407.52272181
  PAW double counting   =     39146.23988845   -37557.45761326
  entropy T*S    EENTRO =         0.00000000
  eigenvalues    EBANDS =     -1463.52276697
  atomic energy  EATOM  =     36837.41047401
  Solvation  Ediel_sol  =         0.00000000
  ---------------------------------------------------
  free energy    TOTEN  =      -111.42367077 eV

  energy without entropy =     -111.42367077  energy(sigma->0) =     -111.42367077


--------------------------------------------------------------------------------------------------------




--------------------------------------- Iteration      1(   4)  ---------------------------------------


     EDDAV:  cpu time   28.8360: real time   28.8374
 BZINTS: Fermi energy:    0.652027;  397.000000 electrons
         Band energy:-0.146509E+04;  BLOECHL correction:   -0.030711
       DOS:  cpu time    0.0603: real time    0.0603
    --------------------------------------------
      LOOP:  cpu time   28.8963: real time   28.8977

 eigenvalue-minimisations  : 18816
 total energy-change (2. order) :-0.1564660E+01  (-0.1561773E+01)
 number of electron     396.9999960 magnetization 
 augmentation part      396.9999960 magnetization 

 Free energy of the ion-electron system (eV)
  ---------------------------------------------------
  alpha Z        PSCENC =       669.60973410
  Ewald energy   TEWEN  =    135274.32997636
  -Hartree energ DENC   =   -172610.51064164
  -exchange      EXHF   =         0.00000000
  -V(xc)+E(xc)   XCENC  =      -407.52272181
  PAW double counting   =     39146.23988845   -37557.45761326
  entropy T*S    EENTRO =         0.00000000
  eigenvalues    EBANDS =     -1465.08742650
  atomic energy  EATOM  =     36837.41047401
  Solvation  Ediel_sol  =         0.00000000
  ---------------------------------------------------
  free energy    TOTEN  =      -112.98833030 eV

  energy without entropy =     -112.98833030  energy(sigma->0) =     -112.98833030


--------------------------------------------------------------------------------------------------------




--------------------------------------- Iteration      1(   5)  ---------------------------------------


     EDDAV:  cpu time   31.5156: real time   31.5204
 BZINTS: Fermi energy:    0.651750;  397.000000 electrons
         Band energy:-0.146513E+04;  BLOECHL correction:   -0.030639
       DOS:  cpu time    0.0590: real time    0.0590
    --------------------------------------------
      LOOP:  cpu time   31.5746: real time   31.5794

 eigenvalue-minimisations  : 20972
 total energy-change (2. order) :-0.3869717E-01  (-0.3874603E-01)
 number of electron     396.9999960 magnetization 
 augmentation part      396.9999960 magnetization 

 Free energy of the ion-electron system (eV)
  ---------------------------------------------------
  alpha Z        PSCENC =       669.60973410
  Ewald energy   TEWEN  =    135274.32997636
  -Hartree energ DENC   =   -172610.51064164
  -exchange      EXHF   =         0.00000000
  -V(xc)+E(xc)   XCENC  =      -407.52272181
  PAW double counting   =     39146.23988845   -37557.45761326
  entropy T*S    EENTRO =         0.00000000
  eigenvalues    EBANDS =     -1465.12612367
  atomic energy  EATOM  =     36837.41047401
  Solvation  Ediel_sol  =         0.00000000
  ---------------------------------------------------
  free energy    TOTEN  =      -113.02702747 eV

  energy without entropy =     -113.02702747  energy(sigma->0) =     -113.02702747


--------------------------------------------------------------------------------------------------------




--------------------------------------- Iteration      1(   6)  ---------------------------------------


    EDDIAG:  cpu time    5.2385: real time    5.2391
  RMM-DIIS:  cpu time   15.2918: real time   15.2925
    ORTHCH:  cpu time    0.9808: real time    0.9809
 BZINTS: Fermi energy:    0.651748;  397.000000 electrons
         Band energy:-0.146513E+04;  BLOECHL correction:   -0.030639
       DOS:  cpu time    0.0602: real time    0.0602
    --------------------------------------------
      LOOP:  cpu time   21.5713: real time   21.5727

 eigenvalue-minimisations  : 17478
 total energy-change (2. order) :-0.9753501E-03  (-0.9753135E-03)
 number of electron     396.9999960 magnetization 
 augmentation part      396.9999960 magnetization 

 Free energy of the ion-electron system (eV)
  ---------------------------------------------------
  alpha Z        PSCENC =       669.60973410
  Ewald energy   TEWEN  =    135274.32997636
  -Hartree energ DENC   =   -172610.51064164
  -exchange      EXHF   =         0.00000000
  -V(xc)+E(xc)   XCENC  =      -407.52272181
  PAW double counting   =     39146.23988845   -37557.45761326
  entropy T*S    EENTRO =         0.00000000
  eigenvalues    EBANDS =     -1465.12709902
  atomic energy  EATOM  =     36837.41047401
  Solvation  Ediel_sol  =         0.00000000
  ---------------------------------------------------
  free energy    TOTEN  =      -113.02800282 eV

  energy without entropy =     -113.02800282  energy(sigma->0) =     -113.02800282


--------------------------------------------------------------------------------------------------------




--------------------------------------- Iteration      1(   7)  ---------------------------------------


    EDDIAG:  cpu time    5.2387: real time    5.2390
  RMM-DIIS:  cpu time   21.7521: real time   21.7530
    ORTHCH:  cpu time    0.9799: real time    0.9800
 BZINTS: Fermi energy:    0.651748;  397.000000 electrons
         Band energy:-0.146513E+04;  BLOECHL correction:   -0.030639
       DOS:  cpu time    0.0565: real time    0.0565
    --------------------------------------------
      LOOP:  cpu time   28.0271: real time   28.0285

 eigenvalue-minimisations  : 25021
 total energy-change (2. order) :-0.3585664E-03  (-0.3578592E-03)
 number of electron     396.9999960 magnetization 
 augmentation part      396.9999960 magnetization 

 Free energy of the ion-electron system (eV)
  ---------------------------------------------------
  alpha Z        PSCENC =       669.60973410
  Ewald energy   TEWEN  =    135274.32997636
  -Hartree energ DENC   =   -172610.51064164
  -exchange      EXHF   =         0.00000000
  -V(xc)+E(xc)   XCENC  =      -407.52272181
  PAW double counting   =     39146.23988845   -37557.45761326
  entropy T*S    EENTRO =         0.00000000
  eigenvalues    EBANDS =     -1465.12745759
  atomic energy  EATOM  =     36837.41047401
  Solvation  Ediel_sol  =         0.00000000
  ---------------------------------------------------
  free energy    TOTEN  =      -113.02836139 eV

  energy without entropy =     -113.02836139  energy(sigma->0) =     -113.02836139


--------------------------------------------------------------------------------------------------------




--------------------------------------- Iteration      1(   8)  ---------------------------------------


    EDDIAG:  cpu time    5.2372: real time    5.2376
  RMM-DIIS:  cpu time   16.4076: real time   16.4083
    ORTHCH:  cpu time    0.9810: real time    0.9810
 BZINTS: Fermi energy:    0.651748;  397.000000 electrons
         Band energy:-0.146513E+04;  BLOECHL correction:   -0.030639
       DOS:  cpu time    0.0602: real time    0.0603
    --------------------------------------------
      LOOP:  cpu time   22.6860: real time   22.6871

 eigenvalue-minimisations  : 18197
 total energy-change (2. order) :-0.1959375E-04  (-0.1988356E-04)
 number of electron     396.9999960 magnetization 
 augmentation part      396.9999960 magnetization 

 Free energy of the ion-electron system (eV)
  ---------------------------------------------------
  alpha Z        PSCENC =       669.60973410
  Ewald energy   TEWEN  =    135274.32997636
  -Hartree energ DENC   =   -172610.51064164
  -exchange      EXHF   =         0.00000000
  -V(xc)+E(xc)   XCENC  =      -407.52272181
  PAW double counting   =     39146.23988845   -37557.45761326
  entropy T*S    EENTRO =         0.00000000
  eigenvalues    EBANDS =     -1465.12747718
  atomic energy  EATOM  =     36837.41047401
  Solvation  Ediel_sol  =         0.00000000
  ---------------------------------------------------
  free energy    TOTEN  =      -113.02838098 eV

  energy without entropy =     -113.02838098  energy(sigma->0) =     -113.02838098


--------------------------------------------------------------------------------------------------------




--------------------------------------- Iteration      1(   9)  ---------------------------------------


    EDDIAG:  cpu time    5.2383: real time    5.2388
  RMM-DIIS:  cpu time   13.0645: real time   13.0650
    ORTHCH:  cpu time    0.9797: real time    0.9798
 BZINTS: Fermi energy:    0.651748;  397.000000 electrons
         Band energy:-0.146513E+04;  BLOECHL correction:   -0.030639
       DOS:  cpu time    0.0602: real time    0.0602
    --------------------------------------------
      LOOP:  cpu time   19.3427: real time   19.3438

 eigenvalue-minimisations  : 12330
 total energy-change (2. order) :-0.3338035E-05  (-0.3414855E-05)
 number of electron     396.9999960 magnetization 
 augmentation part      396.9999960 magnetization 

 Free energy of the ion-electron system (eV)
  ---------------------------------------------------
  alpha Z        PSCENC =       669.60973410
  Ewald energy   TEWEN  =    135274.32997636
  -Hartree energ DENC   =   -172610.51064164
  -exchange      EXHF   =         0.00000000
  -V(xc)+E(xc)   XCENC  =      -407.52272181
  PAW double counting   =     39146.23988845   -37557.45761326
  entropy T*S    EENTRO =         0.00000000
  eigenvalues    EBANDS =     -1465.12748052
  atomic energy  EATOM  =     36837.41047401
  Solvation  Ediel_sol  =         0.00000000
  ---------------------------------------------------
  free energy    TOTEN  =      -113.02838432 eV

  energy without entropy =     -113.02838432  energy(sigma->0) =     -113.02838432


--------------------------------------------------------------------------------------------------------




 average (electrostatic) potential at core
  the test charge radii are     1.1249  1.2481  0.5201  0.7215
  (the norm of the test charge is              1.0000)
       1 -78.2772       2 -78.2746       3 -78.2746       4 -78.2737       5 -78.2697
       6 -78.2736       7 -78.2792       8 -78.2793       9 -78.2761      10 -78.5152
      11 -78.4944      12 -78.5151      13 -78.4973      14 -78.4973      15 -78.4840
      16 -78.5194      17 -78.4897      18 -78.4894      19 -78.5081      20 -78.7944
      21 -78.7942      22 -78.4731      23 -78.8017      24 -78.4733      25 -78.5086
      26 -78.5085      27 -78.4775      28 -78.3087      29 -78.5471      30 -78.5480
      31 -78.5352      32 -78.5341      33 -78.5164      34 -78.5163      35 -78.2794
      36 -42.1772      37 -41.8086      38 -41.8091      39 -78.4368
 
 
 
 E-fermi :   0.6517     XC(G=0):  -5.3836     alpha+bet : -5.0525

 Fermi energy:         0.6517477037

 k-point     1 :       0.0000    0.0000    0.0000
  band No.  band energies     occupation 
      1     -22.9644      2.00000
      2     -10.7676      2.00000
      3      -7.6496      2.00000
      4      -6.5603      2.00000
      5      -5.8266      2.00000
      6      -5.5907      2.00000
      7      -5.4507      2.00000
      8      -5.2958      2.00000
      9      -5.2888      2.00000
     10      -5.2859      2.00000
     11      -5.2679      2.00000
     12      -5.2586      2.00000
     13      -5.2567      2.00000
     14      -5.2411      2.00000
     15      -5.2344      2.00000
     16      -5.2171      2.00000
     17      -5.2166      2.00000
     18      -5.2079      2.00000
     19      -5.1981      2.00000
     20      -5.1972      2.00000
     21      -5.0847      2.00000
     22      -5.0830      2.00000
     23      -5.0707      2.00000
     24      -5.0502      2.00000
     25      -5.0336      2.00000
     26      -5.0330      2.00000
     27      -4.9485      2.00000
     28      -4.9310      2.00000
     29      -4.8810      2.00000
     30      -4.8809      2.00000
     31      -4.8784      2.00000
     32      -4.8767      2.00000
     33      -4.8407      2.00000
     34      -4.8153      2.00000
     35      -4.8141      2.00000
     36      -4.8137      2.00000
     37      -4.7929      2.00000
     38      -4.7920      2.00000
     39      -4.7644      2.00000
     40      -4.7367      2.00000
     41      -4.7276      2.00000
     42      -4.7267      2.00000
     43      -4.7099      2.00000
     44      -4.7093      2.00000
     45      -4.5095      2.00000
     46      -4.5001      2.00000
     47      -4.5000      2.00000
     48      -4.4795      2.00000
     49      -4.4706      2.00000
     50      -4.4690      2.00000
     51      -4.4624      2.00000
     52      -4.4600      2.00000
     53      -4.4485      2.00000
     54      -4.4477      2.00000
     55      -4.3088      2.00000
     56      -4.3075      2.00000
     57      -4.2716      2.00000
     58      -4.2702      2.00000
     59      -4.1680      2.00000
     60      -4.1461      2.00000
     61      -4.1455      2.00000
     62      -4.1069      2.00000
     63      -4.1017      2.00000
     64      -4.1002      2.00000
     65      -4.0845      2.00000
     66      -4.0649      2.00000
     67      -4.0646      2.00000
     68      -4.0152      2.00000
     69      -4.0146      2.00000
     70      -3.9542      2.00000
     71      -3.9534      2.00000
     72      -3.9393      2.00000
     73      -3.9391      2.00000
     74      -3.9358      2.00000
     75      -3.9337      2.00000
     76      -3.9329      2.00000
     77      -3.9287      2.00000
     78      -3.9088      2.00000
     79      -3.9077      2.00000
     80      -3.9019      2.00000
     81      -3.8891      2.00000
     82      -3.8805      2.00000
     83      -3.8796      2.00000
     84      -3.8614      2.00000
     85      -3.8592      2.00000
     86      -3.8013      2.00000
     87      -3.8001      2.00000
     88      -3.7869      2.00000
     89      -3.7538      2.00000
     90      -3.7436      2.00000
     91      -3.7275      2.00000
     92      -3.7273      2.00000
     93      -3.7152      2.00000
     94      -3.7151      2.00000
     95      -3.7090      2.00000
     96      -3.6795      2.00000
     97      -3.6649      2.00000
     98      -3.6154      2.00000
     99      -3.5813      2.00000
    100      -3.5812      2.00000
    101      -3.5639      2.00000
    102      -3.5633      2.00000
    103      -3.4570      2.00000
[...]
  0.000   0.000   0.000   0.000   0.000   0.000   0.000   0.000   0.000   0.000   1.000   0.000   0.000   0.000   0.000   0.000
  0.000   0.000   0.000   0.000   0.000   0.000   0.000   0.000   0.000   0.000   0.000   0.000   0.000   0.000   0.000   0.000
  0.000   0.000   0.000   0.000   0.000   0.000   0.000   0.000   0.000   0.000   0.000   0.000   0.000   0.000   0.000   0.000
  0.000   0.000   0.000   0.000   0.000   0.000   0.000   0.000   0.000   0.000   0.000   0.000   0.000   0.000   0.000   0.000
  0.000   0.000   0.000   0.000   0.000   0.000   0.000   0.000   0.000   0.000   0.000   0.000   0.000   0.000   0.000   0.000
  0.000   0.000   0.000   0.000   0.000   0.000   0.000   0.000   0.000   0.000   0.000   0.000   0.000   0.000   0.000   0.000
  0.000   0.000   0.000   0.000   0.000   0.000   0.000   0.000   0.000   0.000   0.000   0.000   0.000   0.000   0.000   0.000
  0.000   0.000   0.000   0.000   0.000   0.000   0.000   0.000   0.000   0.000   0.000   0.000   0.000   0.000   0.000   0.000


------------------------ aborting loop because EDIFF is reached ----------------------------------------





 total charge

# of ion       s       p       d       tot
------------------------------------------
    1        0.424   0.200   9.178   9.802
    2        0.416   0.204   9.177   9.797
    3        0.416   0.204   9.177   9.797
    4        0.416   0.204   9.178   9.797
    5        0.417   0.203   9.177   9.796
    6        0.416   0.204   9.178   9.797
    7        0.416   0.204   9.178   9.797
    8        0.415   0.204   9.178   9.797
    9        0.418   0.203   9.176   9.797
   10        0.412   0.269   9.163   9.844
   11        0.406   0.268   9.168   9.842
   12        0.412   0.269   9.163   9.844
   13        0.404   0.269   9.168   9.841
   14        0.404   0.269   9.168   9.841
   15        0.404   0.268   9.165   9.837
   16        0.411   0.270   9.163   9.843
   17        0.403   0.268   9.165   9.836
   18        0.403   0.268   9.165   9.836
   19        0.405   0.266   9.164   9.834
   20        0.446   0.301   9.128   9.875
   21        0.446   0.301   9.128   9.875
   22        0.396   0.272   9.164   9.831
   23        0.443   0.303   9.128   9.874
   24        0.395   0.272   9.164   9.831
   25        0.404   0.266   9.165   9.834
   26        0.404   0.266   9.165   9.834
   27        0.396   0.272   9.163   9.831
   28        0.409   0.209   9.168   9.786
   29        0.456   0.231   9.137   9.825
   30        0.457   0.232   9.137   9.825
   31        0.457   0.231   9.137   9.826
   32        0.457   0.231   9.137   9.825
   33        0.454   0.225   9.142   9.821
   34        0.454   0.225   9.143   9.821
   35        0.405   0.210   9.170   9.785
   36        0.573   0.470   1.759   2.802
   37        0.592   0.116   0.000   0.708
   38        0.592   0.116   0.000   0.708
   39        1.566   3.632   0.000   5.197
--------------------------------------------------
tot         18.018  12.894 322.381 353.293
 
    CHARGE:  cpu time    1.2083: real time    1.2085
    FORLOC:  cpu time    0.0124: real time    0.0124
    FORNL :  cpu time    5.4552: real time    5.4556
    STRESS:  cpu time   16.3890: real time   16.3899
    FORCOR:  cpu time    0.0618: real time    0.0620
    FORHAR:  cpu time    0.0197: real time    0.0197
    OFIELD:  cpu time    0.0003: real time    0.0003

  FORCE on cell =-STRESS in cart. coord.  units (eV):
  Direction    XX          YY          ZZ          XY          YZ          ZX
  --------------------------------------------------------------------------------------
  Alpha Z   669.60973   669.60973   669.60973
  Ewald  157730.44815157656.39227************    -1.57150   -13.08349    -0.45179
  Hartree167657.42145167644.25521************    -0.28754     7.75035     0.06569
  E(xc)   -2080.55844 -2080.78086 -2086.31017    -0.00490    -0.03675    -0.00089
  Local  ************************336332.03132     1.42269    -2.98091     0.18948
  n-local  -333.60619  -334.22964  -336.04958    -0.00265    -0.22571     0.00095
  augment  3225.03089  3226.40195  3239.77058     0.02827     0.49323     0.01085
  Kinetic  4931.71062  4951.96236  4982.60739     0.41934     7.93136     0.18575
  Fock        0.00000     0.00000     0.00000     0.00000     0.00000     0.00000
  -------------------------------------------------------------------------------------
  Total      -7.91402    -7.99039    -0.14705     0.00371    -0.15192     0.00004
  in kB      -7.59206    -7.66532    -0.14107     0.00356    -0.14574     0.00004
  external pressure =       -5.13 kB  Pullay stress =        0.00 kB


 VOLUME and BASIS-vectors are now :
 -----------------------------------------------------------------------------
  energy-cutoff  :      500.00
  volume of cell :     1670.12
      direct lattice vectors                 reciprocal lattice vectors
     8.791366577  0.000000000  0.000000000     0.113747958 -0.065672414  0.000000000
     4.395683289  7.613546790  0.000000000     0.000000000  0.131344829  0.000000000
     0.000000000  0.000000000 24.951963562     0.000000000  0.000000000  0.040077006

  length of vectors
     8.791366577  8.791366577 24.951963562     0.131344829  0.131344829  0.040077006


 FORCES acting on ions
    electron-ion (+dipol)            ewald-force                    non-local-force                 convergence-correction
 -----------------------------------------------------------------------------------------------
   0.148E-03 0.810E-02 0.270E+04   -.143E-03 -.976E-02 -.270E+04   0.424E-03 -.683E-02 -.178E+01   -.478E-03 0.131E-01 -.727E-01
   -.426E+00 -.254E+00 0.270E+04   0.309E+00 0.945E-01 -.270E+04   -.632E-02 0.125E+00 -.161E+01   0.127E+00 0.321E-01 0.723E-01
   0.426E+00 -.268E+00 0.270E+04   -.308E+00 0.947E-01 -.270E+04   0.649E-02 0.127E+00 -.161E+01   -.128E+00 0.437E-01 0.743E-01
   -.467E+00 -.279E+00 0.270E+04   0.245E+00 0.232E+00 -.270E+04   0.127E+00 -.514E-01 -.163E+01   0.892E-01 0.981E-01 0.301E-01
   -.152E-01 0.104E-01 0.270E+04   0.342E-03 0.169E-01 -.269E+04   -.151E-02 -.886E-02 -.141E+01   0.163E-01 -.213E-01 0.888E-01
   0.478E+00 -.282E+00 0.270E+04   -.245E+00 0.232E+00 -.270E+04   -.128E+00 -.525E-01 -.163E+01   -.984E-01 0.102E+00 0.335E-01
   0.360E-01 0.512E+00 0.270E+04   -.638E-01 -.326E+00 -.270E+04   0.884E-01 -.624E-01 -.169E+01   -.642E-01 -.121E+00 0.511E-01
   -.451E-01 0.515E+00 0.270E+04   0.639E-01 -.327E+00 -.270E+04   -.886E-01 -.613E-01 -.169E+01   0.731E-01 -.126E+00 0.518E-01
   0.145E-01 0.499E-01 0.270E+04   -.114E-03 -.691E-02 -.270E+04   0.216E-02 -.179E-01 -.163E+01   -.166E-01 -.241E-01 0.112E+00
   -.102E+01 -.572E+00 0.898E+03   0.113E+01 0.662E+00 -.897E+03   -.290E+00 -.181E+00 -.679E+00   0.156E+00 0.776E-01 0.108E+00
   -.122E-01 -.139E+01 0.891E+03   0.963E-03 0.128E+01 -.891E+03   -.146E-02 0.501E-01 -.280E+00   0.129E-01 0.674E-03 0.532E-01
   0.103E+01 -.579E+00 0.898E+03   -.113E+01 0.663E+00 -.897E+03   0.289E+00 -.180E+00 -.679E+00   -.161E+00 0.823E-01 0.103E+00
   -.125E+01 0.654E+00 0.891E+03   0.110E+01 -.535E+00 -.891E+03   0.565E-01 -.457E-01 -.276E+00   0.398E-01 -.414E-01 0.589E-01
   0.123E+01 0.656E+00 0.891E+03   -.110E+01 -.535E+00 -.891E+03   -.606E-01 -.450E-01 -.278E+00   -.196E-01 -.435E-01 0.498E-01
   0.894E-02 -.132E+01 0.896E+03   -.194E-02 0.108E+01 -.895E+03   -.264E-03 0.740E-01 -.686E+00   -.677E-02 0.158E+00 0.399E-01
   -.442E-02 0.123E+01 0.898E+03   0.901E-03 -.142E+01 -.897E+03   0.153E-02 0.354E+00 -.723E+00   0.188E-02 -.144E+00 0.112E+00
   -.106E+01 0.664E+00 0.896E+03   0.849E+00 -.598E+00 -.895E+03   0.366E-01 -.190E-01 -.694E+00   0.160E+00 -.435E-01 0.397E-01
   0.106E+01 0.655E+00 0.896E+03   -.850E+00 -.597E+00 -.895E+03   -.380E-01 -.189E-01 -.694E+00   -.162E+00 -.365E-01 0.434E-01
   0.582E-02 -.674E+01 -.909E+03   -.994E-02 0.668E+01 0.908E+03   -.716E-03 0.277E-01 0.652E+00   0.477E-02 0.232E-01 0.358E+00
   -.376E+02 -.222E+02 -.940E+03   0.385E+02 0.228E+02 0.941E+03   -.966E+00 -.605E+00 -.763E+00   0.236E-02 -.583E-01 0.138E+00
   0.376E+02 -.222E+02 -.940E+03   -.385E+02 0.228E+02 0.941E+03   0.973E+00 -.603E+00 -.764E+00   -.213E-01 -.577E-01 0.132E+00
   -.168E+02 0.940E+01 -.916E+03   0.167E+02 -.943E+01 0.916E+03   0.121E+00 -.369E-01 0.455E+00   -.479E-01 0.454E-01 0.158E+00
   -.772E-02 0.431E+02 -.942E+03   0.126E-01 -.443E+02 0.942E+03   0.364E-02 0.116E+01 -.610E+00   -.891E-02 0.307E-01 0.129E+00
   0.168E+02 0.941E+01 -.916E+03   -.168E+02 -.943E+01 0.916E+03   -.122E+00 -.378E-01 0.460E+00   0.512E-01 0.489E-01 0.158E+00
   0.536E+01 0.392E+01 -.909E+03   -.531E+01 -.385E+01 0.908E+03   0.244E-02 -.487E-01 0.757E+00   -.397E-01 -.141E-01 0.355E+00
   -.537E+01 0.393E+01 -.909E+03   0.531E+01 -.386E+01 0.908E+03   -.132E-02 -.483E-01 0.761E+00   0.423E-01 -.977E-02 0.357E+00
   0.601E-02 -.186E+02 -.915E+03   -.215E-02 0.185E+02 0.915E+03   -.108E-02 0.137E+00 0.426E+00   -.262E-02 -.192E-01 0.155E+00
   0.462E-02 0.215E+01 -.263E+04   -.838E-02 -.218E+01 0.263E+04   -.553E-03 0.542E-01 0.137E+01   0.422E-02 -.164E-01 0.324E-01
   -.140E+02 -.298E+02 -.262E+04   0.150E+02 0.312E+02 0.262E+04   -.961E+00 -.138E+01 0.481E+00   -.482E-01 -.953E-01 0.111E+00
   0.140E+02 -.299E+02 -.262E+04   -.150E+02 0.313E+02 0.262E+04   0.965E+00 -.139E+01 0.461E+00   0.433E-01 -.916E-01 0.110E+00
   -.363E+02 -.481E+00 -.262E+04   0.381E+02 0.704E+00 0.262E+04   -.179E+01 -.182E+00 0.364E+00   -.100E+00 -.411E-01 0.854E-01
   0.365E+02 -.530E+00 -.262E+04   -.383E+02 0.743E+00 0.262E+04   0.178E+01 -.181E+00 0.380E+00   0.101E+00 -.343E-01 0.896E-01
   -.238E+02 0.333E+02 -.263E+04   0.244E+02 -.348E+02 0.263E+04   -.617E+00 0.149E+01 0.882E+00   -.408E-01 0.136E+00 0.111E+00
   0.238E+02 0.334E+02 -.263E+04   -.243E+02 -.349E+02 0.263E+04   0.615E+00 0.148E+01 0.896E+00   0.485E-01 0.139E+00 0.115E+00
   0.554E-01 0.136E+01 -.264E+04   -.454E-01 -.140E+01 0.264E+04   0.470E-02 -.106E-01 0.160E+01   -.148E-01 0.446E-01 0.306E-01
   -.503E-01 -.365E+01 -.871E+03   0.484E-01 0.360E+01 0.871E+03   0.293E-02 0.978E-01 0.156E+01   -.157E-03 -.120E-01 0.436E-01
   0.677E+02 0.377E+02 -.286E+03   -.744E+02 -.416E+02 0.288E+03   0.678E+01 0.385E+01 -.236E+01   0.161E-02 -.175E-02 -.147E-02
   -.661E+02 0.404E+02 -.286E+03   0.728E+02 -.445E+02 0.288E+03   -.662E+01 0.412E+01 -.235E+01   -.156E-02 -.166E-02 -.140E-02
   -.100E+01 -.532E+02 -.157E+04   0.176E+01 0.919E+02 0.156E+04   -.758E+00 -.387E+02 0.110E+02   -.221E-02 -.190E-01 0.241E-01
 -----------------------------------------------------------------------------------------------
   0.615E+00 0.308E+02 0.135E+00   -.144E-13 0.398E-12 -.273E-11   -.598E+00 -.308E+02 -.400E+01   -.992E-02 0.287E-02 0.374E+01
 
 
 POSITION                                       TOTAL-FORCE (eV/Angst)
 -----------------------------------------------------------------------------------
      0.00000      0.00000      5.28219        -0.000225      0.003180     -0.017878
      2.93046      0.00000      5.28219         0.003932     -0.004042      0.028921
      5.86091      0.00000      5.28219        -0.004255     -0.004417      0.028881
      1.46523      2.53785      5.28219        -0.005975     -0.001848      0.033764
      4.39568      2.53785      5.28219        -0.000176     -0.004274      0.038008
      7.32614      2.53785      5.28219         0.005794     -0.001806      0.033903
      2.93046      5.07570      5.28219        -0.003716      0.000366      0.035903
      5.86091      5.07570      5.28219         0.003152      0.000280      0.035901
      8.79137      5.07570      5.28219        -0.000226     -0.000356      0.002301
      1.46523      0.84595      7.67490        -0.026439     -0.014671     -0.066615
      4.39568      0.84595      7.67490        -0.000033     -0.063367     -0.077330
      7.32614      0.84595      7.67490         0.026139     -0.014774     -0.066535
      2.93046      3.38380      7.67490        -0.049182      0.031023     -0.074673
      5.86091      3.38380      7.67490         0.049295      0.031105     -0.074559
      8.79137      3.38380      7.67490        -0.000218     -0.007952      0.026244
      4.39568      5.92165      7.67490        -0.000279      0.024658     -0.069205
      7.32614      5.92165      7.67490        -0.009967      0.001370      0.032683
     10.25659      5.92165      7.67490         0.009676      0.001342      0.032406
      8.79137      1.69178     10.05827        -0.000245     -0.010299     -0.011474
      2.92613      1.68940     10.03306        -0.030888     -0.015492     -0.054397
      5.86523      1.68940     10.03306         0.030263     -0.015737     -0.054973
     10.25456      4.23092     10.06776         0.014532     -0.014992      0.011109
      4.39568      4.23474     10.03306        -0.000597      0.036193     -0.032858
      7.32817      4.23092     10.06776        -0.014952     -0.015450      0.011948
     11.72193      6.76766     10.05827         0.010630      0.009234     -0.007932
      5.86080      6.76766     10.05827        -0.011207      0.009481     -0.007864
      8.79137      6.76525     10.06776        -0.000014      0.018840      0.006956
      0.00000      0.00000     12.45716        -0.000272      0.000839      0.014212
      2.94326      0.02074     12.49530        -0.051580     -0.076675     -0.081055
      5.84810      0.02074     12.49530         0.051168     -0.075384     -0.079773
      1.48959      2.53857     12.49530        -0.063411     -0.001935     -0.064536
      7.30177      2.53857     12.49530         0.063688     -0.003337     -0.065496
      2.94201      5.05424     12.49530        -0.071057      0.069825     -0.102737
      5.84935      5.05424     12.49530         0.070686      0.071457     -0.104442
      8.79137      5.07570     12.47846        -0.000244     -0.003182      0.031537
      4.39568      2.53785     12.33403         0.000630      0.035951      0.716934
      3.59263      2.01665     14.88319        -0.001685     -0.002884      0.000390
      5.17875      1.98452     14.88126         0.006963     -0.006456      0.004071
      4.39562      2.50404     14.59249         0.000294      0.014189     -0.011739
 -----------------------------------------------------------------------------------
    total drift:                                0.006907      0.054344     -0.129124


--------------------------------------------------------------------------------------------------------



  FREE ENERGIE OF THE ION-ELECTRON SYSTEM (eV)
  ---------------------------------------------------
  free  energy   TOTEN  =      -113.02838432 eV

  energy  without entropy=     -113.02838432  energy(sigma->0) =     -113.02838432
 


--------------------------------------------------------------------------------------------------------


    POTLOK:  cpu time    0.0474: real time    0.0474


--------------------------------------------------------------------------------------------------------


 stress matrix after NEB project (eV)
     -7.91402      0.00371      0.00004
      0.00371     -7.99039     -0.15192
      0.00004     -0.15192     -0.14705
  FORCES: max atom, RMS     0.018418    0.003424
  FORCE total and by dimension    0.021384    0.014189
  Stress total and by dimension   11.249259    7.990389
     LOOP+:  cpu time  260.7758: real time  260.7993
 -----------------------------------------------------------------------------
|                                                                             |
|           W    W    AA    RRRRR   N    N  II  N    N   GGGG   !!!           |
|           W    W   A  A   R    R  NN   N  II  NN   N  G    G  !!!           |
|           W    W  A    A  R    R  N N  N  II  N N  N  G       !!!           |
|           W WW W  AAAAAA  RRRRR   N  N N  II  N  N N  G  GGG   !            |
|           WW  WW  A    A  R   R   N   NN  II  N   NN  G    G                |
|           W    W  A    A  R    R  N    N  II  N    N   GGGG   !!!           |
|                                                                             |
|     Tetrahedron method does not include variations of the Fermi             |
|     occupations, so forces and stress will be inaccurate. We suggest        |
|     using a different smearing scheme ISMEAR = 1 or 2 for metals in         |
|     relaxations.                                                            |
|                                                                             |
 -----------------------------------------------------------------------------

    4ORBIT:  cpu time    0.0000: real time    0.0000



 total charge

# of ion       s       p       d       tot
------------------------------------------
    1        0.424   0.200   9.178   9.802
    2        0.416   0.204   9.177   9.797
    3        0.416   0.204   9.177   9.797
    4        0.416   0.204   9.178   9.797
    5        0.417   0.203   9.177   9.796
    6        0.416   0.204   9.178   9.797
    7        0.416   0.204   9.178   9.797
    8        0.415   0.204   9.178   9.797
    9        0.418   0.203   9.176   9.797
   10        0.412   0.269   9.163   9.844
   11        0.406   0.268   9.168   9.842
   12        0.412   0.269   9.163   9.844
   13        0.404   0.269   9.168   9.841
   14        0.404   0.269   9.168   9.841
   15        0.404   0.268   9.165   9.837
   16        0.411   0.270   9.163   9.843
   17        0.403   0.268   9.165   9.836
   18        0.403   0.268   9.165   9.836
   19        0.405   0.266   9.164   9.834
   20        0.446   0.301   9.128   9.875
   21        0.446   0.301   9.128   9.875
   22        0.396   0.272   9.164   9.831
   23        0.443   0.303   9.128   9.874
   24        0.395   0.272   9.164   9.831
   25        0.404   0.266   9.165   9.834
   26        0.404   0.266   9.165   9.834
   27        0.396   0.272   9.163   9.831
   28        0.409   0.209   9.168   9.786
   29        0.456   0.231   9.137   9.825
   30        0.457   0.232   9.137   9.825
   31        0.457   0.231   9.137   9.826
   32        0.457   0.231   9.137   9.825
   33        0.454   0.225   9.142   9.821
   34        0.454   0.225   9.143   9.821
   35        0.405   0.210   9.170   9.785
   36        0.573   0.470   1.759   2.802
   37        0.592   0.116   0.000   0.708
   38        0.592   0.116   0.000   0.708
   39        1.566   3.632   0.000   5.197
--------------------------------------------------
tot         18.018  12.894 322.381 353.293
 
 BZINTS: Fermi energy:    0.651748;  397.000000 electrons
         Band energy:-0.146513E+04;  BLOECHL correction:   -0.030639

 total amount of memory used by VASP MPI-rank0   283226. kBytes
=======================================================================

   base      :      30000. kBytes
   nonlr-proj:      15974. kBytes
   fftplans  :       4808. kBytes
   grid      :      20723. kBytes
   one-center:        606. kBytes
   wavefun   :     211115. kBytes
 
  
  
 General timing and accounting informations for this job:
 ========================================================
  
                  Total CPU time used (sec):      284.246
                            User time (sec):      274.061
                          System time (sec):       10.185
                         Elapsed time (sec):      284.796
  
                   Maximum memory used (kb):      586704.
                   Average memory used (kb):          N/A
  
                          Minor page faults:       120195
                          Major page faults:            0
                 Voluntary context switches:         7191
