 vasp.6.2.0 18Jan21 (build Jun 12 2021 23:27:24) complex                        
  
 executed on             LinuxIFC date 2022.05.26  19:29:27
 running on   28 total cores
 distrk:  each k-point on   28 cores,    1 groups
 distr:  one band on NCORE=   1 cores,   28 groups


--------------------------------------------------------------------------------------------------------


 INCAR:
   ISMEAR = -5
   SIGMA = 0.1
   ISPIN = 1
   EDIFF = 1.d-5
   EDIFFG = -0.01
   NSW = 0
   NELM = 150
   ENCUT = 500
   ISIF = 2
   IBRION = 2
   LREAL = Auto
   ALGO = Fast
   ICHARG = 11
   LORBIT = 10
   LCHARG = .F.
   LWAVE = .F.

 POTCAR:    PAW_PBE Au 04Oct2007                  
 POTCAR:    PAW_PBE Pd 04Jan2005                  
 POTCAR:    PAW_PBE O 08Apr2002                   
 -----------------------------------------------------------------------------
|                                                                             |
|           W    W    AA    RRRRR   N    N  II  N    N   GGGG   !!!           |
|           W    W   A  A   R    R  NN   N  II  NN   N  G    G  !!!           |
|           W    W  A    A  R    R  N N  N  II  N N  N  G       !!!           |
|           W WW W  AAAAAA  RRRRR   N  N N  II  N  N N  G  GGG   !            |
|           WW  WW  A    A  R   R   N   NN  II  N   NN  G    G                |
|           W    W  A    A  R    R  N    N  II  N    N   GGGG   !!!           |
|                                                                             |
|     For optimal performance we recommend to set                             |
|       NCORE = 2 up to number-of-cores-per-socket                            |
|     NCORE specifies how many cores store one orbital (NPAR=cpu/NCORE).      |
|     This setting can greatly improve the performance of VASP for DFT.       |
|     The default, NCORE=1 might be grossly inefficient on modern             |
|     multi-core architectures or massively parallel machines. Do your        |
|     own testing! More info at https://www.vasp.at/wiki/index.php/NCORE      |
|     Unfortunately you need to use the default for GW and RPA                |
|     calculations (for HF NCORE is supported but not extensively tested      |
|     yet).                                                                   |
|                                                                             |
 -----------------------------------------------------------------------------

 POTCAR:    PAW_PBE Au 04Oct2007                  
   VRHFIN =Au: s1d10                                                                                
   LEXCH  = PE                                                                                      
   EATOM  =   926.0867 eV,   68.0654 Ry                                                             
                                                                                                    
   TITEL  = PAW_PBE Au 04Oct2007                                                                    
   LULTRA =        F    use ultrasoft PP ?                                                          
   IUNSCR =        1    unscreen: 0-lin 1-nonlin 2-no                                               
   RPACOR =    2.330    partial core radius                                                         
   POMASS =  196.966; ZVAL   =   11.000    mass and valenz                                          
   RCORE  =    2.500    outmost cutoff radius                                                       
   RWIGS  =    2.840; RWIGS  =    1.503    wigner-seitz radius (au A)                               
   ENMAX  =  229.943; ENMIN  =  172.457 eV                                                          
   ICORE  =        3    local potential                                                             
   LCOR   =        T    correct aug charges                                                         
   LPAW   =        T    paw PP                                                                      
   EAUG   =  356.670                                                                                
   DEXC   =    0.000                                                                                
   RMAX   =    2.562    core radius for proj-oper                                                   
   RAUG   =    1.300    factor for augmentation sphere                                              
   RDEP   =    2.598    radius for radial grids                                                     
   RDEPT  =    2.193    core radius for aug-charge                                                  
                                                                                                    
   Atomic configuration                                                                             
   16 entries                                                                                       
     n  l   j            E        occ.                                                              
     1  0  0.50    -80748.5001   2.0000                                                             
     2  0  0.50    -14244.7466   2.0000                                                             
     2  1  1.50    -12310.9591   6.0000                                                             
     3  0  0.50     -3362.1768   2.0000                                                             
     3  1  1.50     -2801.5463   6.0000                                                             
     3  2  2.50     -2203.8206  10.0000                                                             
     4  0  0.50      -729.8168   2.0000                                                             
     4  1  1.50      -546.0527   6.0000                                                             
     4  2  2.50      -325.7302  10.0000                                                             
     4  3  3.50       -81.1472  14.0000                                                             
     5  0  0.50      -108.3201   2.0000                                                             
     5  1  1.50       -59.7479   6.0000                                                             
     5  2  2.50        -6.8783  10.0000                                                             
     6  0  0.50        -5.7602   1.0000                                                             
     6  1  1.50        -6.8029   0.0000                                                             
     5  3  2.50        -1.3606   0.0000                                                             
   Description                                                                                      
     l       E           TYP  RCUT    TYP  RCUT                                                     
     2     -6.8782861     23  2.500                                                                 
     2     -8.2388687     23  2.500                                                                 
     0     -5.7601759     23  2.500                                                                 
     0     -0.8493231     23  2.500                                                                 
     1     -2.7211652     23  2.500                                                                 
     1     27.2116520     23  2.500                                                                 
     3     -1.3605826     23  2.500                                                                 
  local pseudopotential read in
  partial core-charges read in
  partial kinetic energy density read in
  atomic valenz-charges read in
  non local Contribution for L=           2  read in
    real space projection operators read in
  non local Contribution for L=           2  read in
    real space projection operators read in
  non local Contribution for L=           0  read in
    real space projection operators read in
  non local Contribution for L=           0  read in
    real space projection operators read in
  non local Contribution for L=           1  read in
    real space projection operators read in
  non local Contribution for L=           1  read in
    real space projection operators read in
    PAW grid and wavefunctions read in
 
   number of l-projection  operators is LMAX  =           6
   number of lm-projection operators is LMMAX =          18
 
 POTCAR:    PAW_PBE Pd 04Jan2005                  
   VRHFIN =Pd : s1 d9                                                                               
   LEXCH  = PE                                                                                      
   EATOM  =   809.7530 eV,   59.5152 Ry                                                             
                                                                                                    
   TITEL  = PAW_PBE Pd 04Jan2005                                                                    
   LULTRA =        F    use ultrasoft PP ?                                                          
   IUNSCR =        1    unscreen: 0-lin 1-nonlin 2-no                                               
   RPACOR =    2.000    partial core radius                                                         
   POMASS =  106.420; ZVAL   =   10.000    mass and valenz                                          
   RCORE  =    2.600    outmost cutoff radius                                                       
   RWIGS  =    2.710; RWIGS  =    1.434    wigner-seitz radius (au A)                               
   ENMAX  =  250.925; ENMIN  =  188.194 eV                                                          
   ICORE  =        3    local potential                                                             
   LCOR   =        T    correct aug charges                                                         
   LPAW   =        T    paw PP                                                                      
   EAUG   =  416.230                                                                                
   DEXC   =    0.000                                                                                
   RMAX   =    2.653    core radius for proj-oper                                                   
   RAUG   =    1.300    factor for augmentation sphere                                              
   RDEP   =    2.734    radius for radial grids                                                     
   RDEPT  =    2.103    core radius for aug-charge                                                  
                                                                                                    
   Atomic configuration                                                                             
   12 entries                                                                                       
     n  l   j            E        occ.                                                              
     1  0  0.50    -24164.6631   2.0000                                                             
     2  0  0.50     -3530.9218   2.0000                                                             
     2  1  1.50     -3165.6822   6.0000                                                             
     3  0  0.50      -639.4577   2.0000                                                             
     3  1  1.50      -519.4532   6.0000                                                             
     3  2  2.50      -328.9757  10.0000                                                             
     4  0  0.50       -88.7014   2.0000                                                             
     4  1  1.50       -54.4540   6.0000                                                             
     4  2  2.50        -6.6878   9.0000                                                             
     5  0  0.50        -4.3543   1.0000                                                             
     5  1  0.50        -1.3606   0.0000                                                             
     4  3  2.50        -1.3606   0.0000                                                             
   Description                                                                                      
     l       E           TYP  RCUT    TYP  RCUT                                                     
     2     -6.6878251     23  2.400                                                                 
     2     -8.0484077     23  2.400                                                                 
     0     -4.3542939     23  2.400                                                                 
     0      4.3406793     23  2.400                                                                 
     1     -4.0817478     23  2.600                                                                 
     1     15.8380318     23  2.600                                                                 
     3     -4.0817478     23  2.400                                                                 
  local pseudopotential read in
  partial core-charges read in
  partial kinetic energy density read in
  atomic valenz-charges read in
  non local Contribution for L=           2  read in
    real space projection operators read in
  non local Contribution for L=           2  read in
    real space projection operators read in
  non local Contribution for L=           0  read in
    real space projection operators read in
  non local Contribution for L=           0  read in
    real space projection operators read in
  non local Contribution for L=           1  read in
    real space projection operators read in
  non local Contribution for L=           1  read in
    real space projection operators read in
    PAW grid and wavefunctions read in
 
   number of l-projection  operators is LMAX  =           6
   number of lm-projection operators is LMMAX =          18
 
 POTCAR:    PAW_PBE O 08Apr2002                   
   VRHFIN =O: s2p4                                                                                  
   LEXCH  = PE                                                                                      
   EATOM  =   432.3788 eV,   31.7789 Ry                                                             
                                                                                                    
   TITEL  = PAW_PBE O 08Apr2002                                                                     
   LULTRA =        F    use ultrasoft PP ?                                                          
   IUNSCR =        1    unscreen: 0-lin 1-nonlin 2-no                                               
   RPACOR =    1.200    partial core radius                                                         
   POMASS =   16.000; ZVAL   =    6.000    mass and valenz                                          
   RCORE  =    1.520    outmost cutoff radius                                                       
   RWIGS  =    1.550; RWIGS  =    0.820    wigner-seitz radius (au A)                               
   ENMAX  =  400.000; ENMIN  =  300.000 eV                                                          
   ICORE  =        2    local potential                                                             
   LCOR   =        T    correct aug charges                                                         
   LPAW   =        T    paw PP                                                                      
   EAUG   =  605.392                                                                                
   DEXC   =    0.000                                                                                
   RMAX   =    1.553    core radius for proj-oper                                                   
   RAUG   =    1.300    factor for augmentation sphere                                              
   RDEP   =    1.550    radius for radial grids                                                     
   RDEPT  =    1.329    core radius for aug-charge                                                  
                                                                                                    
   Atomic configuration                                                                             
    4 entries                                                                                       
     n  l   j            E        occ.                                                              
     1  0  0.50      -514.6923   2.0000                                                             
     2  0  0.50       -23.9615   2.0000                                                             
     2  1  0.50        -9.0305   4.0000                                                             
     3  2  1.50        -9.5241   0.0000                                                             
   Description                                                                                      
     l       E           TYP  RCUT    TYP  RCUT                                                     
     0    -23.9615318     23  1.200                                                                 
     0     -9.5240782     23  1.200                                                                 
     1     -9.0304911     23  1.520                                                                 
     1      8.1634956     23  1.520                                                                 
     2     -9.5240782      7  1.500                                                                 
  local pseudopotential read in
  partial core-charges read in
  partial kinetic energy density read in
  kinetic energy density of atom read in
  atomic valenz-charges read in
  non local Contribution for L=           0  read in
    real space projection operators read in
  non local Contribution for L=           0  read in
    real space projection operators read in
  non local Contribution for L=           1  read in
    real space projection operators read in
  non local Contribution for L=           1  read in
    real space projection operators read in
    PAW grid and wavefunctions read in
 
   number of l-projection  operators is LMAX  =           4
   number of lm-projection operators is LMMAX =           8
 
 Optimization of the real space projectors (new method)

 maximal supplied QI-value         = 15.12
 optimisation between [QCUT,QGAM] = [ 11.34, 22.83] = [ 36.00,145.93] Ry 
 Optimized for a Real-space Cutoff    1.39 Angstroem

   l    n(q)    QCUT    max X(q) W(low)/X(q) W(high)/X(q)  e(spline) 
   2      9    11.338    60.898    0.39E-03    0.42E-03    0.21E-06
   2      9    11.338    58.894    0.40E-03    0.42E-03    0.22E-06
   0      9    11.338   109.617    0.13E-03    0.20E-04    0.13E-06
   0      9    11.338    75.026    0.13E-03    0.20E-04    0.13E-06
   1      9    11.338    16.344    0.33E-04    0.24E-03    0.18E-06
   1      9    11.338    10.160    0.26E-04    0.19E-03    0.15E-06
 Optimization of the real space projectors (new method)

 maximal supplied QI-value         = 14.36
 optimisation between [QCUT,QGAM] = [ 11.35, 22.84] = [ 36.05,146.02] Ry 
 Optimized for a Real-space Cutoff    1.47 Angstroem

   l    n(q)    QCUT    max X(q) W(low)/X(q) W(high)/X(q)  e(spline) 
   2      9    11.346    59.108    0.74E-04    0.81E-04    0.26E-06
   2      9    11.346    58.101    0.74E-04    0.83E-04    0.27E-06
   0     10    11.346   102.235    0.26E-04    0.31E-04    0.16E-06
   0     10    11.346    58.388    0.23E-04    0.29E-04    0.15E-06
   1     10    11.346    22.191    0.23E-03    0.26E-03    0.14E-06
   1     10    11.346    15.590    0.19E-03    0.22E-03    0.12E-06
 Optimization of the real space projectors (new method)

 maximal supplied QI-value         = 24.76
 optimisation between [QCUT,QGAM] = [ 11.39, 22.77] = [ 36.31,145.25] Ry 
 Optimized for a Real-space Cutoff    1.00 Angstroem

   l    n(q)    QCUT    max X(q) W(low)/X(q) W(high)/X(q)  e(spline) 
   0      7    11.387    20.381    0.39E-03    0.13E-02    0.15E-06
   0      7    11.387    15.268    0.42E-03    0.14E-02    0.17E-06
   1      6    11.387     5.964    0.41E-03    0.11E-02    0.17E-06
   1      6    11.387     5.382    0.39E-03    0.87E-03    0.15E-06
  PAW_PBE Au 04Oct2007                  :
 energy of atom  1       EATOM= -926.0867
 kinetic energy error for atom=    0.0042 (will be added to EATOM!!)
  PAW_PBE Pd 04Jan2005                  :
 energy of atom  2       EATOM= -809.7530
 kinetic energy error for atom=    0.0049 (will be added to EATOM!!)
  PAW_PBE O 08Apr2002                   :
 energy of atom  3       EATOM= -432.3788
 kinetic energy error for atom=    0.0224 (will be added to EATOM!!)
 
 
 POSCAR: Au-Pd-O
  positions in direct lattice
  velocities in cartesian coordinates
 exchange correlation table for  LEXCH =        8
   RHO(1)=    0.500       N(1)  =     2000
   RHO(2)=  100.500       N(2)  =     4000

 VTST: version 3.2, (02/03/18)

 CHAIN: initializing optimizer
 
 OPT: Using VASP Conjugate-Gradient optimizer
 CHAIN: Read ICHAIN            0
 
 POSCAR: Au-Pd-O
  positions in direct lattice
  velocities in cartesian coordinates
 


--------------------------------------------------------------------------------------------------------


 ion  position               nearest neighbor table
   1  0.000  0.000  0.238-  16 2.94  12 2.94   6 2.94   8 2.94   7 2.94   3 2.94  10 2.94   4 2.94
                             2 2.94
   2  0.333  0.000  0.238-   9 2.94  11 2.94  17 2.94  10 2.94   8 2.94   4 2.94   5 2.94   1 2.94
                             3 2.94
   3  0.667  0.000  0.238-   7 2.94  18 2.94  12 2.94   1 2.94  11 2.94   5 2.94   6 2.94   9 2.94
                             2 2.94
   4  0.000  0.333  0.238-  10 2.94   6 2.94   5 2.94  13 2.94   2 2.94  15 2.94   9 2.94   1 2.94
                             7 2.94
   5  0.333  0.333  0.238-  13 2.94   7 2.94  11 2.94   4 2.94   2 2.94  14 2.94   3 2.94   8 2.94
                             6 2.94
   6  0.667  0.333  0.238-  15 2.94  14 2.94   1 2.94  12 2.94   4 2.94   9 2.94   8 2.94   3 2.94
                             5 2.94
   7  0.000  0.667  0.238-  18 2.94   3 2.94  16 2.94   5 2.94   1 2.94  13 2.94   8 2.94   4 2.94
                             9 2.94
   8  0.333  0.667  0.238-   9 2.94  17 2.94   1 2.94   2 2.94  14 2.94  16 2.94   6 2.94   7 2.94
                             5 2.94
   9  0.667  0.667  0.238-   2 2.94   8 2.94  17 2.94   6 2.94  15 2.94   4 2.94   3 2.94  18 2.94
                             7 2.94
  10  0.111  0.111  0.346-  26 2.92  19 2.92  20 2.93  11 2.94  17 2.94   2 2.94   4 2.94   1 2.94
                            12 2.94  16 2.94  13 2.94  15 2.94
  11  0.444  0.111  0.346-  27 2.93  20 2.93  21 2.93  13 2.94   2 2.94  10 2.94  17 2.94   5 2.94
                             3 2.94  18 2.94  14 2.94  12 2.94
  12  0.778  0.111  0.346-  25 2.92  19 2.92  21 2.93  16 2.94  18 2.94   1 2.94  14 2.94  15 2.94
                             3 2.94   6 2.94  10 2.94  11 2.94
  13  0.111  0.444  0.346-  22 2.93  23 2.93  20 2.93   5 2.94  18 2.94  11 2.94   7 2.94   4 2.94
                            16 2.94  10 2.94  14 2.94  15 2.94
  14  0.444  0.444  0.346-  24 2.93  21 2.93  23 2.93  15 2.94   6 2.94  12 2.94   8 2.94  17 2.94
                             5 2.94  16 2.94  13 2.94  11 2.94
  15  0.778  0.444  0.346-  19 2.93  24 2.93  22 2.93  14 2.94   6 2.94  17 2.94  12 2.94   9 2.94
                             4 2.94  10 2.94  13 2.94  18 2.94
  16  0.111  0.778  0.346-  25 2.92  26 2.92  23 2.93  18 2.94  12 2.94   7 2.94   1 2.94   8 2.94
                            13 2.94  10 2.94  14 2.94  17 2.94
  17  0.444  0.778  0.346-  26 2.93  27 2.93  24 2.93   9 2.94  15 2.94   2 2.94  10 2.94  11 2.94
                             8 2.94  14 2.94  16 2.94  18 2.94
  18  0.778  0.778  0.346-  25 2.93  22 2.93  27 2.93  16 2.94   7 2.94  13 2.94  12 2.94   3 2.94
                            11 2.94   9 2.94  15 2.94  17 2.94
  19  0.889  0.222  0.453-  10 2.92  12 2.92  15 2.93  26 2.93  25 2.93  21 2.94  20 2.94  24 2.94
                            22 2.94  28 2.96  32 2.97  31 2.97
  20  0.222  0.222  0.454-  36 2.83  10 2.93  11 2.93  13 2.93  26 2.94  19 2.94  27 2.94  22 2.94
                            23 2.94  21 2.94  29 2.95  31 2.95
  21  0.556  0.222  0.454-  36 2.83  12 2.93  14 2.93  11 2.93  25 2.94  19 2.94  24 2.94  27 2.94
                            20 2.94  23 2.94  30 2.95  32 2.95
  22  0.889  0.556  0.454-  18 2.93  15 2.93  13 2.93  24 2.94  27 2.94  23 2.94  20 2.94  25 2.94
                            19 2.94  33 2.96  31 2.96  35 2.96
  23  0.222  0.556  0.454-  36 2.83  16 2.93  13 2.93  14 2.93  25 2.94  26 2.94  22 2.94  24 2.94
                            20 2.94  21 2.94  33 2.95  34 2.95
  24  0.556  0.556  0.454-  15 2.93  17 2.93  14 2.93  27 2.94  22 2.94  21 2.94  23 2.94  26 2.94
                            19 2.94  32 2.96  34 2.96  35 2.96
  25  0.889  0.889  0.453-  16 2.92  12 2.92  18 2.93  19 2.93  26 2.93  23 2.94  21 2.94  22 2.94
                            27 2.94  28 2.96  33 2.97  30 2.97
  26  0.222  0.889  0.453-  10 2.92  16 2.92  17 2.93  19 2.93  25 2.93  20 2.94  23 2.94  27 2.94
                            24 2.94  28 2.96  29 2.97  34 2.97
  27  0.556  0.889  0.454-  17 2.93  18 2.93  11 2.93  24 2.94  22 2.94  20 2.94  21 2.94  26 2.94
                            25 2.94  29 2.96  30 2.96  35 2.96
  28  0.000  0.000  0.563-  34 2.94  32 2.94  33 2.94  30 2.94  31 2.94  29 2.94  25 2.96  19 2.96
                            26 2.96
  29  0.333  0.001  0.563-  30 2.93  31 2.93  36 2.93  35 2.94  28 2.94  20 2.95  34 2.95  27 2.96
                            26 2.97
  30  0.666  0.001  0.563-  29 2.93  32 2.93  36 2.93  35 2.94  28 2.94  21 2.95  33 2.95  27 2.96
                            25 2.97
  31  0.001  0.333  0.563-  33 2.93  29 2.93  36 2.93  35 2.94  28 2.94  20 2.95  32 2.95  22 2.96
                            19 2.97
  32  0.666  0.333  0.563-  34 2.93  30 2.93  36 2.93  35 2.94  28 2.94  21 2.95  31 2.95  24 2.96
                            19 2.97
  33  0.001  0.666  0.563-  31 2.93  34 2.93  36 2.93  35 2.94  28 2.94  23 2.95  30 2.95  22 2.96
                            25 2.97
  34  0.333  0.666  0.563-  32 2.93  33 2.93  36 2.93  35 2.94  28 2.94  23 2.95  29 2.95  24 2.96
                            26 2.97
  35  0.667  0.667  0.563-  29 2.94  34 2.94  32 2.94  31 2.94  30 2.94  33 2.94  24 2.96  27 2.96
                            22 2.96
  36  0.333  0.333  0.556-  37 1.84  20 2.83  23 2.83  21 2.83  33 2.93  31 2.93  29 2.93  30 2.93
                            34 2.93  32 2.93
  37  0.333  0.333  0.639-  36 1.84
 
  LATTYP: Found a hexagonal cell.
 ALAT       =     8.8135128021
 C/A-ratio  =     2.5184286595
  
  Lattice vectors:
  
 A1 = (  -4.4067569092,  -7.6327256898,   0.0000000000)
 A2 = (   8.8135128021,   0.0000000000,   0.0000000000)
 A3 = (   0.0000000000,   0.0000000000,  22.1962032318)


Analysis of symmetry for initial positions (statically):
=====================================================================
 Subroutine PRICEL returns:
 Original cell was already a primitive cell.
 

 Routine SETGRP: Setting up the symmetry group for a 
 hexagonal supercell.


 Subroutine GETGRP returns: Found  6 space group operations
 (whereof  6 operations were pure point group operations)
 out of a pool of 24 trial point group operations.


The static configuration has the point symmetry C_3v.


Analysis of symmetry for dynamics (positions and initial velocities):
=====================================================================
 Subroutine PRICEL returns:
 Original cell was already a primitive cell.
 

 Routine SETGRP: Setting up the symmetry group for a 
 hexagonal supercell.


 Subroutine GETGRP returns: Found  6 space group operations
 (whereof  6 operations were pure point group operations)
 out of a pool of 24 trial point group operations.


The dynamic configuration has the point symmetry C_3v.


Analysis of constrained symmetry for selective dynamics:
=====================================================================
 Subroutine PRICEL returns:
 Original cell was already a primitive cell.
 

 Routine SETGRP: Setting up the symmetry group for a 
 hexagonal supercell.


 Subroutine GETGRP returns: Found  6 space group operations
 (whereof  6 operations were pure point group operations)
 out of a pool of 24 trial point group operations.


The constrained configuration has the point symmetry C_3v.


 Subroutine INISYM returns: Found  6 space group operations
 (whereof  6 operations are pure point group operations),
 and found     1 'primitive' translations


----------------------------------------------------------------------------------------

                                     Primitive cell                                     

  volume of cell :    1493.1636

  direct lattice vectors                    reciprocal lattice vectors
     8.813512802  0.000000000  0.000000000     0.113462137 -0.065507406  0.000000000
     4.406756909  7.632725690  0.000000000     0.000000000  0.131014796  0.000000000
     0.000000000  0.000000000 22.196203232     0.000000000  0.000000000  0.045052750

  length of vectors
     8.813512802  8.813512802 22.196203232     0.131014796  0.131014796  0.045052750

  position of ions in fractional coordinates (direct lattice)
     0.000000000  0.000000000  0.237895638
     0.333333343  0.000000000  0.237895638
     0.666666687  0.000000000  0.237895638
     1.000000000  0.333333343  0.237895638
     0.333333313  0.333333343  0.237895638
     0.666666687  0.333333343  0.237895638
     1.000000000  0.666666687  0.237895638
     0.333333343  0.666666687  0.237895638
     0.666666627  0.666666687  0.237895638
     0.111111119  0.111111112  0.345965207
     0.444444418  0.111111112  0.345965207
     0.777777791  0.111111112  0.345965207
     0.111111127  0.444444448  0.345965207
     0.444444478  0.444444448  0.345965207
     0.777777731  0.444444448  0.345965207
     0.111111090  0.777777791  0.345965207
     0.444444448  0.777777791  0.345965207
     0.777777851  0.777777791  0.345965207
     0.889096781  0.221806453  0.453357195
     0.222138768  0.222138753  0.453714540
     0.555722525  0.222138753  0.453714540
     0.888823131  0.555588464  0.453709920
     0.222138723  0.555722525  0.453714540
     0.555588464  0.555588464  0.453709920
     0.889096781  0.889096781  0.453357195
     0.221806483  0.889096781  0.453357195
     0.555588404  0.888823131  0.453709920
     0.000000000  0.000000000  0.562870395
     0.333446929  0.000866645  0.562779507
     0.665686455  0.000866645  0.562779507
     0.000866645  0.333446929  0.562779507
     0.665686455  0.333446929  0.562779507
     0.000866645  0.665686455  0.562779507
     0.333446929  0.665686455  0.562779507
     0.666666627  0.666666687  0.563059468
     0.333333313  0.333333343  0.555992141
     0.333333313  0.333333343  0.638747043

  ion indices of the primitive-cell ions
   primitive index   ion index
                 1           1
                 2           2
                 3           3
                 4           4
                 5           5
                 6           6
                 7           7
                 8           8
                 9           9
                10          10
                11          11
                12          12
                13          13
                14          14
                15          15
                16          16
                17          17
                18          18
                19          19
                20          20
                21          21
                22          22
                23          23
                24          24
                25          25
                26          26
                27          27
                28          28
                29          29
                30          30
                31          31
                32          32
                33          33
                34          34
                35          35
                36          36
                37          37

----------------------------------------------------------------------------------------

 
 
 KPOINTS: Automatic mesh                          

Automatic generation of k-mesh.
 Grid dimensions read from file:
 generate k-points for:    8    8    1

 Generating k-lattice:

  Cartesian coordinates                     Fractional coordinates (reciprocal lattice)
     0.014182767 -0.008188426  0.000000000     0.125000000 -0.000000000  0.000000000
     0.000000000  0.016376850  0.000000000     0.000000000  0.125000000  0.000000000
     0.000000000  0.000000000  0.045052750     0.000000000  0.000000000  1.000000000

  Length of vectors
     0.016376850  0.016376850  0.045052750

  Shift w.r.t. Gamma in fractional coordinates (k-lattice)
     0.000000000  0.000000000  0.000000000

 TETIRR: Found     36 inequivalent tetrahedra from      384
 
 Subroutine IBZKPT returns following result:
 ===========================================
 
 Found     10 irreducible k-points:
 
 Following reciprocal coordinates:
            Coordinates               Weight
  0.000000  0.000000  0.000000      1.000000
  0.125000 -0.000000  0.000000      6.000000
  0.250000 -0.000000  0.000000      6.000000
  0.375000  0.000000  0.000000      6.000000
  0.500000 -0.000000  0.000000      3.000000
  0.250000  0.125000  0.000000      6.000000
  0.375000  0.125000  0.000000     12.000000
  0.500000  0.125000  0.000000     12.000000
  0.500000  0.250000  0.000000      6.000000
 -0.375000  0.250000  0.000000      6.000000
 
 Following cartesian coordinates:
            Coordinates               Weight
  0.000000  0.000000  0.000000      1.000000
  0.014183 -0.008188  0.000000      6.000000
  0.028366 -0.016377  0.000000      6.000000
  0.042548 -0.024565  0.000000      6.000000
  0.056731 -0.032754  0.000000      3.000000
  0.028366 -0.000000  0.000000      6.000000
  0.042548 -0.008188  0.000000     12.000000
  0.056731 -0.016377  0.000000     12.000000
  0.056731 -0.000000  0.000000      6.000000
 -0.042548  0.057319  0.000000      6.000000
 


--------------------------------------------------------------------------------------------------------




 Dimension of arrays:
   k-points           NKPTS =     10   k-points in BZ     NKDIM =     10   number of bands    NBANDS=    252
   number of dos      NEDOS =    301   number of ions     NIONS =     37
   non local maximal  LDIM  =      6   non local SUM 2l+1 LMDIM =     18
   total plane-waves  NPLWV = 290304
   max r-space proj   IRMAX =   2660   max aug-charges    IRDMAX=  12088
   dimension x,y,z NGX =    48 NGY =   48 NGZ =  126
   dimension x,y,z NGXF=    96 NGYF=   96 NGZF=  252
   support grid    NGXF=    96 NGYF=   96 NGZF=  252
   ions per type =              35   1   1
   NGX,Y,Z   is equivalent  to a cutoff of   9.05,  9.05,  9.44 a.u.
   NGXF,Y,Z  is equivalent  to a cutoff of  18.11, 18.11, 18.87 a.u.

 SYSTEM =  unknown system                          
 POSCAR =  Au-Pd-O                                 

 Startparameter for this run:
   NWRITE =      2    write-flag & timer
   PREC   = normal    normal or accurate (medium, high low for compatibility)
   ISTART =      0    job   : 0-new  1-cont  2-samecut
   ICHARG =     11    charge: 1-file 2-atom 10-const
   ISPIN  =      1    spin polarized calculation?
   LNONCOLLINEAR =      F non collinear calculations
   LSORBIT =      F    spin-orbit coupling
   INIWAV =      1    electr: 0-lowe 1-rand  2-diag
   LASPH  =      F    aspherical Exc in radial PAW
   METAGGA=      F    non-selfconsistent MetaGGA calc.

 Electronic Relaxation 1
   ENCUT  =  500.0 eV  36.75 Ry    6.06 a.u.  16.07 16.07 40.47*2*pi/ulx,y,z
   ENINI  =  500.0     initial cutoff
   ENAUG  =  605.4 eV  augmentation charge cutoff
   NELM   =    150;   NELMIN=  2; NELMDL= -5     # of ELM steps 
   EDIFF  = 0.1E-04   stopping-criterion for ELM
   LREAL  =      T    real-space projection
   NLSPLINE    = F    spline interpolate recip. space projectors
   LCOMPAT=      F    compatible to vasp.4.4
   GGA_COMPAT  = T    GGA compatible to vasp.4.4-vasp.4.6
   LMAXPAW     = -100 max onsite density
   LMAXMIX     =    2 max onsite mixed and CHGCAR
   VOSKOWN=      0    Vosko Wilk Nusair interpolation
   ROPT   =   -0.00050  -0.00050  -0.00050
 Ionic relaxation
   EDIFFG = -.1E-01   stopping-criterion for IOM
   NSW    =      0    number of steps for IOM
   NBLOCK =      1;   KBLOCK =      1    inner block; outer block 
   IBRION =     -1    ionic relax: 0-MD 1-quasi-New 2-CG
   NFREE  =      1    steps in history (QN), initial steepest desc. (CG)
   ISIF   =      2    stress and relaxation
   IWAVPR =     10    prediction:  0-non 1-charg 2-wave 3-comb
   ISYM   =      2    0-nonsym 1-usesym 2-fastsym
   LCORR  =      T    Harris-Foulkes like correction to forces

   POTIM  = 0.5000    time-step for ionic-motion
   TEIN   =    0.0    initial temperature
   TEBEG  =    0.0;   TEEND  =   0.0 temperature during run
   SMASS  =  -3.00    Nose mass-parameter (am)
   estimated Nose-frequenzy (Omega)   =  0.10E-29 period in steps = 0.13E+47 mass=  -0.178E-26a.u.
   SCALEE = 1.0000    scale energy and forces
   NPACO  =    256;   APACO  = 16.0  distance and # of slots for P.C.
   PSTRESS=    0.0 pullay stress

  Mass of Ions in am
   POMASS = 196.97106.42 16.00
  Ionic Valenz
   ZVAL   =  11.00 10.00  6.00
  Atomic Wigner-Seitz radii
   RWIGS  =  -1.00 -1.00 -1.00
  virtual crystal weights 
   VCA    =   1.00  1.00  1.00
   NELECT =     401.0000    total number of electrons
   NUPDOWN=      -1.0000    fix difference up-down

 DOS related values:
   EMIN   =  10.00;   EMAX   =-10.00  energy-range for DOS
   EFERMI =   0.00
   ISMEAR =    -5;   SIGMA  =   0.10  broadening in eV -4-tet -1-fermi 0-gaus

 Electronic relaxation 2 (details)
   IALGO  =     68    algorithm
   LDIAG  =      T    sub-space diagonalisation (order eigenvalues)
   LSUBROT=      F    optimize rotation matrix (better conditioning)
   TURBO    =      0    0=normal 1=particle mesh
   IRESTART =      0    0=no restart 2=restart with 2 vectors
   NREBOOT  =      0    no. of reboots
   NMIN     =      0    reboot dimension
   EREF     =   0.00    reference energy to select bands
   IMIX   =      4    mixing-type and parameters
     AMIX     =   0.40;   BMIX     =  1.00
     AMIX_MAG =   1.60;   BMIX_MAG =  1.00
     AMIN     =   0.10
     WC   =   100.;   INIMIX=   1;  MIXPRE=   1;  MAXMIX= -45

 Intra band minimization:
   WEIMIN = 0.0000     energy-eigenvalue tresh-hold
   EBREAK =  0.99E-08  absolut break condition
   DEPER  =   0.30     relativ break condition  

   TIME   =   0.40     timestep for ELM

  volume/ion in A,a.u.               =      40.36       272.33
  Fermi-wavevector in a.u.,A,eV,Ry     =   1.056219  1.995964 15.178630  1.115598
  Thomas-Fermi vector in A             =   2.191446
 
 Write flags
   LWAVE        =      F    write WAVECAR
   LDOWNSAMPLE  =      F    k-point downsampling of WAVECAR
   LCHARG       =      F    write CHGCAR
   LVTOT        =      F    write LOCPOT, total local potential
   LVHAR        =      F    write LOCPOT, Hartree potential only
   LELF         =      F    write electronic localiz. function (ELF)
   LORBIT       =     10    0 simple, 1 ext, 2 COOP (PROOUT), +10 PAW based schemes


 Dipole corrections
   LMONO  =      F    monopole corrections only (constant potential shift)
   LDIPOL =      F    correct potential (dipole corrections)
   IDIPOL =      0    1-x, 2-y, 3-z, 4-all directions 
   EPSILON=  1.0000000 bulk dielectric constant

 Exchange correlation treatment:
   GGA     =    --    GGA type
   LEXCH   =     8    internal setting for exchange type
   VOSKOWN=      0    Vosko Wilk Nusair interpolation
   LHFCALC =     F    Hartree Fock is set to
   LHFONE  =     F    Hartree Fock one center treatment
   AEXX    =    0.0000 exact exchange contribution

 Linear response parameters
   LEPSILON=     F    determine dielectric tensor
   LRPA    =     F    only Hartree local field effects (RPA)
   LNABLA  =     F    use nabla operator in PAW spheres
   LVEL    =     F    velocity operator in full k-point grid
   LINTERFAST=   F  fast interpolation
   KINTER  =     0    interpolate to denser k-point grid
   CSHIFT  =0.1000    complex shift for real part using Kramers Kronig
   OMEGAMAX=  -1.0    maximum frequency
   DEG_THRESHOLD= 0.2000000E-02 threshold for treating states as degnerate
   RTIME   =   -0.100 relaxation time in fs
  (WPLASMAI=    0.000 imaginary part of plasma frequency in eV, 0.658/RTIME)
   DFIELD  = 0.0000000 0.0000000 0.0000000 field for delta impulse in time
 
 Orbital magnetization related:
   ORBITALMAG=     F  switch on orbital magnetization
   LCHIMAG   =     F  perturbation theory with respect to B field
   DQ        =  0.001000  dq finite difference perturbation B field
   LLRAUG    =     F  two centre corrections for induced B field



--------------------------------------------------------------------------------------------------------


 Static calculation
 charge density and potential remain constant during run
 non-spin polarized calculation
 RMM-DIIS sequential band-by-band and
  variant of blocked Davidson during initial phase
 perform sub-space diagonalisation
    before iterative eigenvector-optimisation
 no mixing
 using additional bands           51
 real space projection scheme for non local part
 use partial core corrections
 calculate Harris-corrections to forces 
   (improved forces if not selfconsistent)
 use gradient corrections 
 WARNING: stress and forces are not correct
  (second derivative of E(xc) not defined)
 use of overlap-Matrix (Vanderbilt PP)
 Fermi weights with tetrahedron method with Bloechl corrections


--------------------------------------------------------------------------------------------------------


  energy-cutoff  :      500.00
  volume of cell :     1493.16
      direct lattice vectors                 reciprocal lattice vectors
     8.813512802  0.000000000  0.000000000     0.113462137 -0.065507406  0.000000000
     4.406756909  7.632725690  0.000000000     0.000000000  0.131014796  0.000000000
     0.000000000  0.000000000 22.196203232     0.000000000  0.000000000  0.045052750

  length of vectors
     8.813512802  8.813512802 22.196203232     0.131014796  0.131014796  0.045052750


 
 k-points in units of 2pi/SCALE and weight: Automatic mesh                          
   0.00000000  0.00000000  0.00000000       0.016
   0.01418277 -0.00818843  0.00000000       0.094
   0.02836553 -0.01637685  0.00000000       0.094
   0.04254830 -0.02456528  0.00000000       0.094
   0.05673107 -0.03275370  0.00000000       0.047
   0.02836553 -0.00000000  0.00000000       0.094
   0.04254830 -0.00818843  0.00000000       0.188
   0.05673107 -0.01637685  0.00000000       0.188
   0.05673107 -0.00000000  0.00000000       0.094
  -0.04254830  0.05731898  0.00000000       0.094
 
 k-points in reciprocal lattice and weights: Automatic mesh                          
   0.00000000  0.00000000  0.00000000       0.016
   0.12500000 -0.00000000  0.00000000       0.094
   0.25000000 -0.00000000  0.00000000       0.094
   0.37500000  0.00000000  0.00000000       0.094
   0.50000000 -0.00000000  0.00000000       0.047
   0.25000000  0.12500000  0.00000000       0.094
   0.37500000  0.12500000  0.00000000       0.188
   0.50000000  0.12500000  0.00000000       0.188
   0.50000000  0.25000000  0.00000000       0.094
  -0.37500000  0.25000000  0.00000000       0.094
 
 position of ions in fractional coordinates (direct lattice) 
   0.00000000  0.00000000  0.23789564
   0.33333334  0.00000000  0.23789564
   0.66666669  0.00000000  0.23789564
   0.00000000  0.33333334  0.23789564
   0.33333331  0.33333334  0.23789564
   0.66666669  0.33333334  0.23789564
   0.00000000  0.66666669  0.23789564
   0.33333334  0.66666669  0.23789564
   0.66666663  0.66666669  0.23789564
   0.11111112  0.11111111  0.34596521
   0.44444442  0.11111111  0.34596521
   0.77777779  0.11111111  0.34596521
   0.11111113  0.44444445  0.34596521
   0.44444448  0.44444445  0.34596521
   0.77777773  0.44444445  0.34596521
   0.11111109  0.77777779  0.34596521
   0.44444445  0.77777779  0.34596521
   0.77777785  0.77777779  0.34596521
   0.88909678  0.22180645  0.45335719
   0.22213877  0.22213875  0.45371454
   0.55572252  0.22213875  0.45371454
   0.88882313  0.55558846  0.45370992
   0.22213872  0.55572252  0.45371454
   0.55558846  0.55558846  0.45370992
   0.88909678  0.88909678  0.45335719
   0.22180648  0.88909678  0.45335719
   0.55558840  0.88882313  0.45370992
   0.00000000  0.00000000  0.56287040
   0.33344693  0.00086665  0.56277951
   0.66568646  0.00086665  0.56277951
   0.00086665  0.33344693  0.56277951
   0.66568646  0.33344693  0.56277951
   0.00086665  0.66568646  0.56277951
   0.33344693  0.66568646  0.56277951
   0.66666663  0.66666669  0.56305947
   0.33333331  0.33333334  0.55599214
   0.33333331  0.33333334  0.63874704
 
 position of ions in cartesian coordinates  (Angst):
   0.00000000  0.00000000  5.28037993
   2.93783769  0.00000000  5.28037993
   5.87567538  0.00000000  5.28037993
   1.46891901  2.54424197  5.28037993
   4.40675643  2.54424197  5.28037993
   7.34459439  2.54424197  5.28037993
   2.93783803  5.08848395  5.28037993
   5.87567571  5.08848395  5.28037993
   8.81351288  5.08848395  5.28037993
   1.46891893  0.84808064  7.67911405
   4.40675623  0.84808064  7.67911405
   7.34459418  0.84808064  7.67911405
   2.93783798  3.39232256  7.67911405
   5.87567574  3.39232256  7.67911405
   8.81351263  3.39232256  7.67911405
   4.40675667  5.93656453  7.67911405
   7.34459449  5.93656453  7.67911405
  10.28243270  5.93656453  7.67911405
   8.81351299  1.69298781 10.06280844
   2.93673436  1.69552416 10.07074015
   5.87677907  1.69552416 10.07074015
  10.28199735  4.24065435 10.07063759
   4.40675655  4.24167759 10.07074015
   7.34502935  4.24065435 10.07063759
  11.75409925  6.78623184 10.06280844
   5.87292766  6.78623184 10.06280844
   8.81351299  6.78414315 10.07063759
   0.00000000  0.00000000 12.49358568
   2.94265787  0.00661487 12.49156830
   5.87085519  0.00661487 12.49156830
   1.47705775  2.54510894 12.49156830
   7.33645566  2.54510894 12.49156830
   2.94115658  5.08100211 12.49156830
   5.87235717  5.08100211 12.49156830
   8.81351288  5.08848395 12.49778238
   4.40675643  2.54424197 12.34091456
   4.40675643  2.54424197 14.17775918
 


--------------------------------------------------------------------------------------------------------


 k-point   1 :   0.0000 0.0000 0.0000  plane waves:   37827
 k-point   2 :   0.1250-0.0000 0.0000  plane waves:   37876
 k-point   3 :   0.2500-0.0000 0.0000  plane waves:   37924
 k-point   4 :   0.3750 0.0000 0.0000  plane waves:   37904
 k-point   5 :   0.5000-0.0000 0.0000  plane waves:   37912
 k-point   6 :   0.2500 0.1250 0.0000  plane waves:   37858
 k-point   7 :   0.3750 0.1250 0.0000  plane waves:   37928
 k-point   8 :   0.5000 0.1250 0.0000  plane waves:   37924
 k-point   9 :   0.5000 0.2500 0.0000  plane waves:   37926
 k-point  10 :  -0.3750 0.2500 0.0000  plane waves:   37916

 maximum and minimum number of plane-waves per node :     37928    37827

 maximum number of plane-waves:     37928
 maximum index in each direction: 
   IXMAX=   16   IYMAX=   16   IZMAX=   40
   IXMIN=  -16   IYMIN=  -16   IZMIN=  -40


 serial   3D FFT for wavefunctions
 parallel 3D FFT for charge:
    minimum data exchange during FFTs selected (reduces bandwidth)


 total amount of memory used by VASP MPI-rank0   122169. kBytes
=======================================================================

   base      :      30000. kBytes
   nonlr-proj:      13784. kBytes
   fftplans  :       4330. kBytes
   grid      :      17879. kBytes
   one-center:        575. kBytes
   wavefun   :      55601. kBytes
 
     INWAV:  cpu time    0.0000: real time    0.0000
 initial charge density was supplied:
 number of electron     401.0000051 magnetization 
 keeping initial charge density in first step


--------------------------------------------------------------------------------------------------------


 Maximum index for non-local projection operator         2513
 Maximum index for augmentation-charges          857 (set IRDMAX)


--------------------------------------------------------------------------------------------------------


 First call to EWALD:  gamma=   0.155
 Maximum number of real-space cells 4x 4x 2
 Maximum number of reciprocal cells 2x 2x 5

    FEWALD:  cpu time    0.0013: real time    0.0014


--------------------------------------- Iteration      1(   1)  ---------------------------------------


    POTLOK:  cpu time    0.0421: real time    0.0425
    SETDIJ:  cpu time    0.0047: real time    0.0049
     EDDAV:  cpu time    7.1099: real time    7.1142
 BZINTS: Fermi energy:   11.385852;  401.000000 electrons
         Band energy: 0.151431E+04;  BLOECHL correction:   -0.015641
       DOS:  cpu time    0.0105: real time    0.0106
    --------------------------------------------
      LOOP:  cpu time    7.1672: real time    7.1722

 eigenvalue-minimisations  :  5040
 total energy-change (2. order) : 0.2661652E+04  (-0.1830220E+05)
 number of electron     401.0000051 magnetization 
 augmentation part      401.0000051 magnetization 

 Free energy of the ion-electron system (eV)
  ---------------------------------------------------
  alpha Z        PSCENC =      1019.04168396
  Ewald energy   TEWEN  =     96791.11442735
  -Hartree energ DENC   =   -131621.05738936
  -exchange      EXHF   =         0.00000000
  -V(xc)+E(xc)   XCENC  =       515.24119528
  PAW double counting   =     36545.92746926   -35757.92076038
  entropy T*S    EENTRO =         0.00000000
  eigenvalues    EBANDS =      1514.31474164
  atomic energy  EATOM  =     33654.99074067
  Solvation  Ediel_sol  =         0.00000000
  ---------------------------------------------------
  free energy    TOTEN  =      2661.65210843 eV

  energy without entropy =     2661.65210843  energy(sigma->0) =     2661.65210843


--------------------------------------------------------------------------------------------------------




--------------------------------------- Iteration      1(   2)  ---------------------------------------


     EDDAV:  cpu time    7.7323: real time    7.7326
 BZINTS: Fermi energy:    1.421474;  401.000000 electrons
         Band energy:-0.113370E+04;  BLOECHL correction:   -0.051358
       DOS:  cpu time    0.0100: real time    0.0100
    --------------------------------------------
      LOOP:  cpu time    7.7424: real time    7.7426

 eigenvalue-minimisations  :  5628
 total energy-change (2. order) :-0.2648018E+04  (-0.2464970E+04)
 number of electron     401.0000051 magnetization 
 augmentation part      401.0000051 magnetization 

 Free energy of the ion-electron system (eV)
  ---------------------------------------------------
  alpha Z        PSCENC =      1019.04168396
  Ewald energy   TEWEN  =     96791.11442735
  -Hartree energ DENC   =   -131621.05738936
  -exchange      EXHF   =         0.00000000
  -V(xc)+E(xc)   XCENC  =       515.24119528
  PAW double counting   =     36545.92746926   -35757.92076038
  entropy T*S    EENTRO =         0.00000000
  eigenvalues    EBANDS =     -1133.70353781
  atomic energy  EATOM  =     33654.99074067
  Solvation  Ediel_sol  =         0.00000000
  ---------------------------------------------------
  free energy    TOTEN  =        13.63382898 eV

  energy without entropy =       13.63382898  energy(sigma->0) =       13.63382898


--------------------------------------------------------------------------------------------------------




--------------------------------------- Iteration      1(   3)  ---------------------------------------


     EDDAV:  cpu time    8.0392: real time    8.0394
 BZINTS: Fermi energy:    0.595290;  401.000000 electrons
         Band energy:-0.126077E+04;  BLOECHL correction:   -0.053656
       DOS:  cpu time    0.0096: real time    0.0096
    --------------------------------------------
      LOOP:  cpu time    8.0488: real time    8.0490

 eigenvalue-minimisations  :  5880
 total energy-change (2. order) :-0.1270668E+03  (-0.1229623E+03)
 number of electron     401.0000051 magnetization 
 augmentation part      401.0000051 magnetization 

 Free energy of the ion-electron system (eV)
  ---------------------------------------------------
  alpha Z        PSCENC =      1019.04168396
  Ewald energy   TEWEN  =     96791.11442735
  -Hartree energ DENC   =   -131621.05738936
  -exchange      EXHF   =         0.00000000
  -V(xc)+E(xc)   XCENC  =       515.24119528
  PAW double counting   =     36545.92746926   -35757.92076038
  entropy T*S    EENTRO =         0.00000000
  eigenvalues    EBANDS =     -1260.77033836
  atomic energy  EATOM  =     33654.99074067
  Solvation  Ediel_sol  =         0.00000000
  ---------------------------------------------------
  free energy    TOTEN  =      -113.43297158 eV

  energy without entropy =     -113.43297158  energy(sigma->0) =     -113.43297158


--------------------------------------------------------------------------------------------------------




--------------------------------------- Iteration      1(   4)  ---------------------------------------


     EDDAV:  cpu time    7.6901: real time    7.6903
 BZINTS: Fermi energy:    0.574359;  401.000000 electrons
         Band energy:-0.126336E+04;  BLOECHL correction:   -0.055451
       DOS:  cpu time    0.0094: real time    0.0094
    --------------------------------------------
      LOOP:  cpu time    7.6994: real time    7.6996

 eigenvalue-minimisations  :  5572
 total energy-change (2. order) :-0.2591243E+01  (-0.2583773E+01)
 number of electron     401.0000051 magnetization 
 augmentation part      401.0000051 magnetization 

 Free energy of the ion-electron system (eV)
  ---------------------------------------------------
  alpha Z        PSCENC =      1019.04168396
  Ewald energy   TEWEN  =     96791.11442735
  -Hartree energ DENC   =   -131621.05738936
  -exchange      EXHF   =         0.00000000
  -V(xc)+E(xc)   XCENC  =       515.24119528
  PAW double counting   =     36545.92746926   -35757.92076038
  entropy T*S    EENTRO =         0.00000000
  eigenvalues    EBANDS =     -1263.36158113
  atomic energy  EATOM  =     33654.99074067
  Solvation  Ediel_sol  =         0.00000000
  ---------------------------------------------------
  free energy    TOTEN  =      -116.02421435 eV

  energy without entropy =     -116.02421435  energy(sigma->0) =     -116.02421435


--------------------------------------------------------------------------------------------------------




--------------------------------------- Iteration      1(   5)  ---------------------------------------


     EDDAV:  cpu time    8.5150: real time    8.5152
 BZINTS: Fermi energy:    0.573946;  401.000000 electrons
         Band energy:-0.126345E+04;  BLOECHL correction:   -0.055509
       DOS:  cpu time    0.0103: real time    0.0103
    --------------------------------------------
      LOOP:  cpu time    8.5252: real time    8.5254

 eigenvalue-minimisations  :  6300
 total energy-change (2. order) :-0.9069661E-01  (-0.9063016E-01)
 number of electron     401.0000051 magnetization 
 augmentation part      401.0000051 magnetization 

 Free energy of the ion-electron system (eV)
  ---------------------------------------------------
  alpha Z        PSCENC =      1019.04168396
  Ewald energy   TEWEN  =     96791.11442735
  -Hartree energ DENC   =   -131621.05738936
  -exchange      EXHF   =         0.00000000
  -V(xc)+E(xc)   XCENC  =       515.24119528
  PAW double counting   =     36545.92746926   -35757.92076038
  entropy T*S    EENTRO =         0.00000000
  eigenvalues    EBANDS =     -1263.45227775
  atomic energy  EATOM  =     33654.99074067
  Solvation  Ediel_sol  =         0.00000000
  ---------------------------------------------------
  free energy    TOTEN  =      -116.11491096 eV

  energy without entropy =     -116.11491096  energy(sigma->0) =     -116.11491096


--------------------------------------------------------------------------------------------------------




--------------------------------------- Iteration      1(   6)  ---------------------------------------


    EDDIAG:  cpu time    1.3976: real time    1.3980
  RMM-DIIS:  cpu time    4.0543: real time    4.0544
    ORTHCH:  cpu time    0.2608: real time    0.2608
 BZINTS: Fermi energy:    0.573944;  401.000000 electrons
         Band energy:-0.126345E+04;  BLOECHL correction:   -0.055509
       DOS:  cpu time    0.0104: real time    0.0104
    --------------------------------------------
      LOOP:  cpu time    5.7231: real time    5.7235

 eigenvalue-minimisations  :  5166
 total energy-change (2. order) :-0.1828276E-02  (-0.1828250E-02)
 number of electron     401.0000051 magnetization 
 augmentation part      401.0000051 magnetization 

 Free energy of the ion-electron system (eV)
  ---------------------------------------------------
  alpha Z        PSCENC =      1019.04168396
  Ewald energy   TEWEN  =     96791.11442735
  -Hartree energ DENC   =   -131621.05738936
  -exchange      EXHF   =         0.00000000
  -V(xc)+E(xc)   XCENC  =       515.24119528
  PAW double counting   =     36545.92746926   -35757.92076038
  entropy T*S    EENTRO =         0.00000000
  eigenvalues    EBANDS =     -1263.45410602
  atomic energy  EATOM  =     33654.99074067
  Solvation  Ediel_sol  =         0.00000000
  ---------------------------------------------------
  free energy    TOTEN  =      -116.11673924 eV

  energy without entropy =     -116.11673924  energy(sigma->0) =     -116.11673924


--------------------------------------------------------------------------------------------------------




--------------------------------------- Iteration      1(   7)  ---------------------------------------


    EDDIAG:  cpu time    1.3979: real time    1.3980
  RMM-DIIS:  cpu time    5.4264: real time    5.4264
    ORTHCH:  cpu time    0.2608: real time    0.2608
 BZINTS: Fermi energy:    0.573943;  401.000000 electrons
         Band energy:-0.126345E+04;  BLOECHL correction:   -0.055509
       DOS:  cpu time    0.0102: real time    0.0102
    --------------------------------------------
      LOOP:  cpu time    7.0953: real time    7.0954

 eigenvalue-minimisations  :  7087
 total energy-change (2. order) :-0.6157333E-03  (-0.6129695E-03)
 number of electron     401.0000051 magnetization 
 augmentation part      401.0000051 magnetization 

 Free energy of the ion-electron system (eV)
  ---------------------------------------------------
  alpha Z        PSCENC =      1019.04168396
  Ewald energy   TEWEN  =     96791.11442735
  -Hartree energ DENC   =   -131621.05738936
  -exchange      EXHF   =         0.00000000
  -V(xc)+E(xc)   XCENC  =       515.24119528
  PAW double counting   =     36545.92746926   -35757.92076038
  entropy T*S    EENTRO =         0.00000000
  eigenvalues    EBANDS =     -1263.45472176
  atomic energy  EATOM  =     33654.99074067
  Solvation  Ediel_sol  =         0.00000000
  ---------------------------------------------------
  free energy    TOTEN  =      -116.11735497 eV

  energy without entropy =     -116.11735497  energy(sigma->0) =     -116.11735497


--------------------------------------------------------------------------------------------------------




--------------------------------------- Iteration      1(   8)  ---------------------------------------


    EDDIAG:  cpu time    1.4002: real time    1.4003
  RMM-DIIS:  cpu time    4.3455: real time    4.3456
    ORTHCH:  cpu time    0.2605: real time    0.2605
 BZINTS: Fermi energy:    0.573943;  401.000000 electrons
         Band energy:-0.126345E+04;  BLOECHL correction:   -0.055509
       DOS:  cpu time    0.0102: real time    0.0102
    --------------------------------------------
      LOOP:  cpu time    6.0164: real time    6.0165

 eigenvalue-minimisations  :  5578
 total energy-change (2. order) :-0.4172180E-04  (-0.4129348E-04)
 number of electron     401.0000051 magnetization 
 augmentation part      401.0000051 magnetization 

 Free energy of the ion-electron system (eV)
  ---------------------------------------------------
  alpha Z        PSCENC =      1019.04168396
  Ewald energy   TEWEN  =     96791.11442735
  -Hartree energ DENC   =   -131621.05738936
  -exchange      EXHF   =         0.00000000
  -V(xc)+E(xc)   XCENC  =       515.24119528
  PAW double counting   =     36545.92746926   -35757.92076038
  entropy T*S    EENTRO =         0.00000000
  eigenvalues    EBANDS =     -1263.45476348
  atomic energy  EATOM  =     33654.99074067
  Solvation  Ediel_sol  =         0.00000000
  ---------------------------------------------------
  free energy    TOTEN  =      -116.11739669 eV

  energy without entropy =     -116.11739669  energy(sigma->0) =     -116.11739669


--------------------------------------------------------------------------------------------------------




--------------------------------------- Iteration      1(   9)  ---------------------------------------


    EDDIAG:  cpu time    1.3984: real time    1.3986
  RMM-DIIS:  cpu time    3.1890: real time    3.1890
    ORTHCH:  cpu time    0.2607: real time    0.2607
 BZINTS: Fermi energy:    0.573943;  401.000000 electrons
         Band energy:-0.126345E+04;  BLOECHL correction:   -0.055509
       DOS:  cpu time    0.0104: real time    0.0104
    --------------------------------------------
      LOOP:  cpu time    4.8585: real time    4.8587

 eigenvalue-minimisations  :  3572
 total energy-change (2. order) :-0.6050657E-05  (-0.6017412E-05)
 number of electron     401.0000051 magnetization 
 augmentation part      401.0000051 magnetization 

 Free energy of the ion-electron system (eV)
  ---------------------------------------------------
  alpha Z        PSCENC =      1019.04168396
  Ewald energy   TEWEN  =     96791.11442735
  -Hartree energ DENC   =   -131621.05738936
  -exchange      EXHF   =         0.00000000
  -V(xc)+E(xc)   XCENC  =       515.24119528
  PAW double counting   =     36545.92746926   -35757.92076038
  entropy T*S    EENTRO =         0.00000000
  eigenvalues    EBANDS =     -1263.45476953
  atomic energy  EATOM  =     33654.99074067
  Solvation  Ediel_sol  =         0.00000000
  ---------------------------------------------------
  free energy    TOTEN  =      -116.11740274 eV

  energy without entropy =     -116.11740274  energy(sigma->0) =     -116.11740274


--------------------------------------------------------------------------------------------------------




 average (electrostatic) potential at core
  the test charge radii are     1.2098  1.1199  0.7215
  (the norm of the test charge is              1.0000)
       1 -72.4497       2 -72.4341       3 -72.4340       4 -72.4341       5 -72.4447
       6 -72.4338       7 -72.4340       8 -72.4338       9 -72.4468      10 -72.7888
      11 -72.7632      12 -72.7886      13 -72.7632      14 -72.7631      15 -72.7804
      16 -72.7886      17 -72.7804      18 -72.7804      19 -72.7571      20 -72.7642
      21 -72.7642      22 -72.7509      23 -72.7642      24 -72.7511      25 -72.7569
      26 -72.7571      27 -72.7509      28 -72.3516      29 -72.3475      30 -72.3474
      31 -72.3475      32 -72.3474      33 -72.3474      34 -72.3474      35 -72.3679
      36 -80.4357      37 -74.4078
 
 
 
 E-fermi :   0.5739     XC(G=0):  -6.1379     alpha+bet : -5.7810

 Fermi energy:         0.5739433624

 k-point     1 :       0.0000    0.0000    0.0000
  band No.  band energies     occupation 
      1     -16.2695      2.00000
      2      -8.2060      2.00000
      3      -7.0254      2.00000
      4      -6.0954      2.00000
      5      -6.0607      2.00000
      6      -6.0497      2.00000
      7      -6.0496      2.00000
      8      -6.0423      2.00000
      9      -6.0423      2.00000
     10      -6.0410      2.00000
     11      -5.9431      2.00000
     12      -5.5673      2.00000
     13      -5.5643      2.00000
     14      -5.5642      2.00000
     15      -5.5561      2.00000
     16      -5.5561      2.00000
     17      -5.5376      2.00000
     18      -5.1889      2.00000
     19      -5.1836      2.00000
     20      -5.1836      2.00000
     21      -5.1663      2.00000
     22      -5.1663      2.00000
     23      -5.1591      2.00000
     24      -5.0164      2.00000
     25      -5.0163      2.00000
     26      -5.0126      2.00000
     27      -4.9918      2.00000
     28      -4.9918      2.00000
     29      -4.9783      2.00000
     30      -4.8473      2.00000
     31      -4.8473      2.00000
     32      -4.8349      2.00000
     33      -4.8349      2.00000
     34      -4.8331      2.00000
     35      -4.8236      2.00000
     36      -4.8236      2.00000
     37      -4.8100      2.00000
     38      -4.8018      2.00000
     39      -4.7380      2.00000
     40      -4.7380      2.00000
     41      -4.6745      2.00000
     42      -4.3620      2.00000
     43      -4.3448      2.00000
     44      -4.3448      2.00000
     45      -4.2994      2.00000
     46      -4.2994      2.00000
     47      -4.2881      2.00000
     48      -4.2880      2.00000
     49      -4.2801      2.00000
     50      -4.2658      2.00000
     51      -4.2658      2.00000
     52      -4.1883      2.00000
     53      -4.1833      2.00000
     54      -4.1827      2.00000
     55      -4.1141      2.00000
     56      -3.7964      2.00000
     57      -3.7784      2.00000
     58      -3.7784      2.00000
     59      -3.7658      2.00000
     60      -3.7397      2.00000
     61      -3.7317      2.00000
     62      -3.7317      2.00000
     63      -3.7037      2.00000
     64      -3.6900      2.00000
     65      -3.6900      2.00000
     66      -3.6234      2.00000
     67      -3.6234      2.00000
     68      -3.5813      2.00000
     69      -3.5813      2.00000
     70      -3.5771      2.00000
     71      -3.5309      2.00000
     72      -3.5309      2.00000
     73      -3.5156      2.00000
     74      -3.5156      2.00000
     75      -3.4940      2.00000
     76      -3.4917      2.00000
     77      -3.4917      2.00000
     78      -3.4832      2.00000
     79      -3.4705      2.00000
     80      -3.4704      2.00000
     81      -3.4684      2.00000
     82      -3.4539      2.00000
     83      -3.4539      2.00000
     84      -3.3832      2.00000
     85      -3.3832      2.00000
     86      -3.3633      2.00000
     87      -3.3588      2.00000
     88      -3.3588      2.00000
     89      -3.3540      2.00000
     90      -3.2691      2.00000
     91      -3.2691      2.00000
     92      -3.1926      2.00000
     93      -3.1926      2.00000
     94      -3.1332      2.00000
     95      -3.1214      2.00000
     96      -3.1214      2.00000
     97      -3.0794      2.00000
     98      -3.0794      2.00000
     99      -3.0706      2.00000
    100      -3.0706      2.00000
    101      -2.9035      2.00000
    102      -2.9035      2.00000
    103      -2.8926      2.00000
    104      -2.8926      2.00000
    105      -2.8790      2.00000
    106      -2.8120      2.00000
    107      -2.8120      2.00000
    108      -2.8028      2.00000
    109      -2.7025      2.00000
    110      -2.7025      2.00000
    111      -2.6618      2.00000
    112      -2.6618      2.00000
    113      -2.6616      2.00000
    114      -2.6580      2.00000
    115      -2.5914      2.00000
    116      -2.5703      2.00000
    117      -2.5067      2.00000
    118      -2.5066      2.00000
    119      -2.4907      2.00000
    120      -2.4066      2.00000
    121      -2.3952      2.00000
    122      -2.3952      2.00000
    123      -2.3386      2.00000
    124      -2.3372      2.00000
    125      -2.3372      2.00000
    126      -2.3099      2.00000
    127      -2.3099      2.00000
    128      -2.2888      2.00000
    129      -2.2888      2.00000
    130      -2.2002      2.00000
    131      -2.2002      2.00000
    132      -2.1199      2.00000
    133      -2.1199      2.00000
    134      -2.1175      2.00000
    135      -2.1133      2.00000
    136      -2.0988      2.00000
    137      -2.0987      2.00000
    138      -2.0913      2.00000
    139      -2.0913      2.00000
    140      -2.0800      2.00000
    141      -2.0535      2.00000
    142      -2.0535      2.00000
    143      -1.9663      2.00000
    144      -1.8734      2.00000
    145      -1.8734      2.00000
    146      -1.8589      2.00000
    147      -1.8589      2.00000
    148      -1.8560      2.00000
    149      -1.8160      2.00000
    150      -1.8154      2.00000
    151      -1.8153      2.00000
    152      -1.8101      2.00000
    153      -1.8100      2.00000
    154      -1.8100      2.00000
    155      -1.7654      2.00000
    156      -1.7271      2.00000
    157      -1.7270      2.00000
    158      -1.6761      2.00000
    159      -1.6637      2.00000
    160      -1.6588      2.00000
    161      -1.6588      2.00000
    162      -1.6555      2.00000
    163      -1.6385      2.00000
    164      -1.6329      2.00000
    165      -1.6329      2.00000
    166      -1.6026      2.00000
    167      -1.6026      2.00000
    168      -1.5796      2.00000
    169      -1.5796      2.00000
    170      -1.5500      2.00000
    171      -1.5500      2.00000
    172      -1.5433      2.00000
    173      -1.5359      2.00000
    174      -1.5359      2.00000
    175      -1.5349      2.00000
    176      -1.5298      2.00000
    177      -1.4779      2.00000
    178      -1.4779      2.00000
    179      -1.4712      2.00000
    180      -1.4614      2.00000
    181      -1.4598      2.00000
    182      -1.4492      2.00000
    183      -1.4492      2.00000
    184      -1.4391      2.00000
    185      -1.4364      2.00000
    186      -1.4364      2.00000
    187      -1.3172      2.00000
    188      -1.3171      2.00000
    189      -1.2860      2.00000
    190      -1.2860      2.00000
    191      -1.2237      2.00000
    192      -1.2237      2.00000
    193      -1.2186      2.00000
    194      -1.2165      2.00000
    195      -1.0765      2.00000
    196      -1.0765      2.00000
    197      -0.4236      2.00000
    198      -0.2195      2.00000
    199      -0.0660      2.00000
    200      -0.0660      2.00000
    201       0.0363      2.00000
    202       0.0541      2.00000
    203       0.0542      2.00000
    204       0.5758      0.00000
    205       0.5759      0.00000
    206       0.9576      0.00000
    207       1.4443      0.00000
    208       2.1826      0.00000
    209       2.1982      0.00000
    210       2.1982      0.00000
    211       2.2658      0.00000
    212       2.2658      0.00000
    213       3.0851      0.00000
    214       3.3789      0.00000
    215       3.3789      0.00000
    216       3.4201      0.00000
    217       3.4201      0.00000
    218       3.4445      0.00000
    219       3.6100      0.00000
    220       4.0380      0.00000
    221       4.6494      0.00000
    222       5.2752      0.00000
    223       5.3007      0.00000
    224       5.3007      0.00000
    225       5.3118      0.00000
    226       5.3118      0.00000
    227       5.3237      0.00000
    228       5.3703      0.00000
    229       5.3703      0.00000
    230       5.4811      0.00000
    231       5.4811      0.00000
    232       5.6837      0.00000
    233       5.8791      0.00000
    234       6.0728      0.00000
    235       6.5529      0.00000
    236       6.9964      0.00000
    237       6.9968      0.00000
    238       7.0083      0.00000
    239       7.0087      0.00000
    240       7.0201      0.00000
    241       7.0204      0.00000
    242       7.0225      0.00000
    243       7.0296      0.00000
    244       7.1442      0.00000
    245       7.1451      0.00000
    246       7.1476      0.00000
    247       7.2120      0.00000
    248       7.3664      0.00000
    249       7.3682      0.00000
    250       7.4267      0.00000
    251       7.5032      0.00000
    252       7.5216      0.00000

 k-point     2 :       0.1250   -0.0000    0.0000
  band No.  band energies     occupation 
      1     -16.2695      2.00000
      2      -8.1550      2.00000
      3      -6.9757      2.00000
      4      -6.2984      2.00000
      5      -6.1219      2.00000
      6      -6.1206      2.00000
      7      -6.0459      2.00000
      8      -5.9507      2.00000
      9      -5.9318      2.00000
     10      -5.9212      2.00000
     11      -5.8894      2.00000
     12      -5.5986      2.00000
     13      -5.5845      2.00000
     14      -5.5424      2.00000
     15      -5.5411      2.00000
     16      -5.5307      2.00000
     17      -5.5143      2.00000
     18      -5.2400      2.00000
     19      -5.1848      2.00000
     20      -5.1823      2.00000
     21      -5.1474      2.00000
     22      -5.1331      2.00000
     23      -5.1308      2.00000
     24      -5.0841      2.00000
     25      -5.0327      2.00000
     26      -5.0238      2.00000
     27      -4.9592      2.00000
     28      -4.9567      2.00000
     29      -4.9167      2.00000
     30      -4.9164      2.00000
     31      -4.8977      2.00000
     32      -4.8869      2.00000
     33      -4.8856      2.00000
     34      -4.8302      2.00000
     35      -4.8045      2.00000
     36      -4.7998      2.00000
     37      -4.7083      2.00000
     38      -4.7031      2.00000
     39      -4.6998      2.00000
     40      -4.6928      2.00000
     41      -4.6377      2.00000
     42      -4.4231      2.00000
     43      -4.4111      2.00000
     44      -4.3925      2.00000
     45      -4.3514      2.00000
     46      -4.3338      2.00000
     47      -4.3334      2.00000
     48      -4.3231      2.00000
     49      -4.2547      2.00000
     50      -4.2337      2.00000
     51      -4.1949      2.00000
     52      -4.1674      2.00000
     53      -4.1429      2.00000
     54      -4.1355      2.00000
     55      -4.1091      2.00000
     56      -3.8547      2.00000
     57      -3.8094      2.00000
     58      -3.7998      2.00000
     59      -3.7894      2.00000
     60      -3.7743      2.00000
     61      -3.7632      2.00000
     62      -3.7434      2.00000
     63      -3.7388      2.00000
     64      -3.7086      2.00000
     65      -3.6923      2.00000
     66      -3.6850      2.00000
     67      -3.6716      2.00000
     68      -3.6583      2.00000
     69      -3.6249      2.00000
     70      -3.6080      2.00000
     71      -3.6032      2.00000
     72      -3.5936      2.00000
     73      -3.5631      2.00000
     74      -3.5524      2.00000
     75      -3.5370      2.00000
     76      -3.5257      2.00000
     77      -3.5216      2.00000
     78      -3.4824      2.00000
     79      -3.4513      2.00000
     80      -3.4511      2.00000
     81      -3.4296      2.00000
     82      -3.4161      2.00000
     83      -3.4059      2.00000
     84      -3.3731      2.00000
     85      -3.3523      2.00000
     86      -3.3327      2.00000
     87      -3.3281      2.00000
     88      -3.3032      2.00000
     89      -3.2967      2.00000
     90      -3.2788      2.00000
     91      -3.2423      2.00000
     92      -3.2119      2.00000
     93      -3.2077      2.00000
     94      -3.1661      2.00000
     95      -3.1641      2.00000
     96      -3.1243      2.00000
     97      -3.1079      2.00000
     98      -3.0759      2.00000
     99      -3.0126      2.00000
    100      -2.9994      2.00000
    101      -2.9462      2.00000
    102      -2.9405      2.00000
    103      -2.9390      2.00000
    104      -2.9099      2.00000
    105      -2.8880      2.00000
    106      -2.8434      2.00000
    107      -2.8306      2.00000
    108      -2.7599      2.00000
    109      -2.7371      2.00000
    110      -2.6988      2.00000
    111      -2.6961      2.00000
    112      -2.6831      2.00000
    113      -2.6741      2.00000
    114      -2.6617      2.00000
    115      -2.6506      2.00000
    116      -2.6390      2.00000
    117      -2.6265      2.00000
    118      -2.6122      2.00000
    119      -2.6001      2.00000
    120      -2.5741      2.00000
    121      -2.5229      2.00000
    122      -2.4875      2.00000
    123      -2.4537      2.00000
    124      -2.3661      2.00000
    125      -2.3557      2.00000
    126      -2.3532      2.00000
    127      -2.3319      2.00000
    128      -2.2890      2.00000
    129      -2.2818      2.00000
    130      -2.2759      2.00000
    131      -2.2453      2.00000
    132      -2.2383      2.00000
    133      -2.2376      2.00000
    134      -2.2233      2.00000
    135      -2.1889      2.00000
    136      -2.1144      2.00000
    137      -2.1108      2.00000
    138      -2.0987      2.00000
    139      -2.0514      2.00000
    140      -2.0455      2.00000
    141      -2.0385      2.00000
    142      -2.0280      2.00000
    143      -2.0248      2.00000
    144      -2.0171      2.00000
    145      -1.9541      2.00000
    146      -1.9218      2.00000
    147      -1.8477      2.00000
    148      -1.8460      2.00000
    149      -1.8305      2.00000
    150      -1.8236      2.00000
    151      -1.8178      2.00000
    152      -1.8006      2.00000
    153      -1.7992      2.00000
    154      -1.7565      2.00000
    155      -1.7333      2.00000
    156      -1.7021      2.00000
    157      -1.6900      2.00000
    158      -1.6840      2.00000
    159      -1.6694      2.00000
    160      -1.6512      2.00000
    161      -1.6353      2.00000
    162      -1.6352      2.00000
[...]
  0.000   0.000   0.000   0.000   0.000   0.000   0.000   0.000   0.000   0.000   0.000   0.000   0.000   0.000   0.000   0.000
  0.000   0.000   0.000   0.000   0.000   0.000   0.000   0.000   0.000   0.000   0.000   0.000   0.000   0.000   0.000   0.000
  0.000   0.000   0.000   0.000   0.000   0.000   0.000   0.000   0.000   0.000   0.000   0.000   0.000   0.000   0.000   0.000
  0.000   0.000   0.000   0.000   0.000   0.000   0.000   0.000   0.000   0.000   0.000   0.000   0.000   0.000   0.000   0.000
  0.000   0.000   0.000   0.000   0.000   0.000   0.000   0.000   0.000   0.000   0.000   0.000   0.000   0.000   0.000   0.000
  0.000   0.000   0.000   0.000   0.000   0.000   0.000   0.000   0.000   0.000   1.000   0.000   0.000   0.000   0.000   0.000
  0.000   0.000   0.000   0.000   0.000   0.000   0.000   0.000   0.000   0.000   0.000   0.000   0.000   0.000   0.000   0.000
  0.000   0.000   0.000   0.000   0.000   0.000   0.000   0.000   0.000   0.000   0.000   0.000   0.000   0.000   0.000   0.000
  0.000   0.000   0.000   0.000   0.000   0.000   0.000   0.000   0.000   0.000   0.000   0.000   0.000   0.000   0.000   0.000
  0.000   0.000   0.000   0.000   0.000   0.000   0.000   0.000   0.000   0.000   0.000   0.000   0.000   0.000   0.000   0.000
  0.000   0.000   0.000   0.000   0.000   0.000   0.000   0.000   0.000   0.000   0.000   0.000   0.000   0.000   0.000   0.000
  0.000   0.000   0.000   0.000   0.000   0.000   0.000   0.000   0.000   0.000   0.000   0.000   0.000   0.000   0.000   0.000
  0.000   0.000   0.000   0.000   0.000   0.000   0.000   0.000   0.000   0.000   0.000   0.000   0.000   0.000   0.000   0.000


------------------------ aborting loop because EDIFF is reached ----------------------------------------





 total charge

# of ion       s       p       d       tot
------------------------------------------
    1        0.544   0.239   8.772   9.555
    2        0.545   0.241   8.766   9.552
    3        0.545   0.241   8.766   9.552
    4        0.545   0.241   8.766   9.552
    5        0.543   0.242   8.765   9.550
    6        0.545   0.241   8.766   9.552
    7        0.545   0.241   8.766   9.552
    8        0.545   0.241   8.766   9.552
    9        0.543   0.241   8.764   9.548
   10        0.519   0.309   8.773   9.601
   11        0.517   0.307   8.774   9.597
   12        0.519   0.309   8.773   9.601
   13        0.517   0.307   8.774   9.597
   14        0.517   0.307   8.774   9.597
   15        0.516   0.307   8.778   9.601
   16        0.519   0.309   8.773   9.601
   17        0.516   0.307   8.778   9.601
   18        0.516   0.307   8.778   9.601
   19        0.514   0.307   8.770   9.591
   20        0.532   0.314   8.763   9.610
   21        0.532   0.314   8.763   9.610
   22        0.515   0.303   8.776   9.594
   23        0.532   0.314   8.763   9.610
   24        0.515   0.303   8.776   9.594
   25        0.514   0.307   8.770   9.591
   26        0.514   0.307   8.770   9.591
   27        0.515   0.303   8.776   9.594
   28        0.546   0.230   8.772   9.548
   29        0.529   0.230   8.777   9.536
   30        0.529   0.230   8.777   9.536
   31        0.529   0.230   8.777   9.536
   32        0.529   0.230   8.777   9.536
   33        0.529   0.230   8.777   9.536
   34        0.529   0.230   8.777   9.536
   35        0.543   0.234   8.765   9.542
   36        0.473   0.534   8.397   9.404
   37        1.605   3.146   0.000   4.751
--------------------------------------------------
tot         20.576  13.229 315.397 349.201
 
    CHARGE:  cpu time    0.3365: real time    0.3366
    FORLOC:  cpu time    0.0100: real time    0.0100
    FORNL :  cpu time    1.4426: real time    1.4427
    STRESS:  cpu time    4.3174: real time    4.3177
    FORCOR:  cpu time    0.0440: real time    0.0441
    FORHAR:  cpu time    0.0166: real time    0.0166
    OFIELD:  cpu time    0.0002: real time    0.0002

  FORCE on cell =-STRESS in cart. coord.  units (eV):
  Direction    XX          YY          ZZ          XY          YZ          ZX
  --------------------------------------------------------------------------------------
  Alpha Z  1019.04168  1019.04168  1019.04168
  Ewald  119650.64642119650.64684************    -0.00033    -0.00008    -0.00012
  Hartree128508.56608128508.56609************     0.00000    -0.00002    -0.00003
  E(xc)   -1809.59650 -1809.59652 -1815.53678     0.00002    -0.00000    -0.00000
  Local  ************************260620.12388     0.00207     0.00001    -0.00003
  n-local  -110.37141   -59.26550   -57.52449    23.08910    -1.21270     1.33769
  augment  2450.50755  2450.50912  2457.45797    -0.00137     0.00003     0.00004
  Kinetic  5611.78972  5624.46143  5645.65135     5.15146     0.40214     0.33993
  Fock        0.00000     0.00000     0.00000     0.00000     0.00000     0.00000
  -------------------------------------------------------------------------------------
  Total     -20.26235   -20.26235     1.77221    -0.00000     0.00000    -0.00000
  in kB     -21.74167   -21.74167     1.90160    -0.00000     0.00000    -0.00000
  external pressure =      -13.86 kB  Pullay stress =        0.00 kB


 VOLUME and BASIS-vectors are now :
 -----------------------------------------------------------------------------
  energy-cutoff  :      500.00
  volume of cell :     1493.16
      direct lattice vectors                 reciprocal lattice vectors
     8.813512802  0.000000000  0.000000000     0.113462137 -0.065507406  0.000000000
     4.406756909  7.632725690  0.000000000     0.000000000  0.131014796  0.000000000
     0.000000000  0.000000000 22.196203232     0.000000000  0.000000000  0.045052750

  length of vectors
     8.813512802  8.813512802 22.196203232     0.131014796  0.131014796  0.045052750


 FORCES acting on ions
    electron-ion (+dipol)            ewald-force                    non-local-force                 convergence-correction
 -----------------------------------------------------------------------------------------------
   -.195E-04 -.161E-04 0.250E+04   0.518E-04 0.433E-04 -.250E+04   -.278E-17 0.176E-17 -.815E+00   -.254E-03 -.160E-03 -.504E+00
   -.151E+00 0.155E+00 0.250E+04   0.352E-01 -.190E+00 -.250E+04   0.410E-01 0.615E-01 -.368E+00   0.748E-01 -.177E-01 -.441E+00
   0.151E+00 0.155E+00 0.250E+04   -.352E-01 -.190E+00 -.250E+04   -.410E-01 0.615E-01 -.368E+00   -.745E-01 -.158E-01 -.441E+00
   0.591E-01 -.208E+00 0.250E+04   -.147E+00 0.125E+00 -.250E+04   0.737E-01 0.477E-02 -.368E+00   0.222E-01 0.736E-01 -.441E+00
   0.917E-05 -.229E-04 0.250E+04   0.952E-04 0.169E-05 -.250E+04   -.120E-17 0.135E-17 -.248E+00   0.420E-02 0.256E-02 -.321E+00
   -.591E-01 -.208E+00 0.250E+04   0.147E+00 0.125E+00 -.250E+04   -.737E-01 0.477E-02 -.368E+00   -.236E-01 0.744E-01 -.440E+00
   0.210E+00 0.530E-01 0.250E+04   -.182E+00 0.644E-01 -.250E+04   0.327E-01 -.662E-01 -.368E+00   -.509E-01 -.566E-01 -.440E+00
   -.210E+00 0.530E-01 0.250E+04   0.182E+00 0.644E-01 -.250E+04   -.327E-01 -.662E-01 -.368E+00   0.527E-01 -.577E-01 -.441E+00
   0.191E-04 -.417E-04 0.250E+04   0.166E-03 -.200E-04 -.250E+04   0.327E-17 -.175E-17 -.554E+00   -.449E-02 -.232E-02 -.462E+00
   0.742E-01 0.428E-01 0.862E+03   -.158E-01 -.902E-02 -.861E+03   -.167E+00 -.964E-01 -.576E+00   0.138E+00 0.797E-01 0.380E+00
   0.141E-04 0.157E+01 0.862E+03   0.148E-03 -.172E+01 -.862E+03   0.319E-08 0.479E-01 -.179E+00   0.411E-02 0.806E-01 0.362E+00
   -.742E-01 0.428E-01 0.862E+03   0.157E-01 -.905E-02 -.861E+03   0.167E+00 -.964E-01 -.576E+00   -.140E+00 0.801E-01 0.379E+00
   0.136E+01 -.785E+00 0.862E+03   -.149E+01 0.860E+00 -.862E+03   0.415E-01 -.240E-01 -.179E+00   0.721E-01 -.365E-01 0.362E+00
   -.136E+01 -.785E+00 0.862E+03   0.149E+01 0.860E+00 -.862E+03   -.415E-01 -.240E-01 -.179E+00   -.652E-01 -.378E-01 0.360E+00
   0.312E-04 -.117E+01 0.860E+03   0.236E-03 0.118E+01 -.859E+03   0.369E-09 0.554E-02 -.471E+00   -.182E-02 -.151E-01 0.266E+00
   -.211E-04 -.857E-01 0.862E+03   0.162E-03 0.181E-01 -.861E+03   0.128E-07 0.193E+00 -.576E+00   -.635E-03 -.161E+00 0.379E+00
   -.101E+01 0.584E+00 0.860E+03   0.103E+01 -.592E+00 -.859E+03   0.480E-02 -.277E-02 -.471E+00   -.137E-01 0.640E-02 0.266E+00
   0.101E+01 0.584E+00 0.860E+03   -.103E+01 -.592E+00 -.859E+03   -.480E-02 -.277E-02 -.471E+00   0.146E-01 0.815E-02 0.268E+00
   -.405E-04 -.103E+01 -.798E+03   0.528E-04 0.899E+00 0.797E+03   0.851E-08 0.128E+00 0.706E+00   0.692E-03 0.230E-01 0.863E+00
   0.142E+02 0.823E+01 -.780E+03   -.138E+02 -.798E+01 0.779E+03   -.593E+00 -.343E+00 -.315E+00   0.233E+00 0.134E+00 0.113E+01
   -.142E+02 0.823E+01 -.780E+03   0.138E+02 -.798E+01 0.779E+03   0.593E+00 -.343E+00 -.315E+00   -.239E+00 0.133E+00 0.113E+01
   0.722E+01 -.417E+01 -.797E+03   -.746E+01 0.431E+01 0.796E+03   0.690E-01 -.398E-01 0.612E+00   0.184E+00 -.101E+00 0.900E+00
   -.142E-04 -.165E+02 -.780E+03   0.145E-03 0.160E+02 0.779E+03   0.456E-07 0.685E+00 -.315E+00   -.505E-02 -.273E+00 0.113E+01
   -.722E+01 -.417E+01 -.797E+03   0.746E+01 0.431E+01 0.796E+03   -.690E-01 -.398E-01 0.612E+00   -.176E+00 -.102E+00 0.900E+00
   0.895E+00 0.517E+00 -.798E+03   -.779E+00 -.449E+00 0.797E+03   -.111E+00 -.639E-01 0.706E+00   -.215E-01 -.125E-01 0.863E+00
   -.895E+00 0.517E+00 -.798E+03   0.778E+00 -.449E+00 0.797E+03   0.111E+00 -.639E-01 0.706E+00   0.205E-01 -.108E-01 0.863E+00
   0.623E-05 0.834E+01 -.797E+03   0.200E-03 -.861E+01 0.796E+03   0.531E-08 0.797E-01 0.612E+00   0.379E-02 0.210E+00 0.900E+00
   -.107E-04 -.126E-04 -.245E+04   0.275E-04 0.342E-04 0.245E+04   0.987E-17 0.635E-17 0.446E+00   -.127E-03 -.927E-04 0.979E+00
   0.210E+02 0.345E+02 -.243E+04   -.215E+02 -.355E+02 0.243E+04   0.105E+00 0.350E+00 0.925E+00   0.265E+00 0.545E+00 0.105E+01
   -.210E+02 0.345E+02 -.243E+04   0.215E+02 -.355E+02 0.243E+04   -.105E+00 0.350E+00 0.925E+00   -.265E+00 0.546E+00 0.104E+01
   0.404E+02 0.987E+00 -.243E+04   -.415E+02 -.857E+00 0.243E+04   0.355E+00 -.838E-01 0.925E+00   0.605E+00 -.427E-01 0.105E+01
   -.404E+02 0.987E+00 -.243E+04   0.415E+02 -.857E+00 0.243E+04   -.355E+00 -.838E-01 0.925E+00   -.605E+00 -.422E-01 0.105E+01
   0.193E+02 -.355E+02 -.243E+04   -.200E+02 0.364E+02 0.243E+04   0.250E+00 -.266E+00 0.925E+00   0.340E+00 -.503E+00 0.104E+01
   -.193E+02 -.355E+02 -.243E+04   0.200E+02 0.364E+02 0.243E+04   -.250E+00 -.266E+00 0.925E+00   -.339E+00 -.503E+00 0.105E+01
   0.278E-04 -.282E-04 -.245E+04   0.149E-03 -.492E-04 0.245E+04   0.101E-17 0.242E-19 0.452E+00   -.397E-02 -.200E-02 0.962E+00
   0.295E-04 -.157E-04 -.195E+04   0.992E-04 0.867E-05 0.195E+04   0.345E-18 0.118E-17 -.404E+01   0.431E-02 0.265E-02 0.212E+01
   0.182E-03 -.986E-04 -.165E+04   0.198E-04 0.130E-05 0.167E+04   0.433E-17 -.173E-18 -.242E+02   0.358E-02 0.219E-02 -.793E-01
 -----------------------------------------------------------------------------------------------
   -.484E-03 -.842E-03 0.920E+01   -.214E-13 -.200E-14 -.432E-11   -.498E-16 -.221E-15 -.263E+02   0.128E-01 0.820E-02 0.180E+02
 
 
 POSITION                                       TOTAL-FORCE (eV/Angst)
 -----------------------------------------------------------------------------------
      0.00000      0.00000      5.28038         0.000000      0.000000     -0.084081
      2.93784      0.00000      5.28038         0.000559      0.010159     -0.057207
      5.87568      0.00000      5.28038        -0.000559      0.010159     -0.057207
      1.46892      2.54424      5.28038         0.009078     -0.004595     -0.057207
      4.40676      2.54424      5.28038         0.000000      0.000000     -0.048191
      7.34459      2.54424      5.28038        -0.009078     -0.004595     -0.057207
      2.93784      5.08848      5.28038         0.008519     -0.005564     -0.057207
      5.87568      5.08848      5.28038        -0.008519     -0.005564     -0.057207
      8.81351      5.08848      5.28038         0.000000      0.000000     -0.078785
      1.46892      0.84808      7.67911         0.030454      0.017582      0.095981
      4.40676      0.84808      7.67911        -0.000000     -0.023621      0.097834
      7.34459      0.84808      7.67911        -0.030454      0.017582      0.095981
      2.93784      3.39232      7.67911        -0.020456      0.011810      0.097834
      5.87568      3.39232      7.67911         0.020456      0.011810      0.097834
      8.81351      3.39232      7.67911         0.000000      0.007245      0.096178
      4.40676      5.93656      7.67911        -0.000000     -0.035165      0.095981
      7.34459      5.93656      7.67911         0.006274     -0.003622      0.096178
     10.28243      5.93656      7.67911        -0.006274     -0.003622      0.096178
      8.81351      1.69299     10.06281         0.000000      0.016864      0.015480
      2.93673      1.69552     10.07074         0.075145      0.043385     -0.105498
      5.87678      1.69552     10.07074        -0.075145      0.043385     -0.105498
     10.28200      4.24065     10.07064         0.011358     -0.006558     -0.016660
      4.40676      4.24168     10.07074        -0.000000     -0.086770     -0.105498
      7.34503      4.24065     10.07064        -0.011358     -0.006558     -0.016660
     11.75410      6.78623     10.06281        -0.014605     -0.008432      0.015480
      5.87293      6.78623     10.06281         0.014605     -0.008432      0.015480
      8.81351      6.78414     10.07064         0.000000      0.013116     -0.016660
      0.00000      0.00000     12.49359         0.000000      0.000000     -0.044360
      2.94266      0.00661     12.49157        -0.092933     -0.168505     -0.063236
      5.87086      0.00661     12.49157         0.092933     -0.168505     -0.063236
      1.47706      2.54511     12.49157        -0.192396      0.003770     -0.063236
      7.33646      2.54511     12.49157         0.192396      0.003770     -0.063236
      2.94116      5.08100     12.49157        -0.099463      0.164735     -0.063236
      5.87236      5.08100     12.49157         0.099463      0.164735     -0.063236
      8.81351      5.08848     12.49778         0.000000      0.000000     -0.021674
      4.40676      2.54424     12.34091         0.000000      0.000000      0.542557
      4.40676      2.54424     14.17776         0.000000      0.000000     -0.092757
 -----------------------------------------------------------------------------------
    total drift:                                0.012351      0.007360      0.971696


--------------------------------------------------------------------------------------------------------



  FREE ENERGIE OF THE ION-ELECTRON SYSTEM (eV)
  ---------------------------------------------------
  free  energy   TOTEN  =      -116.11740274 eV

  energy  without entropy=     -116.11740274  energy(sigma->0) =     -116.11740274
 


--------------------------------------------------------------------------------------------------------


    POTLOK:  cpu time    0.0420: real time    0.0420


--------------------------------------------------------------------------------------------------------


 stress matrix after NEB project (eV)
    -20.26235     -0.00000     -0.00000
     -0.00000    -20.26235      0.00000
      0.00000      0.00000      1.77221
  FORCES: max atom, RMS     0.092757    0.015249
  FORCE total and by dimension    0.092757    0.092757
  Stress total and by dimension   28.710037   20.262349
     LOOP+:  cpu time   69.1321: real time   69.1448
 -----------------------------------------------------------------------------
|                                                                             |
|           W    W    AA    RRRRR   N    N  II  N    N   GGGG   !!!           |
|           W    W   A  A   R    R  NN   N  II  NN   N  G    G  !!!           |
|           W    W  A    A  R    R  N N  N  II  N N  N  G       !!!           |
|           W WW W  AAAAAA  RRRRR   N  N N  II  N  N N  G  GGG   !            |
|           WW  WW  A    A  R   R   N   NN  II  N   NN  G    G                |
|           W    W  A    A  R    R  N    N  II  N    N   GGGG   !!!           |
|                                                                             |
|     Tetrahedron method does not include variations of the Fermi             |
|     occupations, so forces and stress will be inaccurate. We suggest        |
|     using a different smearing scheme ISMEAR = 1 or 2 for metals in         |
|     relaxations.                                                            |
|                                                                             |
 -----------------------------------------------------------------------------

    4ORBIT:  cpu time    0.0000: real time    0.0000



 total charge

# of ion       s       p       d       tot
------------------------------------------
    1        0.544   0.239   8.772   9.555
    2        0.545   0.241   8.766   9.552
    3        0.545   0.241   8.766   9.552
    4        0.545   0.241   8.766   9.552
    5        0.543   0.242   8.765   9.550
    6        0.545   0.241   8.766   9.552
    7        0.545   0.241   8.766   9.552
    8        0.545   0.241   8.766   9.552
    9        0.543   0.241   8.764   9.548
   10        0.519   0.309   8.773   9.601
   11        0.517   0.307   8.774   9.597
   12        0.519   0.309   8.773   9.601
   13        0.517   0.307   8.774   9.597
   14        0.517   0.307   8.774   9.597
   15        0.516   0.307   8.778   9.601
   16        0.519   0.309   8.773   9.601
   17        0.516   0.307   8.778   9.601
   18        0.516   0.307   8.778   9.601
   19        0.514   0.307   8.770   9.591
   20        0.532   0.314   8.763   9.610
   21        0.532   0.314   8.763   9.610
   22        0.515   0.303   8.776   9.594
   23        0.532   0.314   8.763   9.610
   24        0.515   0.303   8.776   9.594
   25        0.514   0.307   8.770   9.591
   26        0.514   0.307   8.770   9.591
   27        0.515   0.303   8.776   9.594
   28        0.546   0.230   8.772   9.548
   29        0.529   0.230   8.777   9.536
   30        0.529   0.230   8.777   9.536
   31        0.529   0.230   8.777   9.536
   32        0.529   0.230   8.777   9.536
   33        0.529   0.230   8.777   9.536
   34        0.529   0.230   8.777   9.536
   35        0.543   0.234   8.765   9.542
   36        0.473   0.534   8.397   9.404
   37        1.605   3.146   0.000   4.751
--------------------------------------------------
tot         20.576  13.229 315.397 349.201
 
 BZINTS: Fermi energy:    0.573943;  401.000000 electrons
         Band energy:-0.126345E+04;  BLOECHL correction:   -0.055509

 total amount of memory used by VASP MPI-rank0   122169. kBytes
=======================================================================

   base      :      30000. kBytes
   nonlr-proj:      13784. kBytes
   fftplans  :       4330. kBytes
   grid      :      17879. kBytes
   one-center:        575. kBytes
   wavefun   :      55601. kBytes
 
  
  
 General timing and accounting informations for this job:
 ========================================================
  
                  Total CPU time used (sec):       76.449
                            User time (sec):       73.530
                          System time (sec):        2.919
                         Elapsed time (sec):       76.805
  
                   Maximum memory used (kb):      378396.
                   Average memory used (kb):          N/A
  
                          Minor page faults:        69434
                          Major page faults:            0
                 Voluntary context switches:         4412
