PROCAR new format
# of k-points:   10         # of bands:  252         # of ions:   37

 k-point     1 :    0.00000000 0.00000000 0.00000000     weight = 0.01562500

band     1 # energy  -16.26948240 # occ.  2.00000000
 
ion      s      p      d    tot
    1  0.000  0.000  0.000  0.000
    2  0.000  0.000  0.000  0.000
    3  0.000  0.000  0.000  0.000
    4  0.000  0.000  0.000  0.000
    5  0.000  0.000  0.000  0.000
    6  0.000  0.000  0.000  0.000
    7  0.000  0.000  0.000  0.000
    8  0.000  0.000  0.000  0.000
    9  0.000  0.000  0.000  0.000
   10  0.000  0.000  0.000  0.000
   11  0.000  0.000  0.000  0.000
   12  0.000  0.000  0.000  0.000
   13  0.000  0.000  0.000  0.000
   14  0.000  0.000  0.000  0.000
   15  0.000  0.000  0.000  0.000
   16  0.000  0.000  0.000  0.000
   17  0.000  0.000  0.000  0.000
   18  0.000  0.000  0.000  0.000
   19  0.000  0.000  0.000  0.000
   20  0.000  0.000  0.000  0.000
   21  0.000  0.000  0.000  0.000
   22  0.000  0.000  0.000  0.000
   23  0.000  0.000  0.000  0.000
   24  0.000  0.000  0.000  0.000
   25  0.000  0.000  0.000  0.000
   26  0.000  0.000  0.000  0.000
   27  0.000  0.000  0.000  0.000
   28  0.000  0.000  0.000  0.000
   29  0.000  0.000  0.000  0.000
   30  0.000  0.000  0.000  0.000
   31  0.000  0.000  0.000  0.000
   32  0.000  0.000  0.000  0.000
   33  0.000  0.000  0.000  0.000
   34  0.000  0.000  0.000  0.000
   35  0.000  0.000  0.000  0.000
   36  0.025  0.037  0.060  0.121
   37  0.767  0.010  0.000  0.777
tot    0.792  0.047  0.060  0.899
 
band     2 # energy   -8.20596145 # occ.  2.00000000
 
ion      s      p      d    tot
    1  0.007  0.001  0.000  0.008
    2  0.007  0.001  0.000  0.007
    3  0.007  0.001  0.000  0.007
    4  0.007  0.001  0.000  0.007
    5  0.007  0.001  0.000  0.007
    6  0.007  0.001  0.000  0.007
    7  0.007  0.001  0.000  0.007
    8  0.007  0.001  0.000  0.007
    9  0.007  0.001  0.000  0.007
   10  0.028  0.000  0.000  0.028
   11  0.027  0.000  0.000  0.027
   12  0.028  0.000  0.000  0.028
   13  0.027  0.000  0.000  0.027
   14  0.027  0.000  0.000  0.027
   15  0.027  0.000  0.000  0.028
   16  0.028  0.000  0.000  0.028
   17  0.027  0.000  0.000  0.028
   18  0.027  0.000  0.000  0.028
   19  0.024  0.000  0.000  0.025
   20  0.024  0.000  0.000  0.024
   21  0.024  0.000  0.000  0.024
   22  0.024  0.000  0.000  0.024
   23  0.024  0.000  0.000  0.024
   24  0.024  0.000  0.000  0.024
   25  0.024  0.000  0.000  0.025
   26  0.024  0.000  0.000  0.025
   27  0.024  0.000  0.000  0.024
   28  0.005  0.000  0.000  0.005
   29  0.005  0.000  0.000  0.005
   30  0.005  0.000  0.000  0.005
   31  0.005  0.000  0.000  0.005
   32  0.005  0.000  0.000  0.005
   33  0.005  0.000  0.000  0.005
   34  0.005  0.000  0.000  0.005
   35  0.005  0.000  0.000  0.005
   36  0.003  0.001  0.000  0.004
   37  0.000  0.000  0.000  0.000
tot    0.565  0.012  0.003  0.580
 
band     3 # energy   -7.02544428 # occ.  2.00000000
 
ion      s      p      d    tot
    1  0.017  0.000  0.001  0.019
    2  0.017  0.000  0.001  0.018
    3  0.017  0.000  0.001  0.018
    4  0.017  0.000  0.001  0.018
    5  0.017  0.000  0.001  0.018
    6  0.017  0.000  0.001  0.018
    7  0.017  0.000  0.001  0.018
    8  0.017  0.000  0.001  0.018
    9  0.016  0.000  0.001  0.018
   10  0.010  0.002  0.002  0.014
   11  0.010  0.002  0.002  0.014
   12  0.010  0.002  0.002  0.014
   13  0.010  0.002  0.002  0.014
   14  0.010  0.002  0.002  0.014
   15  0.009  0.002  0.003  0.013
   16  0.010  0.002  0.002  0.014
   17  0.009  0.002  0.003  0.013
   18  0.009  0.002  0.003  0.013
   19  0.016  0.001  0.004  0.021
   20  0.014  0.001  0.004  0.019
   21  0.014  0.001  0.004  0.019
   22  0.016  0.001  0.003  0.020
   23  0.014  0.001  0.004  0.019
   24  0.016  0.001  0.003  0.020
   25  0.016  0.001  0.004  0.021
   26  0.016  0.001  0.004  0.021
   27  0.016  0.001  0.003  0.020
   28  0.016  0.001  0.001  0.017
   29  0.014  0.001  0.000  0.015
   30  0.014  0.001  0.000  0.015
   31  0.014  0.001  0.000  0.015
   32  0.014  0.001  0.000  0.015
   33  0.014  0.001  0.000  0.015
   34  0.014  0.001  0.000  0.015
   35  0.016  0.001  0.001  0.017
   36  0.008  0.001  0.000  0.009
   37  0.000  0.000  0.000  0.001
tot    0.495  0.033  0.070  0.598
 
band     4 # energy   -6.09543012 # occ.  2.00000000
 
ion      s      p      d    tot
    1  0.016  0.000  0.023  0.039
    2  0.021  0.000  0.020  0.041
    3  0.021  0.000  0.020  0.041
    4  0.021  0.000  0.020  0.041
    5  0.019  0.000  0.019  0.038
    6  0.021  0.000  0.020  0.041
    7  0.021  0.000  0.020  0.041
    8  0.021  0.000  0.020  0.041
    9  0.028  0.000  0.018  0.046
   10  0.012  0.001  0.021  0.033
   11  0.010  0.001  0.021  0.032
   12  0.012  0.001  0.021  0.033
   13  0.010  0.001  0.021  0.032
   14  0.010  0.001  0.021  0.032
   15  0.003  0.001  0.024  0.028
   16  0.012  0.001  0.021  0.033
   17  0.003  0.001  0.024  0.028
   18  0.003  0.001  0.024  0.028
   19  0.000  0.001  0.002  0.003
   20  0.001  0.001  0.002  0.004
   21  0.001  0.001  0.002  0.004
   22  0.001  0.001  0.001  0.002
   23  0.001  0.001  0.002  0.004
   24  0.001  0.001  0.001  0.002
   25  0.000  0.001  0.002  0.003
   26  0.000  0.001  0.002  0.003
   27  0.001  0.001  0.001  0.002
   28  0.004  0.000  0.001  0.005
   29  0.003  0.000  0.001  0.004
   30  0.003  0.000  0.001  0.004
   31  0.003  0.000  0.001  0.004
   32  0.003  0.000  0.001  0.004
   33  0.003  0.000  0.001  0.004
   34  0.003  0.000  0.001  0.004
   35  0.005  0.000  0.001  0.006
   36  0.000  0.000  0.002  0.002
   37  0.000  0.000  0.000  0.000
tot    0.294  0.014  0.405  0.713
 
band     5 # energy   -6.06069420 # occ.  2.00000000
 
ion      s      p      d    tot
    1  0.019  0.002  0.000  0.020
    2  0.000  0.001  0.006  0.007
    3  0.000  0.001  0.006  0.007
    4  0.000  0.001  0.006  0.007
    5  0.000  0.000  0.003  0.004
    6  0.000  0.001  0.006  0.007
    7  0.000  0.001  0.006  0.007
    8  0.000  0.001  0.006  0.007
    9  0.003  0.001  0.001  0.005
   10  0.018  0.001  0.021  0.040
   11  0.003  0.001  0.025  0.028
   12  0.018  0.001  0.021  0.040
   13  0.003  0.001  0.025  0.028
   14  0.003  0.001  0.025  0.028
   15  0.021  0.003  0.003  0.027
   16  0.018  0.001  0.021  0.040
   17  0.021  0.003  0.003  0.027
   18  0.021  0.003  0.003  0.027
   19  0.013  0.003  0.010  0.026
   20  0.009  0.000  0.025  0.034
   21  0.009  0.000  0.025  0.034
   22  0.016  0.001  0.014  0.032
   23  0.009  0.000  0.025  0.034
   24  0.016  0.001  0.014  0.032
   25  0.013  0.003  0.010  0.026
   26  0.013  0.003  0.010  0.026
   27  0.016  0.001  0.014  0.032
   28  0.000  0.000  0.001  0.002
   29  0.001  0.000  0.005  0.007
   30  0.001  0.000  0.005  0.007
   31  0.001  0.000  0.005  0.007
   32  0.001  0.000  0.005  0.007
   33  0.001  0.000  0.005  0.007
   34  0.001  0.000  0.005  0.007
   35  0.018  0.001  0.000  0.019
   36  0.001  0.001  0.008  0.010
   37  0.000  0.001  0.000  0.001
tot    0.292  0.038  0.374  0.704
 
band     6 # energy   -6.04965023 # occ.  2.00000000
 
ion      s      p      d    tot
    1  0.000  0.001  0.009  0.010
    2  0.000  0.000  0.003  0.004
    3  0.005  0.001  0.004  0.010
    4  0.000  0.000  0.003  0.004
    5  0.000  0.000  0.001  0.002
    6  0.007  0.001  0.003  0.011
    7  0.005  0.001  0.004  0.011
    8  0.007  0.001  0.003  0.012
    9  0.000  0.000  0.008  0.009
   10  0.000  0.003  0.028  0.031
   11  0.003  0.001  0.013  0.017
   12  0.043  0.002  0.016  0.060
   13  0.003  0.001  0.012  0.016
   14  0.000  0.004  0.003  0.007
   15  0.024  0.001  0.012  0.038
   16  0.046  0.001  0.015  0.062
   17  0.023  0.001  0.014  0.038
   18  0.000  0.000  0.040  0.040
   19  0.040  0.002  0.013  0.054
   20  0.000  0.000  0.030  0.030
   21  0.016  0.001  0.012  0.029
   22  0.004  0.001  0.011  0.016
   23  0.017  0.001  0.011  0.029
   24  0.000  0.004  0.003  0.007
   25  0.000  0.002  0.029  0.032
   26  0.037  0.002  0.014  0.053
   27  0.005  0.001  0.011  0.017
   28  0.000  0.001  0.006  0.007
   29  0.004  0.001  0.003  0.007
   30  0.000  0.000  0.002  0.002
   31  0.004  0.001  0.003  0.007
   32  0.004  0.001  0.002  0.007
   33  0.000  0.000  0.002  0.002
   34  0.003  0.001  0.002  0.006
   35  0.000  0.000  0.001  0.001
   36  0.000  0.000  0.004  0.005
   37  0.000  0.000  0.000  0.000
tot    0.302  0.042  0.349  0.693
 
band     7 # energy   -6.04964287 # occ.  2.00000000
 
ion      s      p      d    tot
    1  0.000  0.001  0.009  0.010
    2  0.008  0.001  0.004  0.013
    3  0.003  0.001  0.003  0.007
    4  0.008  0.001  0.004  0.013
    5  0.000  0.000  0.001  0.002
    6  0.001  0.001  0.004  0.006
    7  0.003  0.001  0.003  0.006
    8  0.001  0.000  0.004  0.005
    9  0.000  0.000  0.008  0.008
   10  0.060  0.001  0.011  0.072
   11  0.001  0.003  0.006  0.010
   12  0.017  0.002  0.023  0.042
   13  0.001  0.003  0.006  0.011
   14  0.004  0.000  0.015  0.020
   15  0.007  0.001  0.032  0.039
   16  0.013  0.002  0.024  0.040
   17  0.009  0.001  0.030  0.039
   18  0.031  0.002  0.004  0.037
   19  0.012  0.002  0.025  0.038
   20  0.022  0.002  0.005  0.029
   21  0.006  0.001  0.023  0.030
   22  0.002  0.003  0.006  0.011
   23  0.005  0.001  0.024  0.030
   24  0.006  0.000  0.014  0.020
   25  0.052  0.001  0.008  0.061
   26  0.014  0.002  0.023  0.040
   27  0.001  0.003  0.006  0.010
   28  0.000  0.001  0.006  0.007
   29  0.001  0.000  0.002  0.004
   30  0.005  0.001  0.002  0.008
   31  0.001  0.000  0.002  0.003
   32  0.001  0.000  0.002  0.004
   33  0.005  0.001  0.002  0.008
   34  0.001  0.000  0.002  0.004
   35  0.000  0.000  0.001  0.001
   36  0.000  0.000  0.004  0.005
   37  0.000  0.000  0.000  0.000
tot    0.302  0.042  0.349  0.693
 
band     8 # energy   -6.04232007 # occ.  2.00000000
 
ion      s      p      d    tot
    1  0.000  0.000  0.003  0.003
    2  0.000  0.000  0.003  0.004
    3  0.005  0.001  0.004  0.010
    4  0.000  0.000  0.003  0.004
    5  0.000  0.001  0.011  0.012
    6  0.007  0.001  0.003  0.011
    7  0.005  0.001  0.004  0.010
    8  0.007  0.001  0.003  0.011
    9  0.000  0.001  0.004  0.005
   10  0.004  0.001  0.010  0.015
   11  0.014  0.001  0.034  0.049
   12  0.001  0.002  0.017  0.019
   13  0.015  0.001  0.034  0.049
   14  0.058  0.002  0.004  0.063
   15  0.008  0.004  0.010  0.021
   16  0.001  0.002  0.017  0.019
   17  0.008  0.003  0.010  0.021
   18  0.032  0.000  0.016  0.048
   19  0.000  0.002  0.012  0.014
   20  0.032  0.000  0.013  0.045
   21  0.008  0.003  0.012  0.023
   22  0.012  0.001  0.029  0.042
   23  0.008  0.003  0.012  0.022
   24  0.048  0.002  0.004  0.053
   25  0.002  0.001  0.010  0.012
   26  0.000  0.002  0.012  0.014
   27  0.012  0.001  0.030  0.042
   28  0.000  0.000  0.002  0.002
   29  0.004  0.001  0.003  0.008
   30  0.000  0.000  0.002  0.002
   31  0.004  0.001  0.003  0.008
   32  0.004  0.001  0.002  0.007
   33  0.000  0.000  0.002  0.002
   34  0.004  0.001  0.002  0.007
   35  0.000  0.001  0.008  0.008
   36  0.000  0.001  0.003  0.004
   37  0.000  0.000  0.000  0.000
tot    0.303  0.042  0.349  0.693
 
band     9 # energy   -6.04231095 # occ.  2.00000000
 
ion      s      p      d    tot
    1  0.000  0.000  0.003  0.003
    2  0.008  0.001  0.004  0.013
    3  0.003  0.001  0.003  0.007
    4  0.008  0.001  0.004  0.013
    5  0.000  0.001  0.011  0.012
    6  0.001  0.001  0.004  0.005
    7  0.003  0.001  0.003  0.006
    8  0.001  0.001  0.004  0.005
    9  0.000  0.001  0.004  0.005
   10  0.000  0.002  0.019  0.021
   11  0.044  0.002  0.014  0.059
   12  0.003  0.001  0.012  0.016
   13  0.043  0.002  0.014  0.059
   14  0.000  0.001  0.044  0.044
   15  0.024  0.001  0.014  0.039
   16  0.003  0.001  0.012  0.016
   17  0.024  0.001  0.014  0.039
   18  0.000  0.005  0.008  0.012
   19  0.001  0.001  0.010  0.013
   20  0.000  0.004  0.011  0.015
   21  0.024  0.001  0.012  0.038
   22  0.035  0.002  0.013  0.050
   23  0.024  0.001  0.012  0.038
   24  0.000  0.000  0.038  0.039
   25  0.000  0.002  0.012  0.014
   26  0.001  0.001  0.010  0.013
   27  0.036  0.002  0.012  0.050
   28  0.000  0.000  0.002  0.002
   29  0.001  0.000  0.002  0.004
   30  0.006  0.001  0.003  0.009
   31  0.001  0.000  0.002  0.004
   32  0.001  0.000  0.003  0.005
   33  0.006  0.001  0.003  0.009
   34  0.001  0.000  0.003  0.005
   35  0.000  0.001  0.008  0.008
   36  0.000  0.001  0.003  0.004
   37  0.000  0.000  0.000  0.000
tot    0.303  0.042  0.349  0.693
 
band    10 # energy   -6.04100824 # occ.  2.00000000
 
ion      s      p      d    tot
    1  0.001  0.000  0.000  0.001
    2  0.000  0.001  0.006  0.006
    3  0.000  0.001  0.006  0.006
    4  0.000  0.001  0.006  0.006
    5  0.017  0.002  0.000  0.019
    6  0.000  0.001  0.006  0.006
    7  0.000  0.001  0.006  0.006
    8  0.000  0.001  0.006  0.006
    9  0.005  0.001  0.003  0.009
   10  0.008  0.002  0.012  0.023
   11  0.024  0.002  0.010  0.036
   12  0.008  0.002  0.012  0.023
   13  0.024  0.002  0.010  0.036
   14  0.024  0.002  0.010  0.037
   15  0.011  0.000  0.028  0.039
   16  0.008  0.002  0.012  0.023
   17  0.011  0.000  0.028  0.039
   18  0.011  0.000  0.027  0.039
   19  0.012  0.001  0.022  0.035
   20  0.025  0.003  0.003  0.031
   21  0.025  0.003  0.003  0.031
   22  0.001  0.001  0.022  0.024
   23  0.025  0.003  0.003  0.031
   24  0.001  0.001  0.022  0.024
   25  0.013  0.001  0.022  0.035
   26  0.012  0.001  0.022  0.035
   27  0.001  0.001  0.022  0.024
   28  0.017  0.001  0.000  0.018
   29  0.001  0.000  0.005  0.007
   30  0.001  0.000  0.005  0.007
   31  0.001  0.000  0.005  0.007
   32  0.001  0.000  0.005  0.007
   33  0.001  0.000  0.005  0.007
   34  0.001  0.000  0.005  0.007
   35  0.000  0.000  0.004  0.004
   36  0.001  0.001  0.003  0.006
   37  0.000  0.001  0.000  0.001
tot    0.296  0.039  0.366  0.700
 
band    11 # energy   -5.94307530 # occ.  2.00000000
 
ion      s      p      d    tot
    1  0.002  0.000  0.000  0.002
    2  0.000  0.000  0.002  0.002
    3  0.000  0.000  0.002  0.002
    4  0.000  0.000  0.002  0.002
    5  0.003  0.000  0.000  0.003
    6  0.000  0.000  0.002  0.002
    7  0.000  0.000  0.002  0.002
    8  0.000  0.000  0.002  0.002
    9  0.003  0.001  0.001  0.004
   10  0.002  0.000  0.009  0.011
   11  0.004  0.001  0.003  0.007
   12  0.002  0.000  0.009  0.011
   13  0.004  0.001  0.003  0.007
   14  0.004  0.001  0.003  0.007
   15  0.006  0.001  0.007  0.015
   16  0.002  0.000  0.009  0.011
   17  0.006  0.001  0.007  0.015
   18  0.006  0.001  0.007  0.015
   19  0.005  0.001  0.021  0.026
   20  0.000  0.000  0.026  0.026
   21  0.000  0.000  0.026  0.026
   22  0.014  0.002  0.020  0.035
   23  0.000  0.000  0.026  0.026
   24  0.014  0.002  0.020  0.035
   25  0.005  0.001  0.021  0.026
   26  0.005  0.001  0.021  0.026
   27  0.014  0.002  0.020  0.035
   28  0.023  0.000  0.022  0.045
   29  0.021  0.000  0.017  0.038
   30  0.021  0.000  0.017  0.038
   31  0.021  0.000  0.017  0.038
   32  0.021  0.000  0.017  0.038
   33  0.021  0.000  0.017  0.038
   34  0.021  0.000  0.017  0.038
   35  0.020  0.000  0.020  0.041
   36  0.011  0.000  0.014  0.024
   37  0.000  0.000  0.000  0.000
tot    0.278  0.016  0.427  0.722
 
band    12 # energy   -5.56734769 # occ.  2.00000000
 
ion      s      p      d    tot
    1  0.008  0.001  0.002  0.011
    2  0.000  0.001  0.008  0.009
    3  0.000  0.001  0.008  0.009
    4  0.000  0.001  0.008  0.009
    5  0.002  0.000  0.001  0.003
    6  0.000  0.001  0.008  0.009
    7  0.000  0.001  0.008  0.009
    8  0.000  0.001  0.008  0.009
    9  0.019  0.002  0.000  0.021
   10  0.009  0.001  0.017  0.028
   11  0.001  0.000  0.043  0.044
   12  0.009  0.001  0.017  0.028
   13  0.001  0.000  0.043  0.044
   14  0.001  0.000  0.042  0.043
   15  0.004  0.001  0.018  0.023
   16  0.009  0.001  0.017  0.028
   17  0.004  0.001  0.018  0.023
   18  0.004  0.001  0.017  0.023
   19  0.002  0.001  0.026  0.028
   20  0.005  0.000  0.043  0.049
   21  0.005  0.000  0.043  0.048
   22  0.013  0.002  0.010  0.024
   23  0.005  0.000  0.043  0.048
   24  0.013  0.002  0.010  0.024
   25  0.001  0.001  0.026  0.028
   26  0.002  0.001  0.026  0.028
   27  0.013  0.002  0.010  0.024
   28  0.011  0.001  0.000  0.012
   29  0.000  0.001  0.006  0.007
   30  0.000  0.001  0.006  0.007
   31  0.000  0.001  0.006  0.007
   32  0.000  0.001  0.006  0.007
   33  0.000  0.001  0.006  0.007
   34  0.000  0.001  0.006  0.007
   35  0.012  0.002  0.002  0.016
   36  0.000  0.000  0.004  0.005
   37  0.000  0.001  0.000  0.001
tot    0.154  0.031  0.565  0.750
 
band    13 # energy   -5.56425387 # occ.  2.00000000
 
ion      s      p      d    tot
    1  0.000  0.001  0.005  0.006
    2  0.000  0.000  0.005  0.005
    3  0.006  0.001  0.005  0.012
    4  0.000  0.000  0.005  0.005
    5  0.000  0.001  0.013  0.014
    6  0.008  0.001  0.004  0.013
    7  0.006  0.001  0.005  0.012
    8  0.008  0.001  0.004  0.013
    9  0.000  0.000  0.007  0.007
   10  0.000  0.000  0.060  0.061
   11  0.011  0.001  0.022  0.033
   12  0.010  0.002  0.020  0.032
   13  0.011  0.001  0.022  0.033
   14  0.000  0.000  0.039  0.039
   15  0.000  0.001  0.020  0.020
   16  0.010  0.002  0.020  0.031
   17  0.000  0.001  0.020  0.020
   18  0.000  0.001  0.013  0.015
   19  0.013  0.000  0.021  0.035
   20  0.000  0.000  0.068  0.068
   21  0.016  0.001  0.021  0.038
   22  0.000  0.001  0.019  0.020
   23  0.017  0.001  0.020  0.038
   24  0.000  0.002  0.023  0.025
   25  0.000  0.001  0.024  0.025
   26  0.013  0.000  0.021  0.034
   27  0.000  0.001  0.019  0.020
   28  0.000  0.001  0.009  0.010
   29  0.000  0.000  0.004  0.004
   30  0.007  0.001  0.003  0.011
   31  0.000  0.000  0.004  0.004
   32  0.005  0.001  0.004  0.010
   33  0.007  0.001  0.004  0.011
   34  0.005  0.001  0.004  0.011
   35  0.000  0.000  0.004  0.004
   36  0.000  0.002  0.006  0.007
   37  0.000  0.000  0.000  0.000
tot    0.154  0.030  0.566  0.750
 
band    14 # energy   -5.56424305 # occ.  2.00000000
 
ion      s      p      d    tot
    1  0.000  0.001  0.005  0.006
    2  0.009  0.001  0.004  0.015
    3  0.004  0.001  0.004  0.008
    4  0.009  0.001  0.004  0.015
    5  0.000  0.001  0.013  0.014
    6  0.002  0.001  0.005  0.007
    7  0.003  0.001  0.004  0.008
    8  0.001  0.001  0.005  0.007
    9  0.000  0.000  0.007  0.007
   10  0.013  0.002  0.006  0.022
   11  0.004  0.000  0.033  0.037
   12  0.003  0.001  0.047  0.051
   13  0.004  0.000  0.033  0.037
   14  0.015  0.001  0.016  0.031
   15  0.000  0.001  0.015  0.016
   16  0.003  0.001  0.047  0.051
   17  0.000  0.001  0.015  0.017
   18  0.000  0.001  0.022  0.022
   19  0.004  0.001  0.023  0.028
   20  0.022  0.002  0.004  0.028
   21  0.006  0.001  0.052  0.058
   22  0.000  0.001  0.022  0.023
   23  0.005  0.000  0.052  0.058
   24  0.000  0.001  0.018  0.019
   25  0.017  0.000  0.021  0.038
   26  0.004  0.001  0.023  0.028
   27  0.000  0.001  0.022  0.023
   28  0.000  0.001  0.009  0.010
   29  0.008  0.001  0.004  0.013
   30  0.001  0.001  0.004  0.006
   31  0.008  0.001  0.004  0.013
   32  0.003  0.001  0.003  0.007
   33  0.001  0.001  0.004  0.006
   34  0.003  0.001  0.003  0.007
   35  0.000  0.000  0.004  0.004
   36  0.000  0.002  0.006  0.007
   37  0.000  0.000  0.000  0.000
tot    0.154  0.030  0.566  0.750
 
band    15 # energy   -5.55609678 # occ.  2.00000000
 
ion      s      p      d    tot
    1  0.000  0.000  0.013  0.013
    2  0.000  0.000  0.005  0.006
    3  0.006  0.001  0.005  0.013
    4  0.000  0.000  0.005  0.006
    5  0.000  0.000  0.004  0.004
    6  0.009  0.001  0.004  0.014
    7  0.006  0.001  0.005  0.013
    8  0.009  0.001  0.004  0.014
    9  0.000  0.001  0.010  0.012
   10  0.005  0.000  0.024  0.029
   11  0.001  0.001  0.030  0.032
   12  0.001  0.001  0.018  0.020
   13  0.001  0.001  0.030  0.032
   14  0.004  0.002  0.013  0.020
   15  0.004  0.000  0.049  0.054
   16  0.001  0.001  0.018  0.020
   17  0.005  0.000  0.049  0.054
   18  0.018  0.002  0.008  0.028
   19  0.002  0.001  0.043  0.046
   20  0.004  0.000  0.023  0.027
   21  0.001  0.001  0.013  0.015
   22  0.007  0.000  0.040  0.047
   23  0.001  0.001  0.013  0.015
   24  0.026  0.001  0.011  0.038
   25  0.010  0.001  0.008  0.018
   26  0.002  0.001  0.042  0.046
   27  0.006  0.000  0.041  0.047
   28  0.000  0.000  0.003  0.004
   29  0.000  0.000  0.003  0.004
   30  0.006  0.001  0.003  0.010
   31  0.000  0.000  0.003  0.004
   32  0.005  0.001  0.004  0.010
   33  0.006  0.001  0.003  0.010
   34  0.005  0.001  0.004  0.010
   35  0.000  0.001  0.008  0.010
   36  0.000  0.000  0.004  0.004
   37  0.000  0.000  0.000  0.000
tot    0.153  0.030  0.567  0.750
 
band    16 # energy   -5.55608763 # occ.  2.00000000
 
ion      s      p      d    tot
    1  0.000  0.000  0.013  0.013
    2  0.010  0.001  0.005  0.016
    3  0.004  0.001  0.005  0.009
    4  0.010  0.001  0.005  0.016
    5  0.000  0.000  0.004  0.004
    6  0.001  0.001  0.006  0.008
    7  0.004  0.001  0.005  0.009
    8  0.001  0.001  0.006  0.008
    9  0.000  0.001  0.010  0.012
   10  0.000  0.001  0.017  0.018
   11  0.003  0.002  0.019  0.024
   12  0.004  0.000  0.022  0.026
   13  0.003  0.002  0.019  0.024
   14  0.000  0.001  0.035  0.036
   15  0.014  0.001  0.021  0.037
   16  0.004  0.000  0.022  0.026
   17  0.014  0.001  0.022  0.037
   18  0.000  0.000  0.063  0.063
   19  0.007  0.001  0.019  0.027
   20  0.000  0.002  0.009  0.011
   21  0.003  0.000  0.020  0.023
   22  0.019  0.001  0.021  0.041
   23  0.003  0.000  0.020  0.023
   24  0.000  0.000  0.050  0.050
   25  0.000  0.001  0.054  0.055
   26  0.007  0.001  0.020  0.028
   27  0.020  0.001  0.020  0.041
   28  0.000  0.000  0.003  0.004
   29  0.007  0.001  0.004  0.012
   30  0.001  0.001  0.004  0.006
   31  0.007  0.001  0.004  0.012
   32  0.002  0.001  0.003  0.006
   33  0.001  0.001  0.004  0.006
   34  0.002  0.001  0.003  0.005
   35  0.000  0.001  0.008  0.010
   36  0.000  0.000  0.004  0.004
   37  0.000  0.000  0.000  0.000
tot    0.153  0.030  0.567  0.750
 
band    17 # energy   -5.53764684 # occ.  2.00000000
 
ion      s      p      d    tot
    1  0.016  0.001  0.000  0.018
    2  0.000  0.001  0.009  0.010
    3  0.000  0.001  0.009  0.010
    4  0.000  0.001  0.009  0.010
    5  0.015  0.002  0.001  0.018
    6  0.000  0.001  0.009  0.010
    7  0.000  0.001  0.009  0.010
    8  0.000  0.001  0.009  0.010
    9  0.000  0.000  0.002  0.002
   10  0.001  0.001  0.038  0.039
   11  0.008  0.002  0.009  0.018
   12  0.001  0.001  0.038  0.039
   13  0.008  0.002  0.009  0.018
   14  0.008  0.002  0.009  0.018
   15  0.003  0.000  0.036  0.039
   16  0.001  0.001  0.038  0.039
   17  0.003  0.000  0.036  0.039
   18  0.003  0.000  0.036  0.039
   19  0.013  0.001  0.036  0.049
   20  0.008  0.001  0.006  0.015
   21  0.008  0.001  0.006  0.015
   22  0.000  0.000  0.042  0.042
   23  0.008  0.001  0.006  0.015
   24  0.000  0.000  0.042  0.042
   25  0.013  0.001  0.036  0.049
   26  0.013  0.001  0.036  0.049
   27  0.000  0.000  0.042  0.042
   28  0.002  0.001  0.007  0.010
   29  0.000  0.000  0.004  0.005
   30  0.000  0.000  0.004  0.005
   31  0.000  0.000  0.004  0.005
   32  0.000  0.000  0.004  0.005
   33  0.000  0.000  0.004  0.005
   34  0.000  0.000  0.004  0.005
   35  0.000  0.000  0.000  0.000
   36  0.010  0.002  0.001  0.014
   37  0.000  0.001  0.000  0.002
tot    0.143  0.028  0.592  0.763
 
band    18 # energy   -5.18889004 # occ.  2.00000000
 
ion      s      p      d    tot
    1  0.018  0.001  0.001  0.021
    2  0.000  0.001  0.018  0.018
    3  0.000  0.001  0.018  0.018
    4  0.000  0.001  0.018  0.018
    5  0.011  0.000  0.014  0.026
    6  0.000  0.001  0.018  0.018
    7  0.000  0.001  0.018  0.018
    8  0.000  0.001  0.018  0.018
    9  0.001  0.000  0.006  0.007
   10  0.000  0.000  0.026  0.026
   11  0.000  0.000  0.038  0.038
   12  0.000  0.000  0.026  0.026
   13  0.000  0.000  0.038  0.038
   14  0.000  0.000  0.038  0.038
   15  0.000  0.000  0.034  0.034
   16  0.000  0.000  0.026  0.026
   17  0.000  0.000  0.034  0.034
   18  0.000  0.000  0.034  0.034
   19  0.000  0.000  0.023  0.023
   20  0.001  0.000  0.024  0.025
   21  0.001  0.000  0.024  0.025
   22  0.001  0.000  0.031  0.032
   23  0.001  0.000  0.024  0.025
   24  0.001  0.000  0.030  0.031
   25  0.000  0.000  0.023  0.023
   26  0.000  0.000  0.023  0.023
   27  0.001  0.000  0.031  0.032
   28  0.012  0.001  0.001  0.013
   29  0.000  0.001  0.014  0.014
   30  0.000  0.001  0.014  0.014
   31  0.000  0.001  0.014  0.014
   32  0.000  0.001  0.014  0.014
   33  0.000  0.001  0.014  0.014
   34  0.000  0.001  0.014  0.014
   35  0.014  0.000  0.006  0.021
   36  0.000  0.000  0.007  0.007
   37  0.000  0.001  0.000  0.002
tot    0.062  0.016  0.747  0.825
 
band    19 # energy   -5.18362894 # occ.  2.00000000
 
ion      s      p      d    tot
    1  0.000  0.001  0.009  0.010
    2  0.002  0.000  0.017  0.020
    3  0.013  0.001  0.014  0.028
    4  0.002  0.000  0.017  0.020
    5  0.000  0.000  0.036  0.036
    6  0.005  0.001  0.011  0.017
    7  0.013  0.001  0.014  0.028
    8  0.005  0.001  0.011  0.017
    9  0.000  0.001  0.020  0.021
   10  0.000  0.000  0.030  0.030
   11  0.000  0.000  0.021  0.022
   12  0.000  0.000  0.021  0.022
   13  0.000  0.000  0.021  0.022
   14  0.000  0.001  0.023  0.024
   15  0.000  0.000  0.053  0.053
   16  0.000  0.000  0.021  0.021
   17  0.000  0.000  0.053  0.053
   18  0.000  0.001  0.052  0.053
   19  0.000  0.000  0.018  0.019
   20  0.002  0.000  0.017  0.019
   21  0.000  0.000  0.010  0.010
   22  0.000  0.000  0.031  0.031
   23  0.000  0.000  0.010  0.010
   24  0.001  0.000  0.047  0.048
   25  0.000  0.000  0.019  0.019
   26  0.000  0.000  0.018  0.019
   27  0.000  0.000  0.031  0.031
   28  0.000  0.000  0.019  0.019
   29  0.002  0.000  0.010  0.013
   30  0.002  0.000  0.007  0.009
   31  0.002  0.000  0.010  0.013
   32  0.008  0.001  0.009  0.018
   33  0.002  0.000  0.007  0.009
   34  0.008  0.001  0.009  0.018
   35  0.000  0.001  0.017  0.018
   36  0.000  0.001  0.003  0.005
   37  0.000  0.000  0.000  0.000
tot    0.069  0.016  0.736  0.821
 
band    20 # energy   -5.18362603 # occ.  2.00000000
 
ion      s      p      d    tot
    1  0.000  0.001  0.009  0.010
    2  0.012  0.001  0.011  0.024
    3  0.000  0.001  0.014  0.015
    4  0.012  0.001  0.011  0.024
    5  0.000  0.000  0.036  0.036
    6  0.009  0.001  0.017  0.026
    7  0.000  0.001  0.014  0.015
    8  0.009  0.001  0.017  0.026
    9  0.000  0.001  0.020  0.021
   10  0.000  0.000  0.018  0.018
   11  0.000  0.001  0.022  0.023
   12  0.000  0.000  0.027  0.027
   13  0.000  0.001  0.022  0.023
   14  0.000  0.000  0.021  0.021
   15  0.000  0.001  0.052  0.053
   16  0.000  0.000  0.027  0.027
   17  0.000  0.001  0.052  0.053
   18  0.000  0.000  0.053  0.053
   19  0.000  0.000  0.019  0.019
   20  0.000  0.000  0.007  0.007
   21  0.001  0.000  0.015  0.016
   22  0.001  0.000  0.041  0.042
   23  0.001  0.000  0.015  0.016
   24  0.000  0.000  0.025  0.026
   25  0.000  0.000  0.018  0.019
   26  0.000  0.000  0.019  0.019
   27  0.001  0.000  0.041  0.042
   28  0.000  0.000  0.019  0.019
   29  0.005  0.001  0.007  0.013
   30  0.006  0.000  0.011  0.017
   31  0.005  0.001  0.007  0.013
   32  0.000  0.000  0.008  0.009
   33  0.006  0.000  0.011  0.017
   34  0.000  0.000  0.008  0.009
   35  0.000  0.001  0.017  0.018
   36  0.000  0.001  0.003  0.005
   37  0.000  0.000  0.000  0.000
tot    0.069  0.016  0.736  0.821
 
band    21 # energy   -5.16632586 # occ.  2.00000000
 
ion      s      p      d    tot
    1  0.000  0.001  0.034  0.034
    2  0.001  0.000  0.018  0.019
    3  0.012  0.001  0.015  0.027
    4  0.001  0.000  0.018  0.019
    5  0.000  0.002  0.007  0.009
    6  0.005  0.001  0.011  0.017
    7  0.012  0.001  0.015  0.027
    8  0.005  0.001  0.011  0.017
    9  0.000  0.000  0.020  0.021
   10  0.000  0.000  0.057  0.057
   11  0.000  0.000  0.048  0.048
   12  0.000  0.001  0.049  0.049
   13  0.000  0.000  0.048  0.048
   14  0.000  0.000  0.040  0.040
   15  0.000  0.000  0.018  0.019
   16  0.000  0.001  0.049  0.049
   17  0.000  0.000  0.018  0.019
   18  0.000  0.000  0.006  0.007
   19  0.002  0.000  0.034  0.035
   20  0.000  0.000  0.027  0.027
   21  0.000  0.000  0.034  0.035
   22  0.001  0.000  0.009  0.010
   23  0.000  0.000  0.034  0.035
   24  0.000  0.000  0.010  0.010
   25  0.000  0.000  0.021  0.021
   26  0.002  0.000  0.033  0.035
   27  0.001  0.000  0.009  0.010
   28  0.000  0.001  0.007  0.008
   29  0.001  0.000  0.006  0.007
   30  0.002  0.000  0.005  0.008
   31  0.001  0.000  0.006  0.007
   32  0.006  0.001  0.006  0.012
   33  0.002  0.000  0.005  0.008
   34  0.006  0.001  0.006  0.012
   35  0.000  0.000  0.011  0.011
   36  0.000  0.000  0.007  0.007