 vasp.6.2.0 18Jan21 (build Jun 12 2021 23:27:24) complex                        
  
 executed on             LinuxIFC date 2022.05.26  19:37:17
 running on   28 total cores
 distrk:  each k-point on   28 cores,    1 groups
 distr:  one band on NCORE=   1 cores,   28 groups


--------------------------------------------------------------------------------------------------------


 INCAR:
   ISMEAR = -5
   SIGMA = 0.1
   ISPIN = 1
   EDIFF = 1.d-5
   EDIFFG = -0.01
   NSW = 0
   NELM = 150
   ENCUT = 500
   ISIF = 2
   IBRION = 2
   LREAL = Auto
   ALGO = Fast
   ICHARG = 11
   LORBIT = 10
   LCHARG = .F.
   LWAVE = .F.

 POTCAR:    PAW_PBE Ag 02Apr2005                  
 POTCAR:    PAW_PBE Ti 08Apr2002                  
 POTCAR:    PAW_PBE N 08Apr2002                   
 -----------------------------------------------------------------------------
|                                                                             |
|           W    W    AA    RRRRR   N    N  II  N    N   GGGG   !!!           |
|           W    W   A  A   R    R  NN   N  II  NN   N  G    G  !!!           |
|           W    W  A    A  R    R  N N  N  II  N N  N  G       !!!           |
|           W WW W  AAAAAA  RRRRR   N  N N  II  N  N N  G  GGG   !            |
|           WW  WW  A    A  R   R   N   NN  II  N   NN  G    G                |
|           W    W  A    A  R    R  N    N  II  N    N   GGGG   !!!           |
|                                                                             |
|     For optimal performance we recommend to set                             |
|       NCORE = 2 up to number-of-cores-per-socket                            |
|     NCORE specifies how many cores store one orbital (NPAR=cpu/NCORE).      |
|     This setting can greatly improve the performance of VASP for DFT.       |
|     The default, NCORE=1 might be grossly inefficient on modern             |
|     multi-core architectures or massively parallel machines. Do your        |
|     own testing! More info at https://www.vasp.at/wiki/index.php/NCORE      |
|     Unfortunately you need to use the default for GW and RPA                |
|     calculations (for HF NCORE is supported but not extensively tested      |
|     yet).                                                                   |
|                                                                             |
 -----------------------------------------------------------------------------

 POTCAR:    PAW_PBE Ag 02Apr2005                  
   VRHFIN =Ag : s1 d10                                                                              
   LEXCH  = PE                                                                                      
   EATOM  =  1037.2675 eV,   76.2370 Ry                                                             
                                                                                                    
   TITEL  = PAW_PBE Ag 02Apr2005                                                                    
   LULTRA =        F    use ultrasoft PP ?                                                          
   IUNSCR =        1    unscreen: 0-lin 1-nonlin 2-no                                               
   RPACOR =    2.000    partial core radius                                                         
   POMASS =  107.868; ZVAL   =   11.000    mass and valenz                                          
   RCORE  =    2.500    outmost cutoff radius                                                       
   RWIGS  =    2.840; RWIGS  =    1.503    wigner-seitz radius (au A)                               
   ENMAX  =  249.844; ENMIN  =  187.383 eV                                                          
   ICORE  =        3    local potential                                                             
   LCOR   =        T    correct aug charges                                                         
   LPAW   =        T    paw PP                                                                      
   EAUG   =  412.496                                                                                
   DEXC   =    0.000                                                                                
   RMAX   =    2.560    core radius for proj-oper                                                   
   RAUG   =    1.300    factor for augmentation sphere                                              
   RDEP   =    2.576    radius for radial grids                                                     
   RDEPT  =    2.072    core radius for aug-charge                                                  
                                                                                                    
   Atomic configuration                                                                             
   12 entries                                                                                       
     n  l   j            E        occ.                                                              
     1  0  0.50    -25324.9161   2.0000                                                             
     2  0  0.50     -3728.5341   2.0000                                                             
     2  1  1.50     -3344.0404   6.0000                                                             
     3  0  0.50      -683.5581   2.0000                                                             
     3  1  1.50      -557.3225   6.0000                                                             
     3  2  2.50      -358.3853  10.0000                                                             
     4  0  0.50       -95.0341   2.0000                                                             
     4  1  1.50       -58.5511   6.0000                                                             
     4  2  2.50        -7.4440  10.0000                                                             
     5  0  0.50        -4.4045   1.0000                                                             
     5  1  0.50        -1.3606   0.0000                                                             
     4  3  2.50        -1.3606   0.0000                                                             
   Description                                                                                      
     l       E           TYP  RCUT    TYP  RCUT                                                     
     2     -7.4439781     23  2.400                                                                 
     2     -8.8045607     23  2.400                                                                 
     0     -4.4044681     23  2.400                                                                 
     0      1.9520038     23  2.400                                                                 
     1     -1.3605826     23  2.500                                                                 
     1     27.2116520     23  2.500                                                                 
     3     -4.0817478     23  2.400                                                                 
  local pseudopotential read in
  partial core-charges read in
  partial kinetic energy density read in
  atomic valenz-charges read in
  non local Contribution for L=           2  read in
    real space projection operators read in
  non local Contribution for L=           2  read in
    real space projection operators read in
  non local Contribution for L=           0  read in
    real space projection operators read in
  non local Contribution for L=           0  read in
    real space projection operators read in
  non local Contribution for L=           1  read in
    real space projection operators read in
  non local Contribution for L=           1  read in
    real space projection operators read in
    PAW grid and wavefunctions read in
 
   number of l-projection  operators is LMAX  =           6
   number of lm-projection operators is LMMAX =          18
 
 POTCAR:    PAW_PBE Ti 08Apr2002                  
   VRHFIN =Ti: d3 s1                                                                                
   LEXCH  = PE                                                                                      
   EATOM  =    94.7928 eV,    6.9671 Ry                                                             
                                                                                                    
   TITEL  = PAW_PBE Ti 08Apr2002                                                                    
   LULTRA =        F    use ultrasoft PP ?                                                          
   IUNSCR =        1    unscreen: 0-lin 1-nonlin 2-no                                               
   RPACOR =    2.200    partial core radius                                                         
   POMASS =   47.880; ZVAL   =    4.000    mass and valenz                                          
   RCORE  =    2.800    outmost cutoff radius                                                       
   RWIGS  =    2.500; RWIGS  =    1.323    wigner-seitz radius (au A)                               
   ENMAX  =  178.330; ENMIN  =  133.747 eV                                                          
   RCLOC  =    2.215    cutoff for local pot                                                        
   LCOR   =        T    correct aug charges                                                         
   LPAW   =        T    paw PP                                                                      
   EAUG   =  328.883                                                                                
   DEXC   =    0.000                                                                                
   RMAX   =    2.868    core radius for proj-oper                                                   
   RAUG   =    1.300    factor for augmentation sphere                                              
   RDEP   =    2.885    radius for radial grids                                                     
   RDEPT  =    2.320    core radius for aug-charge                                                  
                                                                                                    
   Atomic configuration                                                                             
    9 entries                                                                                       
     n  l   j            E        occ.                                                              
     1  0  0.50     -4865.3608   2.0000                                                             
     2  0  0.50      -533.1367   2.0000                                                             
     2  1  1.50      -440.5031   6.0000                                                             
     3  0  0.50       -59.3186   2.0000                                                             
     3  1  1.50       -35.7012   6.0000                                                             
     3  2  2.50        -1.9157   3.0000                                                             
     4  0  0.50        -3.7291   1.0000                                                             
     4  1  1.50        -4.0817   0.0000                                                             
     4  3  2.50        -1.3606   0.0000                                                             
   Description                                                                                      
     l       E           TYP  RCUT    TYP  RCUT                                                     
     2     -1.9156924     23  2.800                                                                 
     2     -0.4062961     23  2.800                                                                 
     0     -3.7290832     23  2.800                                                                 
     0     20.4087390     23  2.800                                                                 
     1     -5.4423304     23  2.800                                                                 
  local pseudopotential read in
  partial core-charges read in
  partial kinetic energy density read in
  atomic valenz-charges read in
  non local Contribution for L=           2  read in
    real space projection operators read in
  non local Contribution for L=           2  read in
    real space projection operators read in
  non local Contribution for L=           0  read in
    real space projection operators read in
  non local Contribution for L=           0  read in
    real space projection operators read in
  non local Contribution for L=           1  read in
    real space projection operators read in
    PAW grid and wavefunctions read in
 
   number of l-projection  operators is LMAX  =           5
   number of lm-projection operators is LMMAX =          15
 
 POTCAR:    PAW_PBE N 08Apr2002                   
   VRHFIN =N: s2p3                                                                                  
   LEXCH  = PE                                                                                      
   EATOM  =   264.5486 eV,   19.4438 Ry                                                             
                                                                                                    
   TITEL  = PAW_PBE N 08Apr2002                                                                     
   LULTRA =        F    use ultrasoft PP ?                                                          
   IUNSCR =        1    unscreen: 0-lin 1-nonlin 2-no                                               
   RPACOR =    1.200    partial core radius                                                         
   POMASS =   14.001; ZVAL   =    5.000    mass and valenz                                          
   RCORE  =    1.500    outmost cutoff radius                                                       
   RWIGS  =    1.400; RWIGS  =    0.741    wigner-seitz radius (au A)                               
   ENMAX  =  400.000; ENMIN  =  300.000 eV                                                          
   ICORE  =        2    local potential                                                             
   LCOR   =        T    correct aug charges                                                         
   LPAW   =        T    paw PP                                                                      
   EAUG   =  627.112                                                                                
   DEXC   =    0.000                                                                                
   RMAX   =    1.529    core radius for proj-oper                                                   
   RAUG   =    1.300    factor for augmentation sphere                                              
   RDEP   =    1.514    radius for radial grids                                                     
   RDEPT  =    1.338    core radius for aug-charge                                                  
                                                                                                    
   Atomic configuration                                                                             
    4 entries                                                                                       
     n  l   j            E        occ.                                                              
     1  0  0.50      -384.7179   2.0000                                                             
     2  0  0.50       -18.5828   2.0000                                                             
     2  1  0.50        -7.0898   3.0000                                                             
     3  2  1.50        -6.8029   0.0000                                                             
   Description                                                                                      
     l       E           TYP  RCUT    TYP  RCUT                                                     
     0    -18.5828119     23  1.200                                                                 
     0    -13.5018863     23  1.200                                                                 
     1     -7.0897853     23  1.500                                                                 
     1      9.5240782     23  1.500                                                                 
     2     -6.8029130      7  1.500                                                                 
  local pseudopotential read in
  partial core-charges read in
  partial kinetic energy density read in
  atomic valenz-charges read in
  non local Contribution for L=           0  read in
    real space projection operators read in
  non local Contribution for L=           0  read in
    real space projection operators read in
  non local Contribution for L=           1  read in
    real space projection operators read in
  non local Contribution for L=           1  read in
    real space projection operators read in
    PAW grid and wavefunctions read in
 
   number of l-projection  operators is LMAX  =           4
   number of lm-projection operators is LMMAX =           8
 
 Optimization of the real space projectors (new method)

 maximal supplied QI-value         = 15.12
 optimisation between [QCUT,QGAM] = [ 11.34, 22.83] = [ 36.00,145.93] Ry 
 Optimized for a Real-space Cutoff    1.43 Angstroem

   l    n(q)    QCUT    max X(q) W(low)/X(q) W(high)/X(q)  e(spline) 
   2      9    11.338    53.897    0.16E-03    0.20E-03    0.28E-06
   2      9    11.338    52.416    0.16E-03    0.20E-03    0.29E-06
   0     10    11.338   122.045    0.31E-04    0.76E-04    0.15E-06
   0     10    11.338    73.629    0.30E-04    0.72E-04    0.15E-06
   1      9    11.338    15.255    0.20E-03    0.19E-04    0.17E-06
   1      9    11.338     9.562    0.16E-03    0.15E-04    0.14E-06
 Optimization of the real space projectors (new method)

 maximal supplied QI-value         = 13.42
 optimisation between [QCUT,QGAM] = [ 11.40, 22.81] = [ 36.42,145.68] Ry 
 Optimized for a Real-space Cutoff    1.56 Angstroem

   l    n(q)    QCUT    max X(q) W(low)/X(q) W(high)/X(q)  e(spline) 
   2     10    11.404    49.363    0.27E-03    0.67E-03    0.76E-06
   2     10    11.404    47.669    0.26E-03    0.65E-03    0.73E-06
   0     11    11.404    26.374    0.17E-03    0.20E-03    0.34E-06
   0     11    11.404    11.549    0.14E-03    0.16E-03    0.29E-06
   1     10    11.404     9.492    0.33E-04    0.56E-04    0.16E-06
 Optimization of the real space projectors (new method)

 maximal supplied QI-value         = 25.13
 optimisation between [QCUT,QGAM] = [ 11.31, 22.87] = [ 35.82,146.48] Ry 
 Optimized for a Real-space Cutoff    1.27 Angstroem

   l    n(q)    QCUT    max X(q) W(low)/X(q) W(high)/X(q)  e(spline) 
   0      9    11.310    79.467    0.75E-04    0.16E-03    0.36E-06
   0      9    11.310    66.151    0.74E-04    0.16E-03    0.36E-06
   1      8    11.310    17.416    0.35E-03    0.12E-03    0.95E-06
   1      8    11.310    12.382    0.37E-03    0.13E-03    0.98E-06
  PAW_PBE Ag 02Apr2005                  :
 energy of atom  1       EATOM=-1037.2675
 kinetic energy error for atom=    0.0052 (will be added to EATOM!!)
  PAW_PBE Ti 08Apr2002                  :
 energy of atom  2       EATOM=  -94.7928
 kinetic energy error for atom=    0.0002 (will be added to EATOM!!)
  PAW_PBE N 08Apr2002                   :
 energy of atom  3       EATOM= -264.5486
 kinetic energy error for atom=    0.0138 (will be added to EATOM!!)
 
 
 POSCAR: Ag-Ti-N
  positions in direct lattice
  velocities in cartesian coordinates
 exchange correlation table for  LEXCH =        8
   RHO(1)=    0.500       N(1)  =     2000
   RHO(2)=  100.500       N(2)  =     4000

 VTST: version 3.2, (02/03/18)

 CHAIN: initializing optimizer
 
 OPT: Using VASP Conjugate-Gradient optimizer
 CHAIN: Read ICHAIN            0
 
 POSCAR: Ag-Ti-N
  positions in direct lattice
  velocities in cartesian coordinates
 


--------------------------------------------------------------------------------------------------------


 ion  position               nearest neighbor table
   1  0.000  0.000  0.238-   2 2.93   8 2.93   7 2.93   6 2.93   4 2.93  12 2.93  16 2.93  10 2.93
                             3 2.93
   2  0.333  0.000  0.238-   1 2.93   8 2.93   9 2.93   3 2.93   4 2.93   5 2.93  10 2.93  17 2.93
                            11 2.93
   3  0.667  0.000  0.238-   9 2.93   2 2.93   5 2.93  11 2.93   7 2.93  18 2.93   1 2.93   6 2.93
                            12 2.93
   4  0.000  0.333  0.238-   5 2.93   6 2.93   2 2.93   1 2.93   7 2.93  13 2.93  15 2.93   9 2.93
                            10 2.93
   5  0.333  0.333  0.238-   4 2.93   3 2.93   7 2.93   2 2.93   8 2.93  14 2.93  13 2.93  11 2.93
                             6 2.93
   6  0.667  0.333  0.238-   4 2.93   9 2.93   1 2.93  15 2.93   8 2.93  12 2.93   3 2.93   5 2.93
                            14 2.93
   7  0.000  0.667  0.238-   8 2.93   1 2.93   5 2.93   3 2.93   4 2.93  16 2.93  18 2.93  13 2.93
                             9 2.93
   8  0.333  0.667  0.238-   7 2.93   1 2.93   2 2.93   9 2.93   5 2.93  16 2.93   6 2.93  17 2.93
                            14 2.93
   9  0.667  0.667  0.238-   3 2.93   2 2.93   8 2.93   6 2.93  17 2.93   4 2.93  15 2.93   7 2.93
                            18 2.93
  10  0.111  0.111  0.346-  20 2.91  19 2.92  26 2.92  12 2.93  16 2.93  15 2.93  17 2.93  13 2.93
                            11 2.93   2 2.93   1 2.93   4 2.93
  11  0.444  0.111  0.346-  21 2.91  20 2.91  27 2.92  14 2.93  17 2.93  18 2.93   3 2.93  12 2.93
                            13 2.93  10 2.93   5 2.93   2 2.93
  12  0.778  0.111  0.346-  21 2.91  25 2.92  19 2.92  10 2.93  16 2.93  18 2.93  15 2.93  11 2.93
                             1 2.93  14 2.93   6 2.93   3 2.93
  13  0.111  0.444  0.346-  20 2.91  23 2.91  22 2.92  15 2.93  14 2.93  18 2.93  10 2.93  11 2.93
                            16 2.93   4 2.93   5 2.93   7 2.93
  14  0.444  0.444  0.346-  23 2.91  21 2.91  24 2.92  13 2.93  11 2.93  16 2.93   5 2.93  12 2.93
                            17 2.93   8 2.93  15 2.93   6 2.93
  15  0.778  0.444  0.346-  19 2.92  24 2.92  22 2.92  13 2.93  10 2.93  12 2.93  17 2.93  18 2.93
                             4 2.93   6 2.93   9 2.93  14 2.93
  16  0.111  0.778  0.346-  23 2.91  26 2.92  25 2.92  18 2.93  12 2.93  10 2.93  14 2.93  17 2.93
                            13 2.93   7 2.93   8 2.93   1 2.93
  17  0.444  0.778  0.346-  26 2.92  27 2.92  24 2.92  11 2.93  10 2.93   9 2.93  18 2.93  15 2.93
                            16 2.93   2 2.93  14 2.93   8 2.93
  18  0.778  0.778  0.346-  25 2.92  22 2.92  27 2.92  16 2.93  12 2.93  13 2.93  11 2.93  17 2.93
                            15 2.93   7 2.93   3 2.93   9 2.93
  19  0.889  0.222  0.453-  10 2.92  12 2.92  15 2.92  28 2.92  26 2.93  25 2.93  24 2.93  22 2.93
                            20 2.94  21 2.94  32 2.96  31 2.96
  20  0.223  0.223  0.453-  36 2.82  13 2.91  11 2.91  10 2.91  21 2.92  23 2.92  27 2.93  22 2.93
                            19 2.94  26 2.94  31 2.94  29 2.94
  21  0.555  0.223  0.453-  36 2.82  11 2.91  14 2.91  12 2.91  20 2.92  23 2.92  27 2.93  24 2.93
                            25 2.94  19 2.94  30 2.94  32 2.94
  22  0.889  0.556  0.453-  18 2.92  15 2.92  13 2.92  24 2.93  27 2.93  25 2.93  19 2.93  35 2.93
                            23 2.93  20 2.93  33 2.94  31 2.94
  23  0.223  0.555  0.453-  36 2.82  14 2.91  13 2.91  16 2.91  21 2.92  20 2.92  22 2.93  24 2.93
                            26 2.94  25 2.94  34 2.94  33 2.94
  24  0.556  0.556  0.453-  15 2.92  17 2.92  14 2.92  27 2.93  22 2.93  19 2.93  26 2.93  35 2.93
                            23 2.93  21 2.93  32 2.94  34 2.94
  25  0.889  0.889  0.453-  16 2.92  12 2.92  18 2.92  28 2.92  26 2.93  19 2.93  22 2.93  27 2.93
                            23 2.94  21 2.94  33 2.96  30 2.96
  26  0.222  0.889  0.453-  16 2.92  10 2.92  17 2.92  28 2.92  25 2.93  19 2.93  27 2.93  24 2.93
                            23 2.94  20 2.94  34 2.96  29 2.96
  27  0.556  0.889  0.453-  17 2.92  18 2.92  11 2.92  24 2.93  22 2.93  26 2.93  25 2.93  35 2.93
                            20 2.93  21 2.93  29 2.94  30 2.94
  28  0.000  0.000  0.561-  26 2.92  25 2.92  19 2.92  29 2.95  34 2.95  33 2.95  32 2.95  31 2.95
                            30 2.95
  29  0.334  0.004  0.562-  30 2.89  31 2.90  36 2.90  20 2.94  27 2.94  35 2.95  28 2.95  26 2.96
                            34 3.00
  30  0.662  0.004  0.562-  29 2.89  32 2.90  36 2.90  21 2.94  27 2.94  35 2.95  28 2.95  25 2.96
                            33 3.00
  31  0.004  0.334  0.562-  33 2.89  29 2.90  36 2.90  20 2.94  22 2.94  35 2.95  28 2.95  19 2.96
                            32 3.00
  32  0.662  0.334  0.562-  34 2.89  30 2.90  36 2.90  21 2.94  24 2.94  35 2.95  28 2.95  19 2.96
                            31 3.00
  33  0.004  0.662  0.562-  31 2.89  34 2.90  36 2.90  23 2.94  22 2.94  35 2.95  28 2.95  25 2.96
                            30 3.00
  34  0.334  0.662  0.562-  32 2.89  33 2.90  36 2.90  23 2.94  24 2.94  35 2.95  28 2.95  26 2.96
                            29 3.00
  35  0.667  0.667  0.562-  24 2.93  27 2.93  22 2.93  30 2.95  32 2.95  29 2.95  34 2.95  31 2.95
                            33 2.95
  36  0.333  0.333  0.555-  37 1.70  21 2.82  20 2.82  23 2.82  31 2.90  33 2.90  30 2.90  29 2.90
                            34 2.90  32 2.90
  37  0.333  0.333  0.631-  36 1.70
 
  LATTYP: Found a hexagonal cell.
 ALAT       =     8.7913665772
 C/A-ratio  =     2.5227160501
  
  Lattice vectors:
  
 A1 = (  -4.3956832886,  -7.6135467898,   0.0000000000)
 A2 = (   8.7913665771,   0.0000000000,   0.0000000000)
 A3 = (   0.0000000000,   0.0000000000,  22.1781215668)


Analysis of symmetry for initial positions (statically):
=====================================================================
 Subroutine PRICEL returns:
 Original cell was already a primitive cell.
 

 Routine SETGRP: Setting up the symmetry group for a 
 hexagonal supercell.


 Subroutine GETGRP returns: Found  6 space group operations
 (whereof  6 operations were pure point group operations)
 out of a pool of 24 trial point group operations.


The static configuration has the point symmetry C_3v.


Analysis of symmetry for dynamics (positions and initial velocities):
=====================================================================
 Subroutine PRICEL returns:
 Original cell was already a primitive cell.
 

 Routine SETGRP: Setting up the symmetry group for a 
 hexagonal supercell.


 Subroutine GETGRP returns: Found  6 space group operations
 (whereof  6 operations were pure point group operations)
 out of a pool of 24 trial point group operations.


The dynamic configuration has the point symmetry C_3v.


Analysis of constrained symmetry for selective dynamics:
=====================================================================
 Subroutine PRICEL returns:
 Original cell was already a primitive cell.
 

 Routine SETGRP: Setting up the symmetry group for a 
 hexagonal supercell.


 Subroutine GETGRP returns: Found  6 space group operations
 (whereof  6 operations were pure point group operations)
 out of a pool of 24 trial point group operations.


The constrained configuration has the point symmetry C_3v.


 Subroutine INISYM returns: Found  6 space group operations
 (whereof  6 operations are pure point group operations),
 and found     1 'primitive' translations


----------------------------------------------------------------------------------------

                                     Primitive cell                                     

  volume of cell :    1484.4589

  direct lattice vectors                    reciprocal lattice vectors
     8.791366577  0.000000000  0.000000000     0.113747958 -0.065672414  0.000000000
     4.395683289  7.613546790  0.000000000     0.000000000  0.131344829  0.000000000
     0.000000000  0.000000000 22.178121567     0.000000000  0.000000000  0.045089481

  length of vectors
     8.791366577  8.791366577 22.178121567     0.131344829  0.131344829  0.045089481

  position of ions in fractional coordinates (direct lattice)
     0.000000000  0.000000000  0.238171124
     0.333333313  0.000000000  0.238171124
     0.666666627  0.000000000  0.238171124
     0.000000000  0.333333343  0.238171124
     0.333333313  0.333333343  0.238171124
     0.666666687  0.333333343  0.238171124
     0.000000000  0.666666687  0.238171124
     0.333333313  0.666666687  0.238171124
     0.666666627  0.666666687  0.238171124
     0.111111104  0.111111112  0.346057051
     0.444444448  0.111111112  0.346057051
     0.777777791  0.111111112  0.346057051
     0.111111097  0.444444448  0.346057051
     0.444444418  0.444444448  0.346057051
     0.777777791  0.444444448  0.346057051
     0.111111104  0.777777791  0.346057051
     0.444444448  0.777777791  0.346057051
     0.777777791  0.777777791  0.346057051
     0.888965348  0.222069319  0.453214465
     0.222608922  0.222608937  0.452741434
     0.554782097  0.222608937  0.452741434
     0.888549089  0.555725486  0.453485214
     0.222608937  0.554782157  0.452741434
     0.555725486  0.555725486  0.453485214
     0.888965348  0.888965348  0.453214465
     0.222069289  0.888965348  0.453214465
     0.555725426  0.888549089  0.453485214
     0.000000000  0.000000000  0.560648641
     0.333630460  0.003871759  0.561777603
     0.662497721  0.003871759  0.561777603
     0.003871759  0.333630490  0.561777603
     0.662497781  0.333630490  0.561777603
     0.003871759  0.662497781  0.561777603
     0.333630460  0.662497781  0.561777603
     0.666666627  0.666666687  0.561557070
     0.333333313  0.333333343  0.554704153
     0.333333313  0.333333343  0.631477132

  ion indices of the primitive-cell ions
   primitive index   ion index
                 1           1
                 2           2
                 3           3
                 4           4
                 5           5
                 6           6
                 7           7
                 8           8
                 9           9
                10          10
                11          11
                12          12
                13          13
                14          14
                15          15
                16          16
                17          17
                18          18
                19          19
                20          20
                21          21
                22          22
                23          23
                24          24
                25          25
                26          26
                27          27
                28          28
                29          29
                30          30
                31          31
                32          32
                33          33
                34          34
                35          35
                36          36
                37          37

----------------------------------------------------------------------------------------

 
 
 KPOINTS: Automatic mesh                          

Automatic generation of k-mesh.
 Grid dimensions read from file:
 generate k-points for:    8    8    1

 Generating k-lattice:

  Cartesian coordinates                     Fractional coordinates (reciprocal lattice)
     0.014218495 -0.008209052  0.000000000     0.125000000  0.000000000  0.000000000
     0.000000000  0.016418104  0.000000000     0.000000000  0.125000000  0.000000000
     0.000000000  0.000000000  0.045089481     0.000000000  0.000000000  1.000000000

  Length of vectors
     0.016418104  0.016418104  0.045089481

  Shift w.r.t. Gamma in fractional coordinates (k-lattice)
     0.000000000  0.000000000  0.000000000

 TETIRR: Found     36 inequivalent tetrahedra from      384
 
 Subroutine IBZKPT returns following result:
 ===========================================
 
 Found     10 irreducible k-points:
 
 Following reciprocal coordinates:
            Coordinates               Weight
  0.000000  0.000000  0.000000      1.000000
  0.125000 -0.000000  0.000000      6.000000
  0.250000 -0.000000  0.000000      6.000000
  0.375000 -0.000000  0.000000      6.000000
  0.500000 -0.000000  0.000000      3.000000
  0.250000  0.125000  0.000000      6.000000
  0.375000  0.125000  0.000000     12.000000
  0.500000  0.125000  0.000000     12.000000
  0.500000  0.250000  0.000000      6.000000
 -0.375000  0.250000  0.000000      6.000000
 
 Following cartesian coordinates:
            Coordinates               Weight
  0.000000  0.000000  0.000000      1.000000
  0.014218 -0.008209  0.000000      6.000000
  0.028437 -0.016418  0.000000      6.000000
  0.042655 -0.024627  0.000000      6.000000
  0.056874 -0.032836  0.000000      3.000000
  0.028437 -0.000000  0.000000      6.000000
  0.042655 -0.008209  0.000000     12.000000
  0.056874 -0.016418  0.000000     12.000000
  0.056874 -0.000000  0.000000      6.000000
 -0.042655  0.057463  0.000000      6.000000
 


--------------------------------------------------------------------------------------------------------




 Dimension of arrays:
   k-points           NKPTS =     10   k-points in BZ     NKDIM =     10   number of bands    NBANDS=    252
   number of dos      NEDOS =    301   number of ions     NIONS =     37
   non local maximal  LDIM  =      6   non local SUM 2l+1 LMDIM =     18
   total plane-waves  NPLWV = 290304
   max r-space proj   IRMAX =   3185   max aug-charges    IRDMAX=  13704
   dimension x,y,z NGX =    48 NGY =   48 NGZ =  126
   dimension x,y,z NGXF=    96 NGYF=   96 NGZF=  252
   support grid    NGXF=    96 NGYF=   96 NGZF=  252
   ions per type =              35   1   1
   NGX,Y,Z   is equivalent  to a cutoff of   9.08,  9.08,  9.44 a.u.
   NGXF,Y,Z  is equivalent  to a cutoff of  18.15, 18.15, 18.89 a.u.

 SYSTEM =  unknown system                          
 POSCAR =  Ag-Ti-N                                 

 Startparameter for this run:
   NWRITE =      2    write-flag & timer
   PREC   = normal    normal or accurate (medium, high low for compatibility)
   ISTART =      0    job   : 0-new  1-cont  2-samecut
   ICHARG =     11    charge: 1-file 2-atom 10-const
   ISPIN  =      1    spin polarized calculation?
   LNONCOLLINEAR =      F non collinear calculations
   LSORBIT =      F    spin-orbit coupling
   INIWAV =      1    electr: 0-lowe 1-rand  2-diag
   LASPH  =      F    aspherical Exc in radial PAW
   METAGGA=      F    non-selfconsistent MetaGGA calc.

 Electronic Relaxation 1
   ENCUT  =  500.0 eV  36.75 Ry    6.06 a.u.  16.03 16.03 40.44*2*pi/ulx,y,z
   ENINI  =  500.0     initial cutoff
   ENAUG  =  627.1 eV  augmentation charge cutoff
   NELM   =    150;   NELMIN=  2; NELMDL= -5     # of ELM steps 
   EDIFF  = 0.1E-04   stopping-criterion for ELM
   LREAL  =      T    real-space projection
   NLSPLINE    = F    spline interpolate recip. space projectors
   LCOMPAT=      F    compatible to vasp.4.4
   GGA_COMPAT  = T    GGA compatible to vasp.4.4-vasp.4.6
   LMAXPAW     = -100 max onsite density
   LMAXMIX     =    2 max onsite mixed and CHGCAR
   VOSKOWN=      0    Vosko Wilk Nusair interpolation
   ROPT   =   -0.00050  -0.00050  -0.00050
 Ionic relaxation
   EDIFFG = -.1E-01   stopping-criterion for IOM
   NSW    =      0    number of steps for IOM
   NBLOCK =      1;   KBLOCK =      1    inner block; outer block 
   IBRION =     -1    ionic relax: 0-MD 1-quasi-New 2-CG
   NFREE  =      1    steps in history (QN), initial steepest desc. (CG)
   ISIF   =      2    stress and relaxation
   IWAVPR =     10    prediction:  0-non 1-charg 2-wave 3-comb
   ISYM   =      2    0-nonsym 1-usesym 2-fastsym
   LCORR  =      T    Harris-Foulkes like correction to forces

   POTIM  = 0.5000    time-step for ionic-motion
   TEIN   =    0.0    initial temperature
   TEBEG  =    0.0;   TEEND  =   0.0 temperature during run
   SMASS  =  -3.00    Nose mass-parameter (am)
   estimated Nose-frequenzy (Omega)   =  0.10E-29 period in steps = 0.13E+47 mass=  -0.177E-26a.u.
   SCALEE = 1.0000    scale energy and forces
   NPACO  =    256;   APACO  = 16.0  distance and # of slots for P.C.
   PSTRESS=    0.0 pullay stress

  Mass of Ions in am
   POMASS = 107.87 47.88 14.00
  Ionic Valenz
   ZVAL   =  11.00  4.00  5.00
  Atomic Wigner-Seitz radii
   RWIGS  =  -1.00 -1.00 -1.00
  virtual crystal weights 
   VCA    =   1.00  1.00  1.00
   NELECT =     394.0000    total number of electrons
   NUPDOWN=      -1.0000    fix difference up-down

 DOS related values:
   EMIN   =  10.00;   EMAX   =-10.00  energy-range for DOS
   EFERMI =   0.00
   ISMEAR =    -5;   SIGMA  =   0.10  broadening in eV -4-tet -1-fermi 0-gaus

 Electronic relaxation 2 (details)
   IALGO  =     68    algorithm
   LDIAG  =      T    sub-space diagonalisation (order eigenvalues)
   LSUBROT=      F    optimize rotation matrix (better conditioning)
   TURBO    =      0    0=normal 1=particle mesh
   IRESTART =      0    0=no restart 2=restart with 2 vectors
   NREBOOT  =      0    no. of reboots
   NMIN     =      0    reboot dimension
   EREF     =   0.00    reference energy to select bands
   IMIX   =      4    mixing-type and parameters
     AMIX     =   0.40;   BMIX     =  1.00
     AMIX_MAG =   1.60;   BMIX_MAG =  1.00
     AMIN     =   0.10
     WC   =   100.;   INIMIX=   1;  MIXPRE=   1;  MAXMIX= -45

 Intra band minimization:
   WEIMIN = 0.0000     energy-eigenvalue tresh-hold
   EBREAK =  0.99E-08  absolut break condition
   DEPER  =   0.30     relativ break condition  

   TIME   =   0.40     timestep for ELM

  volume/ion in A,a.u.               =      40.12       270.75
  Fermi-wavevector in a.u.,A,eV,Ry     =   1.052085  1.988152 15.060057  1.106883
  Thomas-Fermi vector in A             =   2.187154
 
 Write flags
   LWAVE        =      F    write WAVECAR
   LDOWNSAMPLE  =      F    k-point downsampling of WAVECAR
   LCHARG       =      F    write CHGCAR
   LVTOT        =      F    write LOCPOT, total local potential
   LVHAR        =      F    write LOCPOT, Hartree potential only
   LELF         =      F    write electronic localiz. function (ELF)
   LORBIT       =     10    0 simple, 1 ext, 2 COOP (PROOUT), +10 PAW based schemes


 Dipole corrections
   LMONO  =      F    monopole corrections only (constant potential shift)
   LDIPOL =      F    correct potential (dipole corrections)
   IDIPOL =      0    1-x, 2-y, 3-z, 4-all directions 
   EPSILON=  1.0000000 bulk dielectric constant

 Exchange correlation treatment:
   GGA     =    --    GGA type
   LEXCH   =     8    internal setting for exchange type
   VOSKOWN=      0    Vosko Wilk Nusair interpolation
   LHFCALC =     F    Hartree Fock is set to
   LHFONE  =     F    Hartree Fock one center treatment
   AEXX    =    0.0000 exact exchange contribution

 Linear response parameters
   LEPSILON=     F    determine dielectric tensor
   LRPA    =     F    only Hartree local field effects (RPA)
   LNABLA  =     F    use nabla operator in PAW spheres
   LVEL    =     F    velocity operator in full k-point grid
   LINTERFAST=   F  fast interpolation
   KINTER  =     0    interpolate to denser k-point grid
   CSHIFT  =0.1000    complex shift for real part using Kramers Kronig
   OMEGAMAX=  -1.0    maximum frequency
   DEG_THRESHOLD= 0.2000000E-02 threshold for treating states as degnerate
   RTIME   =   -0.100 relaxation time in fs
  (WPLASMAI=    0.000 imaginary part of plasma frequency in eV, 0.658/RTIME)
   DFIELD  = 0.0000000 0.0000000 0.0000000 field for delta impulse in time
 
 Orbital magnetization related:
   ORBITALMAG=     F  switch on orbital magnetization
   LCHIMAG   =     F  perturbation theory with respect to B field
   DQ        =  0.001000  dq finite difference perturbation B field
   LLRAUG    =     F  two centre corrections for induced B field



--------------------------------------------------------------------------------------------------------


 Static calculation
 charge density and potential remain constant during run
 non-spin polarized calculation
 RMM-DIIS sequential band-by-band and
  variant of blocked Davidson during initial phase
 perform sub-space diagonalisation
    before iterative eigenvector-optimisation
 no mixing
 using additional bands           55
 real space projection scheme for non local part
 use partial core corrections
 calculate Harris-corrections to forces 
   (improved forces if not selfconsistent)
 use gradient corrections 
 WARNING: stress and forces are not correct
  (second derivative of E(xc) not defined)
 use of overlap-Matrix (Vanderbilt PP)
 Fermi weights with tetrahedron method with Bloechl corrections


--------------------------------------------------------------------------------------------------------


  energy-cutoff  :      500.00
  volume of cell :     1484.46
      direct lattice vectors                 reciprocal lattice vectors
     8.791366577  0.000000000  0.000000000     0.113747958 -0.065672414  0.000000000
     4.395683289  7.613546790  0.000000000     0.000000000  0.131344829  0.000000000
     0.000000000  0.000000000 22.178121567     0.000000000  0.000000000  0.045089481

  length of vectors
     8.791366577  8.791366577 22.178121567     0.131344829  0.131344829  0.045089481


 
 k-points in units of 2pi/SCALE and weight: Automatic mesh                          
   0.00000000  0.00000000  0.00000000       0.016
   0.01421849 -0.00820905  0.00000000       0.094
   0.02843699 -0.01641810  0.00000000       0.094
   0.04265548 -0.02462716  0.00000000       0.094
   0.05687398 -0.03283621  0.00000000       0.047
   0.02843699 -0.00000000  0.00000000       0.094
   0.04265548 -0.00820905  0.00000000       0.188
   0.05687398 -0.01641810  0.00000000       0.188
   0.05687398 -0.00000000  0.00000000       0.094
  -0.04265548  0.05746336  0.00000000       0.094
 
 k-points in reciprocal lattice and weights: Automatic mesh                          
   0.00000000  0.00000000  0.00000000       0.016
   0.12500000 -0.00000000  0.00000000       0.094
   0.25000000 -0.00000000  0.00000000       0.094
   0.37500000 -0.00000000  0.00000000       0.094
   0.50000000 -0.00000000  0.00000000       0.047
   0.25000000  0.12500000  0.00000000       0.094
   0.37500000  0.12500000  0.00000000       0.188
   0.50000000  0.12500000  0.00000000       0.188
   0.50000000  0.25000000  0.00000000       0.094
  -0.37500000  0.25000000  0.00000000       0.094
 
 position of ions in fractional coordinates (direct lattice) 
   0.00000000  0.00000000  0.23817112
   0.33333331  0.00000000  0.23817112
   0.66666663  0.00000000  0.23817112
   0.00000000  0.33333334  0.23817112
   0.33333331  0.33333334  0.23817112
   0.66666669  0.33333334  0.23817112
   0.00000000  0.66666669  0.23817112
   0.33333331  0.66666669  0.23817112
   0.66666663  0.66666669  0.23817112
   0.11111110  0.11111111  0.34605705
   0.44444445  0.11111111  0.34605705
   0.77777779  0.11111111  0.34605705
   0.11111110  0.44444445  0.34605705
   0.44444442  0.44444445  0.34605705
   0.77777779  0.44444445  0.34605705
   0.11111110  0.77777779  0.34605705
   0.44444445  0.77777779  0.34605705
   0.77777779  0.77777779  0.34605705
   0.88896535  0.22206932  0.45321446
   0.22260892  0.22260894  0.45274143
   0.55478210  0.22260894  0.45274143
   0.88854909  0.55572549  0.45348521
   0.22260894  0.55478216  0.45274143
   0.55572549  0.55572549  0.45348521
   0.88896535  0.88896535  0.45321446
   0.22206929  0.88896535  0.45321446
   0.55572543  0.88854909  0.45348521
   0.00000000  0.00000000  0.56064864
   0.33363046  0.00387176  0.56177760
   0.66249772  0.00387176  0.56177760
   0.00387176  0.33363049  0.56177760
   0.66249778  0.33363049  0.56177760
   0.00387176  0.66249778  0.56177760
   0.33363046  0.66249778  0.56177760
   0.66666663  0.66666669  0.56155707
   0.33333331  0.33333334  0.55470415
   0.33333331  0.33333334  0.63147713
 
 position of ions in cartesian coordinates  (Angst):
   0.00000000  0.00000000  5.28218814
   2.93045535  0.00000000  5.28218814
   5.86091070  0.00000000  5.28218814
   1.46522781  2.53784900  5.28218814
   4.39568315  2.53784900  5.28218814
   7.32613904  2.53784900  5.28218814
   2.93045562  5.07569801  5.28218814
   5.86091096  5.07569801  5.28218814
   8.79136632  5.07569801  5.28218814
   1.46522770  0.84594965  7.67489535
   4.39568332  0.84594965  7.67489535
   7.32613893  0.84594965  7.67489535
   2.93045542  3.38379860  7.67489535
   5.86091083  3.38379860  7.67489535
   8.79136671  3.38379860  7.67489535
   4.39568328  5.92164760  7.67489535
   7.32613890  5.92164760  7.67489535
  10.25659451  5.92164760  7.67489535
   8.79136665  1.69073515 10.05144549
   2.93555502  1.69484356 10.04095455
   5.85581116  1.69484356 10.04095455
  10.25435399  4.23104199 10.05745020
   4.39568342  4.22385991 10.04095455
   7.32837969  4.23104199 10.05745020
  11.72283038  6.76817927 10.05144549
   5.85990265  6.76817927 10.05144549
   8.79136631  6.76501006 10.05745020
   0.00000000  0.00000000 12.43413371
   2.95008670  0.02947782 12.45917197
   5.84127935  0.02947782 12.45917197
   1.50057202  2.54011134 12.45917197
   7.29079482  2.54011134 12.45917197
   2.94616848  5.04395785 12.45917197
   5.84519810  5.04395785 12.45917197
   8.79136632  5.07569801 12.45428096
   4.39568315  2.53784900 12.30229615
   4.39568315  2.53784900 14.00497660
 


--------------------------------------------------------------------------------------------------------


 k-point   1 :   0.0000 0.0000 0.0000  plane waves:   37683
 k-point   2 :   0.1250-0.0000 0.0000  plane waves:   37658
 k-point   3 :   0.2500-0.0000 0.0000  plane waves:   37682
 k-point   4 :   0.3750-0.0000 0.0000  plane waves:   37686
 k-point   5 :   0.5000-0.0000 0.0000  plane waves:   37668
 k-point   6 :   0.2500 0.1250 0.0000  plane waves:   37666
 k-point   7 :   0.3750 0.1250 0.0000  plane waves:   37708
 k-point   8 :   0.5000 0.1250 0.0000  plane waves:   37726
 k-point   9 :   0.5000 0.2500 0.0000  plane waves:   37706
 k-point  10 :  -0.3750 0.2500 0.0000  plane waves:   37686

 maximum and minimum number of plane-waves per node :     37726    37658

 maximum number of plane-waves:     37726
 maximum index in each direction: 
   IXMAX=   16   IYMAX=   16   IZMAX=   40
   IXMIN=  -16   IYMIN=  -16   IZMIN=  -40


 serial   3D FFT for wavefunctions
 parallel 3D FFT for charge:
    minimum data exchange during FFTs selected (reduces bandwidth)


 total amount of memory used by VASP MPI-rank0   123468. kBytes
=======================================================================

   base      :      30000. kBytes
   nonlr-proj:      15365. kBytes
   fftplans  :       4330. kBytes
   grid      :      17879. kBytes
   one-center:        575. kBytes
   wavefun   :      55319. kBytes
 
     INWAV:  cpu time    0.0000: real time    0.0000
 initial charge density was supplied:
 number of electron     393.9999960 magnetization 
 keeping initial charge density in first step


--------------------------------------------------------------------------------------------------------


 Maximum index for non-local projection operator         3047
 Maximum index for augmentation-charges          706 (set IRDMAX)


--------------------------------------------------------------------------------------------------------


 First call to EWALD:  gamma=   0.155
 Maximum number of real-space cells 4x 4x 2
 Maximum number of reciprocal cells 2x 2x 5

    FEWALD:  cpu time    0.0013: real time    0.0013


--------------------------------------- Iteration      1(   1)  ---------------------------------------


    POTLOK:  cpu time    0.0426: real time    0.0430
    SETDIJ:  cpu time    0.0047: real time    0.0047
     EDDAV:  cpu time    7.2076: real time    7.2095
 BZINTS: Fermi energy:    9.421973;  394.000000 electrons
         Band energy: 0.114704E+04;  BLOECHL correction:   -0.014274
       DOS:  cpu time    0.0105: real time    0.0105
    --------------------------------------------
      LOOP:  cpu time    7.2654: real time    7.2677

 eigenvalue-minimisations  :  5040
 total energy-change (2. order) : 0.2414092E+04  (-0.1815682E+05)
 number of electron     393.9999960 magnetization 
 augmentation part      393.9999960 magnetization 

 Free energy of the ion-electron system (eV)
  ---------------------------------------------------
  alpha Z        PSCENC =       747.42375866
  Ewald energy   TEWEN  =     96017.60929593
  -Hartree energ DENC   =   -133330.03277481
  -exchange      EXHF   =         0.00000000
  -V(xc)+E(xc)   XCENC  =      -406.58402901
  PAW double counting   =     39019.68703481   -37444.55750384
  entropy T*S    EENTRO =         0.00000000
  eigenvalues    EBANDS =      1147.03747364
  atomic energy  EATOM  =     36663.50831980
  Solvation  Ediel_sol  =         0.00000000
  ---------------------------------------------------
  free energy    TOTEN  =      2414.09157518 eV

  energy without entropy =     2414.09157518  energy(sigma->0) =     2414.09157518


--------------------------------------------------------------------------------------------------------




--------------------------------------- Iteration      1(   2)  ---------------------------------------


     EDDAV:  cpu time    7.5047: real time    7.5081
 BZINTS: Fermi energy:    1.248481;  394.000000 electrons
         Band energy:-0.128486E+04;  BLOECHL correction:   -0.022712
       DOS:  cpu time    0.0094: real time    0.0094
    --------------------------------------------
      LOOP:  cpu time    7.5141: real time    7.5175

 eigenvalue-minimisations  :  5320
 total energy-change (2. order) :-0.2431902E+04  (-0.2306784E+04)
 number of electron     393.9999960 magnetization 
 augmentation part      393.9999960 magnetization 

 Free energy of the ion-electron system (eV)
  ---------------------------------------------------
  alpha Z        PSCENC =       747.42375866
  Ewald energy   TEWEN  =     96017.60929593
  -Hartree energ DENC   =   -133330.03277481
  -exchange      EXHF   =         0.00000000
  -V(xc)+E(xc)   XCENC  =      -406.58402901
  PAW double counting   =     39019.68703481   -37444.55750384
  entropy T*S    EENTRO =         0.00000000
  eigenvalues    EBANDS =     -1284.86450828
  atomic energy  EATOM  =     36663.50831980
  Solvation  Ediel_sol  =         0.00000000
  ---------------------------------------------------
  free energy    TOTEN  =       -17.81040674 eV

  energy without entropy =      -17.81040674  energy(sigma->0) =      -17.81040674


--------------------------------------------------------------------------------------------------------




--------------------------------------- Iteration      1(   3)  ---------------------------------------


     EDDAV:  cpu time    8.2861: real time    8.2867
 BZINTS: Fermi energy:    0.680450;  394.000000 electrons
         Band energy:-0.136916E+04;  BLOECHL correction:   -0.075848
       DOS:  cpu time    0.0091: real time    0.0091
    --------------------------------------------
      LOOP:  cpu time    8.2952: real time    8.2958

 eigenvalue-minimisations  :  5992
 total energy-change (2. order) :-0.8429616E+02  (-0.8140127E+02)
 number of electron     393.9999960 magnetization 
 augmentation part      393.9999960 magnetization 

 Free energy of the ion-electron system (eV)
  ---------------------------------------------------
  alpha Z        PSCENC =       747.42375866
  Ewald energy   TEWEN  =     96017.60929593
  -Hartree energ DENC   =   -133330.03277481
  -exchange      EXHF   =         0.00000000
  -V(xc)+E(xc)   XCENC  =      -406.58402901
  PAW double counting   =     39019.68703481   -37444.55750384
  entropy T*S    EENTRO =         0.00000000
  eigenvalues    EBANDS =     -1369.16067249
  atomic energy  EATOM  =     36663.50831980
  Solvation  Ediel_sol  =         0.00000000
  ---------------------------------------------------
  free energy    TOTEN  =      -102.10657095 eV

  energy without entropy =     -102.10657095  energy(sigma->0) =     -102.10657095


--------------------------------------------------------------------------------------------------------




--------------------------------------- Iteration      1(   4)  ---------------------------------------


     EDDAV:  cpu time    7.7989: real time    7.7995
 BZINTS: Fermi energy:    0.667689;  394.000000 electrons
         Band energy:-0.137055E+04;  BLOECHL correction:   -0.078042
       DOS:  cpu time    0.0100: real time    0.0100
    --------------------------------------------
      LOOP:  cpu time    7.8089: real time    7.8095

 eigenvalue-minimisations  :  5572
 total energy-change (2. order) :-0.1394288E+01  (-0.1389538E+01)
 number of electron     393.9999960 magnetization 
 augmentation part      393.9999960 magnetization 

 Free energy of the ion-electron system (eV)
  ---------------------------------------------------
  alpha Z        PSCENC =       747.42375866
  Ewald energy   TEWEN  =     96017.60929593
  -Hartree energ DENC   =   -133330.03277481
  -exchange      EXHF   =         0.00000000
  -V(xc)+E(xc)   XCENC  =      -406.58402901
  PAW double counting   =     39019.68703481   -37444.55750384
  entropy T*S    EENTRO =         0.00000000
  eigenvalues    EBANDS =     -1370.55496086
  atomic energy  EATOM  =     36663.50831980
  Solvation  Ediel_sol  =         0.00000000
  ---------------------------------------------------
  free energy    TOTEN  =      -103.50085933 eV

  energy without entropy =     -103.50085933  energy(sigma->0) =     -103.50085933


--------------------------------------------------------------------------------------------------------




--------------------------------------- Iteration      1(   5)  ---------------------------------------


     EDDAV:  cpu time    8.6380: real time    8.6387
 BZINTS: Fermi energy:    0.667495;  394.000000 electrons
         Band energy:-0.137059E+04;  BLOECHL correction:   -0.078075
       DOS:  cpu time    0.0098: real time    0.0098
    --------------------------------------------
      LOOP:  cpu time    8.6478: real time    8.6485

 eigenvalue-minimisations  :  6300
 total energy-change (2. order) :-0.3363332E-01  (-0.3362352E-01)
 number of electron     393.9999960 magnetization 
 augmentation part      393.9999960 magnetization 

 Free energy of the ion-electron system (eV)
  ---------------------------------------------------
  alpha Z        PSCENC =       747.42375866
  Ewald energy   TEWEN  =     96017.60929593
  -Hartree energ DENC   =   -133330.03277481
  -exchange      EXHF   =         0.00000000
  -V(xc)+E(xc)   XCENC  =      -406.58402901
  PAW double counting   =     39019.68703481   -37444.55750384
  entropy T*S    EENTRO =         0.00000000
  eigenvalues    EBANDS =     -1370.58859418
  atomic energy  EATOM  =     36663.50831980
  Solvation  Ediel_sol  =         0.00000000
  ---------------------------------------------------
  free energy    TOTEN  =      -103.53449264 eV

  energy without entropy =     -103.53449264  energy(sigma->0) =     -103.53449264


--------------------------------------------------------------------------------------------------------




--------------------------------------- Iteration      1(   6)  ---------------------------------------


    EDDIAG:  cpu time    1.3971: real time    1.3973
  RMM-DIIS:  cpu time    3.9624: real time    3.9627
    ORTHCH:  cpu time    0.2617: real time    0.2617
 BZINTS: Fermi energy:    0.667492;  394.000000 electrons
         Band energy:-0.137059E+04;  BLOECHL correction:   -0.078075
       DOS:  cpu time    0.0101: real time    0.0101
    --------------------------------------------
      LOOP:  cpu time    5.6313: real time    5.6317

 eigenvalue-minimisations  :  5086
 total energy-change (2. order) :-0.7374073E-03  (-0.7382378E-03)
 number of electron     393.9999960 magnetization 
 augmentation part      393.9999960 magnetization 

 Free energy of the ion-electron system (eV)
  ---------------------------------------------------
  alpha Z        PSCENC =       747.42375866
  Ewald energy   TEWEN  =     96017.60929593
  -Hartree energ DENC   =   -133330.03277481
  -exchange      EXHF   =         0.00000000
  -V(xc)+E(xc)   XCENC  =      -406.58402901
  PAW double counting   =     39019.68703481   -37444.55750384
  entropy T*S    EENTRO =         0.00000000
  eigenvalues    EBANDS =     -1370.58933159
  atomic energy  EATOM  =     36663.50831980
  Solvation  Ediel_sol  =         0.00000000
  ---------------------------------------------------
  free energy    TOTEN  =      -103.53523005 eV

  energy without entropy =     -103.53523005  energy(sigma->0) =     -103.53523005


--------------------------------------------------------------------------------------------------------




--------------------------------------- Iteration      1(   7)  ---------------------------------------


    EDDIAG:  cpu time    1.3982: real time    1.3984
  RMM-DIIS:  cpu time    5.5014: real time    5.5017
    ORTHCH:  cpu time    0.2625: real time    0.2626
 BZINTS: Fermi energy:    0.667491;  394.000000 electrons
         Band energy:-0.137059E+04;  BLOECHL correction:   -0.078075
       DOS:  cpu time    0.0098: real time    0.0098
    --------------------------------------------
      LOOP:  cpu time    7.1719: real time    7.1724

 eigenvalue-minimisations  :  7164
 total energy-change (2. order) :-0.2566330E-03  (-0.2562024E-03)
 number of electron     393.9999960 magnetization 
 augmentation part      393.9999960 magnetization 

 Free energy of the ion-electron system (eV)
  ---------------------------------------------------
  alpha Z        PSCENC =       747.42375866
  Ewald energy   TEWEN  =     96017.60929593
  -Hartree energ DENC   =   -133330.03277481
  -exchange      EXHF   =         0.00000000
  -V(xc)+E(xc)   XCENC  =      -406.58402901
  PAW double counting   =     39019.68703481   -37444.55750384
  entropy T*S    EENTRO =         0.00000000
  eigenvalues    EBANDS =     -1370.58958822
  atomic energy  EATOM  =     36663.50831980
  Solvation  Ediel_sol  =         0.00000000
  ---------------------------------------------------
  free energy    TOTEN  =      -103.53548668 eV

  energy without entropy =     -103.53548668  energy(sigma->0) =     -103.53548668


--------------------------------------------------------------------------------------------------------




--------------------------------------- Iteration      1(   8)  ---------------------------------------


    EDDIAG:  cpu time    1.4000: real time    1.4001
  RMM-DIIS:  cpu time    3.6443: real time    3.6444
    ORTHCH:  cpu time    0.2623: real time    0.2624
 BZINTS: Fermi energy:    0.667491;  394.000000 electrons
         Band energy:-0.137059E+04;  BLOECHL correction:   -0.078075
       DOS:  cpu time    0.0100: real time    0.0100
    --------------------------------------------
      LOOP:  cpu time    5.3165: real time    5.3169

 eigenvalue-minimisations  :  4077
 total energy-change (2. order) :-0.1362630E-04  (-0.1358026E-04)
 number of electron     393.9999960 magnetization 
 augmentation part      393.9999960 magnetization 

 Free energy of the ion-electron system (eV)
  ---------------------------------------------------
  alpha Z        PSCENC =       747.42375866
  Ewald energy   TEWEN  =     96017.60929593
  -Hartree energ DENC   =   -133330.03277481
  -exchange      EXHF   =         0.00000000
  -V(xc)+E(xc)   XCENC  =      -406.58402901
  PAW double counting   =     39019.68703481   -37444.55750384
  entropy T*S    EENTRO =         0.00000000
  eigenvalues    EBANDS =     -1370.58960185
  atomic energy  EATOM  =     36663.50831980
  Solvation  Ediel_sol  =         0.00000000
  ---------------------------------------------------
  free energy    TOTEN  =      -103.53550031 eV

  energy without entropy =     -103.53550031  energy(sigma->0) =     -103.53550031


--------------------------------------------------------------------------------------------------------




--------------------------------------- Iteration      1(   9)  ---------------------------------------


    EDDIAG:  cpu time    1.3981: real time    1.3981
  RMM-DIIS:  cpu time    3.2698: real time    3.2700
    ORTHCH:  cpu time    0.2621: real time    0.2621
 BZINTS: Fermi energy:    0.667491;  394.000000 electrons
         Band energy:-0.137059E+04;  BLOECHL correction:   -0.078075
       DOS:  cpu time    0.0100: real time    0.0100
    --------------------------------------------
      LOOP:  cpu time    4.9399: real time    4.9402

 eigenvalue-minimisations  :  3336
 total energy-change (2. order) :-0.2300541E-05  (-0.2300686E-05)
 number of electron     393.9999960 magnetization 
 augmentation part      393.9999960 magnetization 

 Free energy of the ion-electron system (eV)
  ---------------------------------------------------
  alpha Z        PSCENC =       747.42375866
  Ewald energy   TEWEN  =     96017.60929593
  -Hartree energ DENC   =   -133330.03277481
  -exchange      EXHF   =         0.00000000
  -V(xc)+E(xc)   XCENC  =      -406.58402901
  PAW double counting   =     39019.68703481   -37444.55750384
  entropy T*S    EENTRO =         0.00000000
  eigenvalues    EBANDS =     -1370.58960415
  atomic energy  EATOM  =     36663.50831980
  Solvation  Ediel_sol  =         0.00000000
  ---------------------------------------------------
  free energy    TOTEN  =      -103.53550261 eV

  energy without entropy =     -103.53550261  energy(sigma->0) =     -103.53550261


--------------------------------------------------------------------------------------------------------




 average (electrostatic) potential at core
  the test charge radii are     1.1249  1.2598  0.7089
  (the norm of the test charge is              1.0000)
       1 -78.2451       2 -78.2431       3 -78.2430       4 -78.2431       5 -78.2451
       6 -78.2428       7 -78.2430       8 -78.2428       9 -78.2476      10 -78.4849
      11 -78.4889      12 -78.4848      13 -78.4889      14 -78.4887      15 -78.4775
      16 -78.4848      17 -78.4775      18 -78.4776      19 -78.4678      20 -78.6645
      21 -78.6646      22 -78.4673      23 -78.6646      24 -78.4673      25 -78.4678
      26 -78.4678      27 -78.4673      28 -78.2611      29 -78.3247      30 -78.3248
      31 -78.3247      32 -78.3247      33 -78.3248      34 -78.3247      35 -78.2406
      36 -28.8568      37 -67.0323
 
 
 
 E-fermi :   0.6675     XC(G=0):  -5.9382     alpha+bet : -5.5984

 Fermi energy:         0.6674910810

 k-point     1 :       0.0000    0.0000    0.0000
  band No.  band energies     occupation 
      1     -10.9339      2.00000
      2      -6.4846      2.00000
      3      -5.6183      2.00000
      4      -5.3290      2.00000
      5      -5.2427      2.00000
      6      -5.2298      2.00000
      7      -5.2298      2.00000
      8      -5.2170      2.00000
      9      -5.2170      2.00000
     10      -5.2162      2.00000
     11      -5.1953      2.00000
     12      -5.1759      2.00000
     13      -5.1758      2.00000
     14      -5.1725      2.00000
     15      -5.1646      2.00000
     16      -5.1646      2.00000
     17      -5.1520      2.00000
     18      -5.0280      2.00000
     19      -5.0232      2.00000
     20      -5.0232      2.00000
     21      -5.0020      2.00000
     22      -4.9927      2.00000
     23      -4.9927      2.00000
     24      -4.8449      2.00000
     25      -4.8200      2.00000
     26      -4.8200      2.00000
     27      -4.8069      2.00000
     28      -4.7966      2.00000
     29      -4.7842      2.00000
     30      -4.7842      2.00000
     31      -4.7830      2.00000
     32      -4.7654      2.00000
     33      -4.7654      2.00000
     34      -4.7512      2.00000
     35      -4.7512      2.00000
     36      -4.6868      2.00000
     37      -4.6712      2.00000
     38      -4.6712      2.00000
     39      -4.6370      2.00000
     40      -4.5613      2.00000
     41      -4.5613      2.00000
     42      -4.4374      2.00000
     43      -4.4374      2.00000
     44      -4.4273      2.00000
     45      -4.4148      2.00000
     46      -4.4148      2.00000
     47      -4.4095      2.00000
     48      -4.4095      2.00000
     49      -4.4079      2.00000
     50      -4.3800      2.00000
     51      -4.3800      2.00000
     52      -4.2661      2.00000
     53      -4.2655      2.00000
     54      -4.2393      2.00000
     55      -4.2381      2.00000
     56      -4.0678      2.00000
     57      -4.0523      2.00000
     58      -4.0523      2.00000
     59      -4.0397      2.00000
     60      -4.0368      2.00000
     61      -4.0368      2.00000
     62      -4.0134      2.00000
     63      -4.0109      2.00000
     64      -4.0109      2.00000
     65      -3.9706      2.00000
     66      -3.9706      2.00000
     67      -3.8841      2.00000
     68      -3.8841      2.00000
     69      -3.8741      2.00000
     70      -3.8741      2.00000
     71      -3.8686      2.00000
     72      -3.8660      2.00000
     73      -3.8618      2.00000
     74      -3.8617      2.00000
     75      -3.8379      2.00000
     76      -3.8379      2.00000
     77      -3.8339      2.00000
     78      -3.8101      2.00000
     79      -3.7974      2.00000
     80      -3.7974      2.00000
     81      -3.7755      2.00000
     82      -3.7755      2.00000
     83      -3.7629      2.00000
     84      -3.7229      2.00000
     85      -3.7229      2.00000
     86      -3.6847      2.00000
     87      -3.6847      2.00000
     88      -3.6542      2.00000
     89      -3.6450      2.00000
     90      -3.6449      2.00000
     91      -3.6374      2.00000
     92      -3.6374      2.00000
     93      -3.5663      2.00000
     94      -3.5663      2.00000
     95      -3.5488      2.00000
     96      -3.5468      2.00000
     97      -3.5468      2.00000
     98      -3.5227      2.00000
     99      -3.5227      2.00000
    100      -3.3462      2.00000
    101      -3.3302      2.00000
    102      -3.3302      2.00000
    103      -3.3126      2.00000
    104      -3.3126      2.00000
    105      -3.2954      2.00000
    106      -3.2936      2.00000
    107      -3.2936      2.00000
    108      -3.2643      2.00000
    109      -3.2498      2.00000
    110      -3.2498      2.00000
    111      -3.2040      2.00000
    112      -3.1962      2.00000
    113      -3.1554      2.00000
    114      -3.1554      2.00000
    115      -3.1150      2.00000
    116      -3.0797      2.00000
    117      -3.0797      2.00000
    118      -3.0321      2.00000
    119      -3.0321      2.00000
    120      -3.0213      2.00000
    121      -3.0212      2.00000
    122      -2.9912      2.00000
    123      -2.9912      2.00000
    124      -2.9705      2.00000
    125      -2.9486      2.00000
    126      -2.9486      2.00000
    127      -2.9471      2.00000
    128      -2.9354      2.00000
    129      -2.9354      2.00000
    130      -2.9270      2.00000
    131      -2.9262      2.00000
    132      -2.9262      2.00000
    133      -2.9132      2.00000
    134      -2.8320      2.00000
    135      -2.8320      2.00000
    136      -2.7596      2.00000
    137      -2.7596      2.00000
    138      -2.7473      2.00000
    139      -2.7438      2.00000
    140      -2.7341      2.00000
    141      -2.7341      2.00000
    142      -2.7245      2.00000
    143      -2.7245      2.00000
    144      -2.7127      2.00000
    145      -2.6972      2.00000
    146      -2.6972      2.00000
    147      -2.6914      2.00000
    148      -2.6842      2.00000
    149      -2.6545      2.00000
    150      -2.6430      2.00000
    151      -2.6254      2.00000
    152      -2.6254      2.00000
    153      -2.6204      2.00000
    154      -2.6204      2.00000
    155      -2.5897      2.00000
    156      -2.5873      2.00000
    157      -2.5873      2.00000
    158      -2.5704      2.00000
    159      -2.5658      2.00000
    160      -2.5345      2.00000
    161      -2.5345      2.00000
    162      -2.5254      2.00000
    163      -2.5162      2.00000
    164      -2.5111      2.00000
    165      -2.5111      2.00000
    166      -2.5048      2.00000
    167      -2.4921      2.00000
    168      -2.4921      2.00000
    169      -2.4915      2.00000
    170      -2.4574      2.00000
    171      -2.4574      2.00000
    172      -2.4279      2.00000
    173      -2.4278      2.00000
    174      -2.3604      2.00000
    175      -2.3604      2.00000
    176      -2.3560      2.00000
    177      -2.3349      2.00000
    178      -2.3349      2.00000
    179      -2.3227      2.00000
    180      -2.2583      2.00000
    181      -2.2583      2.00000
    182      -2.2462      2.00000
    183      -2.2324      2.00000
    184      -2.2324      2.00000
    185      -2.1934      2.00000
    186      -1.5769      2.00000
    187      -1.5769      2.00000
    188      -1.4712      2.00000
    189      -1.4712      2.00000
    190      -1.4443      2.00000
    191      -1.2688      2.00000
    192      -0.7937      2.00000
    193      -0.7937      2.00000
    194      -0.4612      2.00000
    195      -0.1049      2.00000
    196       0.2489      2.00000
    197       0.2489      2.00000
    198       0.2764      2.00000
    199       0.4193      2.75287
    200       0.5193      2.59980
    201       0.5193      0.91501
    202       1.1802      0.00000
    203       1.5742      0.00000
    204       1.5742      0.00000
    205       2.3922      0.00000
    206       2.5189      0.00000
    207       2.5450      0.00000
    208       2.5450      0.00000
    209       2.7705      0.00000
    210       2.7705      0.00000
    211       3.4888      0.00000
    212       3.4888      0.00000
    213       3.8678      0.00000
    214       3.9713      0.00000
    215       4.1121      0.00000
    216       4.1121      0.00000
    217       4.3470      0.00000
    218       4.3470      0.00000
    219       4.6957      0.00000
    220       4.9122      0.00000
    221       4.9328      0.00000
    222       4.9328      0.00000
    223       4.9857      0.00000
    224       4.9857      0.00000
    225       5.0073      0.00000
    226       5.0842      0.00000
    227       5.0842      0.00000
    228       5.1412      0.00000
    229       5.3711      0.00000
    230       5.3711      0.00000
    231       5.3737      0.00000
    232       5.4319      0.00000
    233       6.2019      0.00000
    234       6.5092      0.00000
    235       6.5092      0.00000
    236       6.6233      0.00000
    237       6.6547      0.00000
    238       6.6735      0.00000
    239       6.6739      0.00000
    240       6.6739      0.00000
    241       6.9590      0.00000
    242       6.9590      0.00000
    243       6.9694      0.00000
    244       7.0566      0.00000
    245       7.0569      0.00000
    246       7.0618      0.00000
    247       7.1501      0.00000
    248       7.2360      0.00000
    249       7.2395      0.00000
    250       7.2635      0.00000
    251       7.2812      0.00000
    252       7.2913      0.00000

 k-point     2 :       0.1250   -0.0000    0.0000
  band No.  band energies     occupation 
      1     -10.9338      2.00000
      2      -6.4388      2.00000
      3      -5.5787      2.00000
      4      -5.2965      2.00000
      5      -5.2877      2.00000
      6      -5.2493      2.00000
      7      -5.2279      2.00000
      8      -5.2241      2.00000
      9      -5.2124      2.00000
     10      -5.2018      2.00000
     11      -5.1978      2.00000
     12      -5.1778      2.00000
     13      -5.1706      2.00000
     14      -5.1285      2.00000
     15      -5.1143      2.00000
     16      -5.1084      2.00000
     17      -5.1039      2.00000
     18      -5.0877      2.00000
     19      -5.0591      2.00000
     20      -5.0569      2.00000
     21      -4.9509      2.00000
     22      -4.9447      2.00000
     23      -4.9002      2.00000
     24      -4.8850      2.00000
     25      -4.8782      2.00000
     26      -4.8737      2.00000
     27      -4.8340      2.00000
     28      -4.8185      2.00000
     29      -4.7836      2.00000
     30      -4.7752      2.00000
     31      -4.7610      2.00000
     32      -4.7411      2.00000
     33      -4.7406      2.00000
     34      -4.6999      2.00000
     35      -4.6766      2.00000
     36      -4.6747      2.00000
     37      -4.6653      2.00000
     38      -4.6521      2.00000
     39      -4.5779      2.00000
     40      -4.5328      2.00000
     41      -4.5315      2.00000
     42      -4.4989      2.00000
     43      -4.4903      2.00000
     44      -4.4804      2.00000
     45      -4.4558      2.00000
     46      -4.4446      2.00000
     47      -4.4385      2.00000
     48      -4.4359      2.00000
     49      -4.3765      2.00000
     50      -4.3626      2.00000
     51      -4.3326      2.00000
     52      -4.2540      2.00000
     53      -4.2519      2.00000
     54      -4.2327      2.00000
     55      -4.2213      2.00000
     56      -4.0833      2.00000
     57      -4.0725      2.00000
     58      -4.0675      2.00000
     59      -4.0584      2.00000
     60      -4.0367      2.00000
     61      -4.0355      2.00000
     62      -4.0270      2.00000
     63      -4.0160      2.00000
     64      -3.9993      2.00000
     65      -3.9992      2.00000
     66      -3.9541      2.00000
     67      -3.9359      2.00000
     68      -3.9071      2.00000
     69      -3.9056      2.00000
     70      -3.8973      2.00000
     71      -3.8944      2.00000
     72      -3.8606      2.00000
     73      -3.8588      2.00000
     74      -3.8540      2.00000
     75      -3.8506      2.00000
     76      -3.8301      2.00000
     77      -3.8251      2.00000
     78      -3.8095      2.00000
     79      -3.8051      2.00000
     80      -3.7978      2.00000
     81      -3.7670      2.00000
     82      -3.7670      2.00000
     83      -3.7529      2.00000
     84      -3.7526      2.00000
     85      -3.7340      2.00000
     86      -3.7258      2.00000
     87      -3.7207      2.00000
     88      -3.7007      2.00000
     89      -3.6895      2.00000
     90      -3.6685      2.00000
     91      -3.6209      2.00000
     92      -3.6152      2.00000
     93      -3.5962      2.00000
     94      -3.5813      2.00000
     95      -3.5536      2.00000
     96      -3.5419      2.00000
     97      -3.4710      2.00000
     98      -3.4239      2.00000
     99      -3.4222      2.00000
    100      -3.3993      2.00000
    101      -3.3832      2.00000
    102      -3.3612      2.00000
    103      -3.3557      2.00000
    104      -3.3276      2.00000
    105      -3.3138      2.00000
    106      -3.3109      2.00000
    107      -3.3056      2.00000
    108      -3.2753      2.00000
    109      -3.2456      2.00000
    110      -3.2378      2.00000
    111      -3.2140      2.00000
    112      -3.2057      2.00000
    113      -3.1670      2.00000
    114      -3.1571      2.00000
    115      -3.1276      2.00000
    116      -3.1186      2.00000
    117      -3.1127      2.00000
    118      -3.0969      2.00000
    119      -3.0847      2.00000
    120      -3.0654      2.00000
    121      -3.0636      2.00000
    122      -3.0239      2.00000
    123      -3.0191      2.00000
    124      -3.0039      2.00000
    125      -3.0028      2.00000
    126      -2.9985      2.00000
    127      -2.9872      2.00000
    128      -2.9677      2.00000
    129      -2.9540      2.00000
    130      -2.9469      2.00000
    131      -2.9249      2.00000
    132      -2.9107      2.00000
    133      -2.9055      2.00000
    134      -2.8880      2.00000
    135      -2.8733      2.00000
    136      -2.8598      2.00000
    137      -2.8296      2.00000
    138      -2.8296      2.00000
    139      -2.8119      2.00000
    140      -2.7832      2.00000
    141      -2.7714      2.00000
    142      -2.7503      2.00000
    143      -2.7391      2.00000
    144      -2.7260      2.00000
    145      -2.7090      2.00000
    146      -2.7066      2.00000
    147      -2.6953      2.00000
    148      -2.6713      2.00000
    149      -2.6618      2.00000
    150      -2.6567      2.00000
    151      -2.6549      2.00000
    152      -2.6378      2.00000
    153      -2.6363      2.00000
    154      -2.6167      2.00000
    155      -2.6155      2.00000
    156      -2.6110      2.00000
    157      -2.6033      2.00000
    158      -2.5970      2.00000
    159      -2.5868      2.00000
    160      -2.5811      2.00000
    161      -2.5560      2.00000
    162      -2.5521      2.00000
    163      -2.5283      2.00000
    164      -2.5262      2.00000
    165      -2.4946      2.00000
    166      -2.4933      2.00000
    167      -2.4808      2.00000
    168      -2.4688      2.00000
    169      -2.4611      2.00000
    170      -2.4403      2.00000
    171      -2.4229      2.00000
    172      -2.4022      2.00000
    173      -2.3894      2.00000
    174      -2.3852      2.00000
    175      -2.3694      2.00000
    176      -2.3595      2.00000
    177      -2.3477      2.00000
    178      -2.3384      2.00000
    179      -2.3321      2.00000
    180      -2.3238      2.00000
    181      -2.2876      2.00000
    182      -2.2664      2.00000
    183      -2.0174      2.00000
    184      -1.8047      2.00000
    185      -1.7881      2.00000
    186      -1.7201      2.00000
    187      -1.6507      2.00000
    188      -1.5043      2.00000
    189      -1.1552      2.00000
    190      -1.0534      2.00000
    191      -0.8997      2.00000
    192      -0.7633      2.00000
    193      -0.6757      2.00000
    194      -0.4059      2.00000
[...]
  0.000   0.000   0.000   0.000   0.000   0.000   0.000   0.000   0.000   0.000   0.000   0.000   0.000   0.000   0.000   0.000
  0.000   0.000   0.000   0.000   0.000   0.000   0.000   0.000   0.000   0.000   0.000   0.000   0.000   0.000   0.000   0.000
  0.000   0.000   0.000   0.000   0.000   0.000   0.000   0.000   0.000   0.000   0.000   0.000   0.000   0.000   0.000   0.000
  0.000   0.000   0.000   0.000   0.000   0.000   0.000   0.000   0.000   0.000   0.000   0.000   0.000   0.000   0.000   0.000
  0.000   0.000   0.000   0.000   0.000   0.000   0.000   0.000   0.000   0.000   0.000   0.000   0.000   0.000   0.000   0.000
  0.000   0.000   0.000   0.000   0.000   0.000   0.000   0.000   0.000   0.000   1.000   0.000   0.000   0.000   0.000   0.000
  0.000   0.000   0.000   0.000   0.000   0.000   0.000   0.000   0.000   0.000   0.000   0.000   0.000   0.000   0.000   0.000
  0.000   0.000   0.000   0.000   0.000   0.000   0.000   0.000   0.000   0.000   0.000   0.000   0.000   0.000   0.000   0.000
  0.000   0.000   0.000   0.000   0.000   0.000   0.000   0.000   0.000   0.000   0.000   0.000   0.000   0.000   0.000   0.000
  0.000   0.000   0.000   0.000   0.000   0.000   0.000   0.000   0.000   0.000   0.000   0.000   0.000   0.000   0.000   0.000
  0.000   0.000   0.000   0.000   0.000   0.000   0.000   0.000   0.000   0.000   0.000   0.000   0.000   0.000   0.000   0.000
  0.000   0.000   0.000   0.000   0.000   0.000   0.000   0.000   0.000   0.000   0.000   0.000   0.000   0.000   0.000   0.000
  0.000   0.000   0.000   0.000   0.000   0.000   0.000   0.000   0.000   0.000   0.000   0.000   0.000   0.000   0.000   0.000


------------------------ aborting loop because EDIFF is reached ----------------------------------------





 total charge

# of ion       s       p       d       tot
------------------------------------------
    1        0.416   0.203   9.177   9.796
    2        0.415   0.204   9.177   9.795
    3        0.415   0.204   9.177   9.795
    4        0.415   0.204   9.177   9.795
    5        0.419   0.201   9.177   9.797
    6        0.415   0.204   9.177   9.795
    7        0.415   0.204   9.177   9.795
    8        0.415   0.204   9.177   9.795
    9        0.415   0.203   9.177   9.795
   10        0.405   0.271   9.164   9.840
   11        0.406   0.270   9.165   9.841
   12        0.405   0.271   9.164   9.840
   13        0.406   0.270   9.165   9.841
   14        0.406   0.270   9.165   9.841
   15        0.403   0.271   9.163   9.837
   16        0.405   0.271   9.164   9.840
   17        0.403   0.271   9.163   9.837
   18        0.403   0.271   9.163   9.837
   19        0.401   0.267   9.167   9.835
   20        0.424   0.289   9.148   9.862
   21        0.424   0.289   9.148   9.862
   22        0.397   0.274   9.164   9.835
   23        0.424   0.289   9.148   9.862
   24        0.397   0.274   9.164   9.835
   25        0.401   0.267   9.167   9.835
   26        0.401   0.267   9.167   9.835
   27        0.397   0.274   9.164   9.835
   28        0.413   0.200   9.177   9.790
   29        0.426   0.204   9.169   9.800
   30        0.426   0.204   9.169   9.800
   31        0.426   0.204   9.169   9.800
   32        0.426   0.204   9.169   9.800
   33        0.426   0.204   9.169   9.800
   34        0.426   0.204   9.169   9.800
   35        0.415   0.199   9.176   9.790
   36        0.519   0.650   2.869   4.038
   37        1.335   2.192   0.000   3.527
--------------------------------------------------
tot         16.289  11.223 323.741 351.253
 
    CHARGE:  cpu time    0.3339: real time    0.3340
    FORLOC:  cpu time    0.0101: real time    0.0101
    FORNL :  cpu time    1.4824: real time    1.4827
    STRESS:  cpu time    4.4207: real time    4.4211
    FORCOR:  cpu time    0.0531: real time    0.0532
    FORHAR:  cpu time    0.0165: real time    0.0166
    OFIELD:  cpu time    0.0002: real time    0.0002

  FORCE on cell =-STRESS in cart. coord.  units (eV):
  Direction    XX          YY          ZZ          XY          YZ          ZX
  --------------------------------------------------------------------------------------
  Alpha Z   747.42376   747.42376   747.42376
  Ewald  118459.61651118459.61642************    -0.00000    -0.00001     0.00002
  Hartree128511.85112128511.85108************    -0.00000    -0.00000     0.00000
  E(xc)   -2064.46364 -2064.46364 -2073.39507     0.00000     0.00000     0.00000
  Local  ************************258105.35984     0.00045    -0.00004    -0.00012
  n-local  -335.18322  -320.40126  -338.82783     9.55013    -0.43194     0.45083
  augment  3224.39569  3224.39588  3239.25473    -0.00017    -0.00001    -0.00001
  Kinetic  4881.08411  4882.10390  4915.20833     3.67771     0.97568    -0.38598
  Fock        0.00000     0.00000     0.00000     0.00000     0.00000     0.00000
  -------------------------------------------------------------------------------------
  Total      -7.27689    -7.27689    -0.68067    -0.00000    -0.00000    -0.00000
  in kB      -7.85395    -7.85395    -0.73464    -0.00000    -0.00000    -0.00000
  external pressure =       -5.48 kB  Pullay stress =        0.00 kB


 VOLUME and BASIS-vectors are now :
 -----------------------------------------------------------------------------
  energy-cutoff  :      500.00
  volume of cell :     1484.46
      direct lattice vectors                 reciprocal lattice vectors
     8.791366577  0.000000000  0.000000000     0.113747958 -0.065672414  0.000000000
     4.395683289  7.613546790  0.000000000     0.000000000  0.131344829  0.000000000
     0.000000000  0.000000000 22.178121567     0.000000000  0.000000000  0.045089481

  length of vectors
     8.791366577  8.791366577 22.178121567     0.131344829  0.131344829  0.045089481


 FORCES acting on ions
    electron-ion (+dipol)            ewald-force                    non-local-force                 convergence-correction
 -----------------------------------------------------------------------------------------------
   0.462E-04 -.280E-04 0.248E+04   -.953E-04 0.593E-04 -.248E+04   -.116E-17 -.273E-17 -.182E+01   -.834E-04 -.155E-03 -.629E-01
   -.337E+00 -.347E+00 0.248E+04   0.217E+00 0.203E+00 -.248E+04   0.506E-01 0.902E-01 -.164E+01   0.628E-01 0.457E-01 -.419E-01
   0.337E+00 -.347E+00 0.248E+04   -.216E+00 0.203E+00 -.248E+04   -.506E-01 0.902E-01 -.164E+01   -.634E-01 0.475E-01 -.413E-01
   -.469E+00 -.118E+00 0.248E+04   0.284E+00 0.859E-01 -.248E+04   0.103E+00 -.129E-02 -.164E+01   0.712E-01 0.317E-01 -.419E-01
   -.626E-05 -.190E-04 0.248E+04   0.981E-04 -.200E-05 -.248E+04   -.137E-17 -.185E-17 -.152E+01   0.618E-02 0.378E-02 -.531E-02
   0.469E+00 -.118E+00 0.248E+04   -.285E+00 0.858E-01 -.248E+04   -.103E+00 -.129E-02 -.164E+01   -.725E-01 0.327E-01 -.412E-01
   -.132E+00 0.465E+00 0.248E+04   0.678E-01 -.289E+00 -.248E+04   0.528E-01 -.889E-01 -.164E+01   0.992E-02 -.781E-01 -.413E-01
   0.132E+00 0.465E+00 0.248E+04   -.679E-01 -.289E+00 -.248E+04   -.528E-01 -.889E-01 -.164E+01   -.832E-02 -.791E-01 -.412E-01
   0.366E-04 -.130E-04 0.248E+04   0.791E-04 -.642E-04 -.248E+04   -.214E-17 0.421E-19 -.176E+01   -.663E-02 -.341E-02 0.281E-01
   -.170E+01 -.981E+00 0.815E+03   0.180E+01 0.104E+01 -.814E+03   -.148E+00 -.855E-01 -.550E+00   0.316E-01 0.183E-01 0.105E+00
   -.286E-04 -.176E+01 0.810E+03   0.406E-04 0.168E+01 -.810E+03   0.577E-12 0.879E-01 -.531E+00   0.612E-02 -.185E-01 0.982E-01
   0.170E+01 -.981E+00 0.815E+03   -.180E+01 0.104E+01 -.814E+03   0.148E+00 -.855E-01 -.550E+00   -.329E-01 0.189E-01 0.104E+00
   -.153E+01 0.881E+00 0.810E+03   0.145E+01 -.840E+00 -.810E+03   0.762E-01 -.440E-01 -.531E+00   -.130E-01 0.146E-01 0.982E-01
   0.153E+01 0.881E+00 0.810E+03   -.145E+01 -.840E+00 -.810E+03   -.762E-01 -.440E-01 -.531E+00   0.232E-01 0.137E-01 0.965E-01
   0.152E-04 -.105E+00 0.815E+03   -.107E-03 0.262E-01 -.814E+03   0.306E-12 0.466E-01 -.654E+00   -.132E-02 0.290E-01 0.821E-01
   -.814E-05 0.196E+01 0.815E+03   0.207E-04 -.207E+01 -.814E+03   0.112E-11 0.171E+00 -.550E+00   -.142E-03 -.381E-01 0.104E+00
   -.911E-01 0.526E-01 0.815E+03   0.226E-01 -.132E-01 -.814E+03   0.403E-01 -.233E-01 -.654E+00   0.244E-01 -.156E-01 0.821E-01
   0.910E-01 0.525E-01 0.815E+03   -.227E-01 -.131E-01 -.814E+03   -.403E-01 -.233E-01 -.654E+00   -.243E-01 -.141E-01 0.829E-01
   0.384E-04 -.568E+01 -.863E+03   -.125E-03 0.546E+01 0.862E+03   0.112E-11 0.171E+00 0.970E+00   0.564E-02 0.612E-01 0.783E-01
   -.313E+02 -.181E+02 -.897E+03   0.316E+02 0.182E+02 0.897E+03   -.477E+00 -.276E+00 -.157E+00   0.184E-01 0.107E-01 0.125E+00
   0.313E+02 -.181E+02 -.897E+03   -.316E+02 0.182E+02 0.897E+03   0.477E+00 -.276E+00 -.157E+00   -.202E-01 0.101E-01 0.124E+00
   -.136E+02 0.783E+01 -.866E+03   0.134E+02 -.774E+01 0.865E+03   0.158E+00 -.910E-01 0.507E+00   0.281E-01 -.106E-01 0.495E-01
   -.511E-04 0.361E+02 -.897E+03   0.357E-04 -.364E+02 0.897E+03   0.362E-11 0.551E+00 -.157E+00   -.980E-03 -.219E-01 0.124E+00
   0.136E+02 0.783E+01 -.866E+03   -.134E+02 -.774E+01 0.865E+03   -.158E+00 -.910E-01 0.507E+00   -.173E-01 -.991E-02 0.496E-01
   0.492E+01 0.284E+01 -.863E+03   -.473E+01 -.273E+01 0.862E+03   -.148E+00 -.853E-01 0.970E+00   -.462E-01 -.268E-01 0.780E-01
   -.492E+01 0.284E+01 -.863E+03   0.473E+01 -.273E+01 0.862E+03   0.148E+00 -.853E-01 0.970E+00   0.555E-01 -.258E-01 0.783E-01
   0.194E-04 -.157E+02 -.866E+03   0.110E-03 0.155E+02 0.865E+03   0.120E-11 0.182E+00 0.507E+00   0.424E-02 0.296E-01 0.496E-01
   0.540E-04 -.362E-04 -.247E+04   -.114E-03 0.769E-04 0.247E+04   0.696E-17 0.271E-17 0.180E+01   0.224E-03 -.537E-05 0.369E-01
   -.133E+02 -.290E+02 -.246E+04   0.135E+02 0.294E+02 0.246E+04   -.391E+00 -.631E+00 0.234E+01   0.103E+00 0.549E-01 -.162E-01
   0.133E+02 -.290E+02 -.246E+04   -.135E+02 0.294E+02 0.246E+04   0.391E+00 -.631E+00 0.234E+01   -.104E+00 0.558E-01 -.160E-01
   -.317E+02 0.297E+01 -.246E+04   0.322E+02 -.303E+01 0.246E+04   -.742E+00 -.228E-01 0.234E+01   0.992E-01 0.618E-01 -.162E-01
   0.317E+02 0.297E+01 -.246E+04   -.322E+02 -.303E+01 0.246E+04   0.742E+00 -.228E-01 0.234E+01   -.993E-01 0.627E-01 -.152E-01
   -.184E+02 0.260E+02 -.246E+04   0.187E+02 -.264E+02 0.246E+04   -.351E+00 0.654E+00 0.234E+01   -.311E-02 -.117E+00 -.160E-01
   0.184E+02 0.260E+02 -.246E+04   -.187E+02 -.264E+02 0.246E+04   0.351E+00 0.654E+00 0.234E+01   0.431E-02 -.117E+00 -.152E-01
   0.256E-04 -.131E-04 -.248E+04   0.104E-03 -.654E-04 0.247E+04   -.227E-17 0.922E-18 0.177E+01   -.636E-02 -.324E-02 0.482E-01
   -.334E-05 0.510E-05 -.792E+03   0.380E-04 0.429E-05 0.790E+03   -.179E-17 -.277E-18 0.134E+01   0.328E-03 0.203E-03 0.156E-02
   0.102E-03 -.559E-04 -.129E+04   0.232E-04 0.334E-06 0.130E+04   -.220E-18 0.174E-18 -.135E+02   0.144E-02 0.886E-03 -.182E+00
 -----------------------------------------------------------------------------------------------
   0.456E-03 -.734E-03 0.974E+01   0.242E-13 0.194E-13 0.159E-11   -.115E-15 0.819E-18 -.108E+02   0.357E-01 0.238E-01 0.113E+01
 
 
 POSITION                                       TOTAL-FORCE (eV/Angst)
 -----------------------------------------------------------------------------------
      0.00000      0.00000      5.28219         0.000000     -0.000000      0.002474
      2.93046      0.00000      5.28219        -0.006210     -0.006840      0.028573
      5.86091      0.00000      5.28219         0.006210     -0.006840      0.028573
      1.46523      2.53785      5.28219        -0.009029     -0.001957      0.028573
      4.39568      2.53785      5.28219         0.000000     -0.000000     -0.009398
      7.32614      2.53785      5.28219         0.009029     -0.001957      0.028573
      2.93046      5.07570      5.28219        -0.002819      0.008798      0.028573
      5.86091      5.07570      5.28219         0.002819      0.008798      0.028573
      8.79137      5.07570      5.28219         0.000000     -0.000000      0.019961
      1.46523      0.84595      7.67490        -0.019519     -0.011269     -0.038012
      4.39568      0.84595      7.67490        -0.000000     -0.017066     -0.052414
      7.32614      0.84595      7.67490         0.019519     -0.011269     -0.038012
      2.93046      3.38380      7.67490        -0.014780      0.008533     -0.052414
      5.86091      3.38380      7.67490         0.014780      0.008533     -0.052414
      8.79137      3.38380      7.67490        -0.000000     -0.003741      0.007750
      4.39568      5.92165      7.67490         0.000000      0.022538     -0.038012
      7.32614      5.92165      7.67490        -0.003240      0.001871      0.007750
     10.25659      5.92165      7.67490         0.003240      0.001871      0.007750
      8.79137      1.69074     10.05145         0.000000      0.010773      0.078380
      2.93556      1.69484     10.04095        -0.187612     -0.108318     -0.119221
      5.85581      1.69484     10.04095         0.187612     -0.108318     -0.119221
     10.25435      4.23104     10.05745         0.029400     -0.016974      0.046093
      4.39568      4.22386     10.04095         0.000000      0.216636     -0.119221
      7.32838      4.23104     10.05745        -0.029400     -0.016974      0.046093
     11.72283      6.76818     10.05145        -0.009329     -0.005386      0.078380
      5.85990      6.76818     10.05145         0.009329     -0.005386      0.078380
      8.79137      6.76501     10.05745         0.000000      0.033948      0.046093
      0.00000      0.00000     12.43413         0.000000     -0.000000     -0.047290
      2.95009      0.02948     12.45917        -0.086121     -0.111990     -0.015939
      5.84128      0.02948     12.45917         0.086121     -0.111990     -0.015939
      1.50057      2.54011     12.45917        -0.140047     -0.018588     -0.015939
      7.29079      2.54011     12.45917         0.140047     -0.018588     -0.015939
      2.94617      5.04396     12.45917        -0.053926      0.130578     -0.015939
      5.84520      5.04396     12.45917         0.053926      0.130578     -0.015939
      8.79137      5.07570     12.45428         0.000000     -0.000000     -0.058251
      4.39568      2.53785     12.30230         0.000000     -0.000000      0.246720
      4.39568      2.53785     14.00498         0.000000     -0.000000      0.002250
 -----------------------------------------------------------------------------------
    total drift:                                0.036111      0.023089      0.112164


--------------------------------------------------------------------------------------------------------



  FREE ENERGIE OF THE ION-ELECTRON SYSTEM (eV)
  ---------------------------------------------------
  free  energy   TOTEN  =      -103.53550261 eV

  energy  without entropy=     -103.53550261  energy(sigma->0) =     -103.53550261
 


--------------------------------------------------------------------------------------------------------


    POTLOK:  cpu time    0.0442: real time    0.0442


--------------------------------------------------------------------------------------------------------


 stress matrix after NEB project (eV)
     -7.27689     -0.00000     -0.00000
     -0.00000     -7.27689      0.00000
      0.00000     -0.00000     -0.68067
  FORCES: max atom, RMS     0.002250    0.000370
  FORCE total and by dimension    0.002250    0.002250
  Stress total and by dimension   10.313560    7.276889
     LOOP+:  cpu time   69.0002: real time   69.0144
 -----------------------------------------------------------------------------
|                                                                             |
|           W    W    AA    RRRRR   N    N  II  N    N   GGGG   !!!           |
|           W    W   A  A   R    R  NN   N  II  NN   N  G    G  !!!           |
|           W    W  A    A  R    R  N N  N  II  N N  N  G       !!!           |
|           W WW W  AAAAAA  RRRRR   N  N N  II  N  N N  G  GGG   !            |
|           WW  WW  A    A  R   R   N   NN  II  N   NN  G    G                |
|           W    W  A    A  R    R  N    N  II  N    N   GGGG   !!!           |
|                                                                             |
|     Tetrahedron method does not include variations of the Fermi             |
|     occupations, so forces and stress will be inaccurate. We suggest        |
|     using a different smearing scheme ISMEAR = 1 or 2 for metals in         |
|     relaxations.                                                            |
|                                                                             |
 -----------------------------------------------------------------------------

    4ORBIT:  cpu time    0.0000: real time    0.0000



 total charge

# of ion       s       p       d       tot
------------------------------------------
    1        0.416   0.203   9.177   9.796
    2        0.415   0.204   9.177   9.795
    3        0.415   0.204   9.177   9.795
    4        0.415   0.204   9.177   9.795
    5        0.419   0.201   9.177   9.797
    6        0.415   0.204   9.177   9.795
    7        0.415   0.204   9.177   9.795
    8        0.415   0.204   9.177   9.795
    9        0.415   0.203   9.177   9.795
   10        0.405   0.271   9.164   9.840
   11        0.406   0.270   9.165   9.841
   12        0.405   0.271   9.164   9.840
   13        0.406   0.270   9.165   9.841
   14        0.406   0.270   9.165   9.841
   15        0.403   0.271   9.163   9.837
   16        0.405   0.271   9.164   9.840
   17        0.403   0.271   9.163   9.837
   18        0.403   0.271   9.163   9.837
   19        0.401   0.267   9.167   9.835
   20        0.424   0.289   9.148   9.862
   21        0.424   0.289   9.148   9.862
   22        0.397   0.274   9.164   9.835
   23        0.424   0.289   9.148   9.862
   24        0.397   0.274   9.164   9.835
   25        0.401   0.267   9.167   9.835
   26        0.401   0.267   9.167   9.835
   27        0.397   0.274   9.164   9.835
   28        0.413   0.200   9.177   9.790
   29        0.426   0.204   9.169   9.800
   30        0.426   0.204   9.169   9.800
   31        0.426   0.204   9.169   9.800
   32        0.426   0.204   9.169   9.800
   33        0.426   0.204   9.169   9.800
   34        0.426   0.204   9.169   9.800
   35        0.415   0.199   9.176   9.790
   36        0.519   0.650   2.869   4.038
   37        1.335   2.192   0.000   3.527
--------------------------------------------------
tot         16.289  11.223 323.741 351.253
 
 BZINTS: Fermi energy:    0.667491;  394.000000 electrons
         Band energy:-0.137059E+04;  BLOECHL correction:   -0.078075

 total amount of memory used by VASP MPI-rank0   123468. kBytes
=======================================================================

   base      :      30000. kBytes
   nonlr-proj:      15365. kBytes
   fftplans  :       4330. kBytes
   grid      :      17879. kBytes
   one-center:        575. kBytes
   wavefun   :      55319. kBytes
 
  
  
 General timing and accounting informations for this job:
 ========================================================
  
                  Total CPU time used (sec):       76.354
                            User time (sec):       73.341
                          System time (sec):        3.013
                         Elapsed time (sec):       76.916
  
                   Maximum memory used (kb):      383076.
                   Average memory used (kb):          N/A
  
                          Minor page faults:        71338
                          Major page faults:            0
                 Voluntary context switches:         4488
