PROCAR new format
# of k-points:   10         # of bands:  252         # of ions:   37

 k-point     1 :    0.00000000 0.00000000 0.00000000     weight = 0.01562500

band     1 # energy  -10.93390069 # occ.  2.00000000
 
ion      s      p      d    tot
    1  0.000  0.000  0.000  0.000
    2  0.000  0.000  0.000  0.000
    3  0.000  0.000  0.000  0.000
    4  0.000  0.000  0.000  0.000
    5  0.000  0.000  0.000  0.000
    6  0.000  0.000  0.000  0.000
    7  0.000  0.000  0.000  0.000
    8  0.000  0.000  0.000  0.000
    9  0.000  0.000  0.000  0.000
   10  0.000  0.000  0.000  0.000
   11  0.000  0.000  0.000  0.000
   12  0.000  0.000  0.000  0.000
   13  0.000  0.000  0.000  0.000
   14  0.000  0.000  0.000  0.000
   15  0.000  0.000  0.000  0.000
   16  0.000  0.000  0.000  0.000
   17  0.000  0.000  0.000  0.000
   18  0.000  0.000  0.000  0.000
   19  0.000  0.000  0.000  0.000
   20  0.000  0.000  0.000  0.000
   21  0.000  0.000  0.000  0.000
   22  0.000  0.000  0.000  0.000
   23  0.000  0.000  0.000  0.000
   24  0.000  0.000  0.000  0.000
   25  0.000  0.000  0.000  0.000
   26  0.000  0.000  0.000  0.000
   27  0.000  0.000  0.000  0.000
   28  0.000  0.000  0.000  0.000
   29  0.000  0.000  0.000  0.000
   30  0.000  0.000  0.000  0.000
   31  0.000  0.000  0.000  0.000
   32  0.000  0.000  0.000  0.000
   33  0.000  0.000  0.000  0.000
   34  0.000  0.000  0.000  0.000
   35  0.000  0.000  0.000  0.000
   36  0.078  0.076  0.125  0.278
   37  0.641  0.007  0.000  0.648
tot    0.720  0.083  0.127  0.930
 
band     2 # energy   -6.48460477 # occ.  2.00000000
 
ion      s      p      d    tot
    1  0.006  0.001  0.000  0.007
    2  0.006  0.001  0.000  0.007
    3  0.006  0.001  0.000  0.007
    4  0.006  0.001  0.000  0.007
    5  0.006  0.001  0.000  0.007
    6  0.006  0.001  0.000  0.007
    7  0.006  0.001  0.000  0.007
    8  0.006  0.001  0.000  0.007
    9  0.006  0.001  0.000  0.007
   10  0.024  0.000  0.000  0.024
   11  0.024  0.000  0.000  0.025
   12  0.024  0.000  0.000  0.024
   13  0.024  0.000  0.000  0.025
   14  0.024  0.000  0.000  0.025
   15  0.023  0.000  0.000  0.024
   16  0.024  0.000  0.000  0.024
   17  0.023  0.000  0.000  0.024
   18  0.023  0.000  0.000  0.024
   19  0.023  0.000  0.000  0.023
   20  0.024  0.000  0.000  0.025
   21  0.024  0.000  0.000  0.025
   22  0.023  0.000  0.000  0.023
   23  0.024  0.000  0.000  0.025
   24  0.023  0.000  0.000  0.023
   25  0.023  0.000  0.000  0.023
   26  0.023  0.000  0.000  0.023
   27  0.023  0.000  0.000  0.023
   28  0.005  0.001  0.000  0.006
   29  0.005  0.001  0.000  0.006
   30  0.005  0.001  0.000  0.006
   31  0.005  0.001  0.000  0.006
   32  0.005  0.001  0.000  0.006
   33  0.005  0.001  0.000  0.006
   34  0.005  0.001  0.000  0.006
   35  0.005  0.001  0.000  0.006
   36  0.004  0.002  0.000  0.006
   37  0.001  0.000  0.000  0.001
tot    0.524  0.014  0.007  0.545
 
band     3 # energy   -5.61825626 # occ.  2.00000000
 
ion      s      p      d    tot
    1  0.007  0.000  0.000  0.008
    2  0.007  0.000  0.000  0.008
    3  0.007  0.000  0.000  0.008
    4  0.007  0.000  0.000  0.008
    5  0.007  0.000  0.000  0.008
    6  0.007  0.000  0.000  0.008
    7  0.007  0.000  0.000  0.008
    8  0.007  0.000  0.000  0.008
    9  0.007  0.000  0.000  0.008
   10  0.011  0.001  0.016  0.028
   11  0.011  0.001  0.017  0.028
   12  0.011  0.001  0.016  0.028
   13  0.011  0.001  0.017  0.028
   14  0.011  0.001  0.017  0.028
   15  0.010  0.001  0.014  0.025
   16  0.011  0.001  0.016  0.028
   17  0.010  0.001  0.014  0.025
   18  0.010  0.001  0.014  0.025
   19  0.012  0.001  0.018  0.031
   20  0.013  0.001  0.025  0.039
   21  0.013  0.001  0.025  0.039
   22  0.012  0.001  0.017  0.030
   23  0.013  0.001  0.025  0.039
   24  0.012  0.001  0.017  0.030
   25  0.012  0.001  0.018  0.031
   26  0.012  0.001  0.018  0.031
   27  0.012  0.001  0.017  0.030
   28  0.006  0.000  0.000  0.007
   29  0.005  0.000  0.000  0.006
   30  0.005  0.000  0.000  0.006
   31  0.005  0.000  0.000  0.006
   32  0.005  0.000  0.000  0.006
   33  0.005  0.000  0.000  0.006
   34  0.005  0.000  0.000  0.006
   35  0.006  0.000  0.000  0.006
   36  0.004  0.001  0.000  0.005
   37  0.001  0.000  0.000  0.001
tot    0.321  0.024  0.324  0.669
 
band     4 # energy   -5.32896010 # occ.  2.00000000
 
ion      s      p      d    tot
    1  0.015  0.000  0.023  0.038
    2  0.015  0.000  0.022  0.037
    3  0.015  0.000  0.022  0.037
    4  0.015  0.000  0.022  0.037
    5  0.015  0.000  0.022  0.037
    6  0.015  0.000  0.022  0.036
    7  0.015  0.000  0.022  0.037
    8  0.015  0.000  0.022  0.036
    9  0.015  0.000  0.021  0.035
   10  0.000  0.000  0.019  0.020
   11  0.000  0.001  0.019  0.020
   12  0.000  0.000  0.019  0.020
   13  0.000  0.001  0.019  0.020
   14  0.000  0.001  0.019  0.020
   15  0.000  0.001  0.016  0.017
   16  0.000  0.000  0.019  0.020
   17  0.000  0.001  0.016  0.017
   18  0.000  0.001  0.016  0.017
   19  0.000  0.000  0.008  0.009
   20  0.000  0.000  0.014  0.014
   21  0.000  0.000  0.014  0.014
   22  0.000  0.000  0.011  0.011
   23  0.000  0.000  0.014  0.014
   24  0.000  0.000  0.011  0.011
   25  0.000  0.000  0.008  0.009
   26  0.000  0.000  0.008  0.009
   27  0.000  0.000  0.011  0.011
   28  0.009  0.000  0.009  0.018
   29  0.008  0.000  0.010  0.018
   30  0.008  0.000  0.010  0.018
   31  0.008  0.000  0.010  0.018
   32  0.008  0.000  0.010  0.018
   33  0.008  0.000  0.010  0.018
   34  0.008  0.000  0.010  0.018
   35  0.010  0.000  0.011  0.021
   36  0.004  0.000  0.003  0.007
   37  0.000  0.000  0.000  0.000
tot    0.207  0.007  0.541  0.755
 
band     5 # energy   -5.24274099 # occ.  2.00000000
 
ion      s      p      d    tot
    1  0.003  0.000  0.001  0.004
    2  0.000  0.000  0.004  0.004
    3  0.000  0.000  0.004  0.004
    4  0.000  0.000  0.004  0.004
    5  0.001  0.000  0.000  0.002
    6  0.000  0.000  0.004  0.004
    7  0.000  0.000  0.004  0.004
    8  0.000  0.000  0.004  0.004
    9  0.000  0.000  0.001  0.001
   10  0.003  0.000  0.023  0.026
   11  0.000  0.001  0.020  0.021
   12  0.003  0.000  0.023  0.026
   13  0.000  0.001  0.020  0.021
   14  0.000  0.001  0.020  0.021
   15  0.005  0.001  0.011  0.016
   16  0.003  0.000  0.023  0.026
   17  0.005  0.001  0.011  0.016
   18  0.005  0.001  0.011  0.016
   19  0.002  0.001  0.028  0.032
   20  0.006  0.000  0.111  0.116
   21  0.006  0.000  0.111  0.117
   22  0.015  0.001  0.020  0.036
   23  0.006  0.000  0.111  0.117
   24  0.015  0.001  0.020  0.036
   25  0.002  0.001  0.028  0.032
   26  0.002  0.001  0.028  0.032
   27  0.015  0.001  0.020  0.036
   28  0.000  0.000  0.001  0.001
   29  0.000  0.000  0.005  0.005
   30  0.000  0.000  0.005  0.005
   31  0.000  0.000  0.005  0.005
   32  0.000  0.000  0.005  0.005
   33  0.000  0.000  0.005  0.005
   34  0.000  0.000  0.005  0.005
   35  0.003  0.001  0.005  0.009
   36  0.001  0.002  0.002  0.005
   37  0.000  0.000  0.000  0.001
tot    0.103  0.014  0.704  0.821
 
band     6 # energy   -5.22984755 # occ.  2.00000000
 
ion      s      p      d    tot
    1  0.000  0.000  0.008  0.008
    2  0.001  0.000  0.002  0.004
    3  0.001  0.000  0.002  0.004
    4  0.000  0.000  0.002  0.002
    5  0.000  0.000  0.004  0.004
    6  0.000  0.000  0.002  0.003
    7  0.000  0.000  0.003  0.003
    8  0.001  0.000  0.003  0.004
    9  0.000  0.000  0.002  0.002
   10  0.004  0.001  0.018  0.023
   11  0.001  0.000  0.028  0.030
   12  0.001  0.001  0.019  0.021
   13  0.000  0.001  0.022  0.023
   14  0.001  0.000  0.024  0.025
   15  0.005  0.001  0.009  0.014
   16  0.010  0.001  0.015  0.027
   17  0.001  0.000  0.021  0.022
   18  0.002  0.000  0.017  0.019
   19  0.022  0.000  0.037  0.059
   20  0.010  0.000  0.098  0.108
   21  0.003  0.000  0.144  0.147
   22  0.000  0.001  0.043  0.044
   23  0.023  0.001  0.012  0.035
   24  0.000  0.001  0.040  0.041
   25  0.009  0.001  0.030  0.040
   26  0.003  0.001  0.026  0.030
   27  0.000  0.000  0.034  0.034
   28  0.000  0.000  0.005  0.005
   29  0.000  0.000  0.003  0.003
   30  0.000  0.000  0.005  0.005
   31  0.001  0.001  0.007  0.009
   32  0.001  0.001  0.008  0.009
   33  0.001  0.000  0.004  0.005
   34  0.001  0.000  0.002  0.003
   35  0.000  0.000  0.000  0.000
   36  0.000  0.001  0.002  0.002
   37  0.000  0.000  0.000  0.000
tot    0.102  0.014  0.702  0.818
 
band     7 # energy   -5.22984686 # occ.  2.00000000
 
ion      s      p      d    tot
    1  0.000  0.000  0.008  0.008
    2  0.000  0.000  0.002  0.003
    3  0.000  0.000  0.003  0.003
    4  0.001  0.000  0.002  0.004
    5  0.000  0.000  0.004  0.004
    6  0.001  0.000  0.003  0.004
    7  0.001  0.000  0.002  0.003
    8  0.000  0.000  0.002  0.003
    9  0.000  0.000  0.002  0.002
   10  0.006  0.001  0.017  0.024
   11  0.000  0.001  0.021  0.022
   12  0.009  0.001  0.016  0.026
   13  0.001  0.000  0.028  0.029
   14  0.001  0.000  0.025  0.027
   15  0.000  0.000  0.022  0.023
   16  0.000  0.001  0.020  0.021
   17  0.004  0.000  0.010  0.015
   18  0.003  0.000  0.014  0.017
   19  0.001  0.001  0.025  0.027
   20  0.014  0.000  0.071  0.085
   21  0.021  0.001  0.025  0.047
   22  0.000  0.000  0.035  0.035
   23  0.001  0.000  0.158  0.159
   24  0.000  0.001  0.038  0.039
   25  0.013  0.001  0.032  0.046
   26  0.020  0.000  0.036  0.056
   27  0.000  0.001  0.044  0.045
   28  0.000  0.000  0.005  0.005
   29  0.001  0.001  0.006  0.008
   30  0.001  0.001  0.004  0.006
   31  0.000  0.000  0.003  0.003
   32  0.000  0.000  0.002  0.003
   33  0.000  0.000  0.006  0.007
   34  0.001  0.000  0.007  0.008
   35  0.000  0.000  0.000  0.000
   36  0.000  0.001  0.002  0.002
   37  0.000  0.000  0.000  0.000
tot    0.102  0.014  0.702  0.818
 
band     8 # energy   -5.21703655 # occ.  2.00000000
 
ion      s      p      d    tot
    1  0.000  0.000  0.002  0.002
    2  0.000  0.000  0.002  0.003
    3  0.001  0.000  0.006  0.007
    4  0.000  0.000  0.003  0.003
    5  0.000  0.000  0.009  0.010
    6  0.001  0.001  0.004  0.006
    7  0.001  0.000  0.006  0.007
    8  0.001  0.001  0.004  0.006
    9  0.000  0.000  0.003  0.003
   10  0.003  0.000  0.019  0.023
   11  0.008  0.001  0.067  0.075
   12  0.001  0.001  0.058  0.059
   13  0.007  0.001  0.069  0.077
   14  0.029  0.001  0.009  0.039
   15  0.003  0.001  0.015  0.019
   16  0.001  0.001  0.057  0.058
   17  0.003  0.001  0.014  0.018
   18  0.012  0.000  0.036  0.048
   19  0.001  0.000  0.035  0.036
   20  0.010  0.000  0.039  0.049
   21  0.002  0.001  0.025  0.029
   22  0.005  0.000  0.037  0.042
   23  0.003  0.001  0.026  0.030
   24  0.019  0.001  0.008  0.028
   25  0.002  0.000  0.013  0.016
   26  0.001  0.000  0.036  0.037
   27  0.005  0.001  0.036  0.041
   28  0.000  0.000  0.001  0.001
   29  0.002  0.000  0.004  0.006
   30  0.000  0.000  0.003  0.003
   31  0.001  0.000  0.004  0.006
   32  0.001  0.000  0.002  0.003
   33  0.000  0.000  0.003  0.003
   34  0.001  0.000  0.002  0.003
   35  0.000  0.000  0.007  0.008
   36  0.000  0.000  0.001  0.001
   37  0.000  0.000  0.000  0.000
tot    0.123  0.017  0.665  0.804
 
band     9 # energy   -5.21703315 # occ.  2.00000000
 
ion      s      p      d    tot
    1  0.000  0.000  0.002  0.002
    2  0.002  0.001  0.006  0.008
    3  0.000  0.000  0.003  0.003
    4  0.002  0.001  0.006  0.008
    5  0.000  0.000  0.009  0.010
    6  0.000  0.000  0.004  0.005
    7  0.000  0.000  0.003  0.003
    8  0.001  0.000  0.004  0.005
    9  0.000  0.000  0.003  0.003
   10  0.000  0.001  0.070  0.071
   11  0.022  0.001  0.029  0.052
   12  0.002  0.000  0.031  0.034
   13  0.022  0.001  0.028  0.051
   14  0.000  0.000  0.088  0.088
   15  0.009  0.001  0.028  0.037
   16  0.002  0.000  0.033  0.035
   17  0.009  0.001  0.029  0.038
   18  0.000  0.002  0.008  0.010
   19  0.002  0.000  0.021  0.023
   20  0.000  0.001  0.021  0.023
   21  0.008  0.001  0.035  0.043
   22  0.014  0.001  0.017  0.032
   23  0.007  0.001  0.034  0.042
   24  0.000  0.000  0.046  0.046
   25  0.000  0.000  0.043  0.043
   26  0.002  0.000  0.020  0.022
   27  0.014  0.001  0.018  0.033
   28  0.000  0.000  0.001  0.001
   29  0.000  0.000  0.002  0.002
   30  0.001  0.000  0.003  0.005
   31  0.000  0.000  0.002  0.002
   32  0.001  0.000  0.004  0.005
   33  0.001  0.000  0.003  0.005
   34  0.001  0.000  0.004  0.005
   35  0.000  0.000  0.007  0.008
   36  0.000  0.000  0.001  0.001
   37  0.000  0.000  0.000  0.000
tot    0.122  0.017  0.665  0.804
 
band    10 # energy   -5.21623739 # occ.  2.00000000
 
ion      s      p      d    tot
    1  0.001  0.000  0.001  0.002
    2  0.000  0.000  0.005  0.006
    3  0.000  0.000  0.005  0.006
    4  0.000  0.000  0.005  0.006
    5  0.003  0.001  0.004  0.009
    6  0.000  0.000  0.005  0.006
    7  0.000  0.000  0.005  0.006
    8  0.000  0.000  0.005  0.006
    9  0.001  0.000  0.003  0.003
   10  0.009  0.001  0.004  0.015
   11  0.013  0.001  0.052  0.065
   12  0.009  0.001  0.004  0.014
   13  0.013  0.001  0.052  0.065
   14  0.013  0.001  0.051  0.065
   15  0.000  0.000  0.047  0.048
   16  0.009  0.001  0.004  0.014
   17  0.000  0.000  0.047  0.048
   18  0.000  0.000  0.046  0.047
   19  0.011  0.001  0.030  0.042
   20  0.005  0.001  0.021  0.028
   21  0.005  0.001  0.022  0.028
   22  0.000  0.000  0.042  0.042
   23  0.005  0.001  0.022  0.028
   24  0.000  0.000  0.042  0.042
   25  0.011  0.001  0.030  0.042
   26  0.011  0.001  0.030  0.042
   27  0.000  0.000  0.042  0.042
   28  0.003  0.001  0.003  0.007
   29  0.000  0.000  0.004  0.004
   30  0.000  0.000  0.004  0.004
   31  0.000  0.000  0.004  0.004
   32  0.000  0.000  0.004  0.004
   33  0.000  0.000  0.004  0.004
   34  0.000  0.000  0.004  0.004
   35  0.001  0.000  0.002  0.004
   36  0.000  0.000  0.000  0.000
   37  0.000  0.000  0.000  0.000
tot    0.124  0.017  0.659  0.801
 
band    11 # energy   -5.19528172 # occ.  2.00000000
 
ion      s      p      d    tot
    1  0.000  0.001  0.019  0.020
    2  0.000  0.000  0.008  0.008
    3  0.000  0.000  0.008  0.008
    4  0.000  0.000  0.008  0.008
    5  0.001  0.000  0.001  0.001
    6  0.000  0.000  0.008  0.008
    7  0.000  0.000  0.008  0.008
    8  0.000  0.000  0.008  0.008
    9  0.009  0.001  0.001  0.011
   10  0.004  0.000  0.076  0.080
   11  0.002  0.000  0.043  0.046
   12  0.004  0.000  0.076  0.080
   13  0.002  0.000  0.043  0.046
   14  0.002  0.000  0.043  0.045
   15  0.010  0.000  0.008  0.018
   16  0.004  0.000  0.076  0.080
   17  0.010  0.000  0.008  0.018
   18  0.010  0.000  0.008  0.018
   19  0.002  0.000  0.015  0.016
   20  0.004  0.000  0.026  0.030
   21  0.004  0.000  0.026  0.030
   22  0.000  0.000  0.025  0.025
   23  0.004  0.000  0.026  0.030
   24  0.000  0.000  0.025  0.025
   25  0.002  0.000  0.015  0.016
   26  0.002  0.000  0.015  0.016
   27  0.000  0.000  0.025  0.025
   28  0.009  0.001  0.001  0.011
   29  0.000  0.000  0.013  0.013
   30  0.000  0.000  0.013  0.013
   31  0.000  0.000  0.013  0.013
   32  0.000  0.000  0.013  0.013
   33  0.000  0.000  0.013  0.013
   34  0.000  0.000  0.013  0.013
   35  0.000  0.000  0.008  0.008
   36  0.003  0.001  0.000  0.003
   37  0.000  0.000  0.000  0.000
tot    0.092  0.010  0.727  0.829
 
band    12 # energy   -5.17585043 # occ.  2.00000000
 
ion      s      p      d    tot
    1  0.000  0.000  0.013  0.013
    2  0.002  0.000  0.005  0.007
    3  0.000  0.000  0.011  0.011
    4  0.001  0.000  0.006  0.007
    5  0.000  0.000  0.006  0.006
    6  0.003  0.001  0.006  0.010
    7  0.000  0.000  0.011  0.011
    8  0.003  0.001  0.006  0.010
    9  0.000  0.000  0.007  0.008
   10  0.000  0.001  0.065  0.066
   11  0.000  0.000  0.037  0.038
   12  0.016  0.000  0.035  0.051
   13  0.000  0.000  0.039  0.040
   14  0.000  0.001  0.016  0.017
   15  0.011  0.000  0.038  0.049
   16  0.014  0.000  0.038  0.052
   17  0.012  0.000  0.029  0.042
   18  0.000  0.000  0.121  0.121
   19  0.000  0.000  0.025  0.026
   20  0.000  0.000  0.029  0.029
   21  0.001  0.000  0.015  0.017
   22  0.002  0.000  0.021  0.023
   23  0.001  0.000  0.017  0.018
   24  0.000  0.000  0.016  0.016
   25  0.000  0.000  0.031  0.031
   26  0.000  0.000  0.025  0.025
   27  0.002  0.000  0.020  0.022
   28  0.000  0.000  0.015  0.015
   29  0.001  0.000  0.005  0.007
   30  0.003  0.000  0.004  0.008
   31  0.001  0.000  0.005  0.007
   32  0.000  0.000  0.005  0.006
   33  0.003  0.000  0.004  0.008
   34  0.000  0.000  0.005  0.005
   35  0.000  0.000  0.006  0.006
   36  0.000  0.000  0.001  0.001
   37  0.000  0.000  0.000  0.000
tot    0.080  0.010  0.740  0.830
 
band    13 # energy   -5.17584333 # occ.  2.00000000
 
ion      s      p      d    tot
    1  0.000  0.000  0.013  0.013
    2  0.001  0.001  0.010  0.012
    3  0.003  0.001  0.004  0.008
    4  0.002  0.001  0.009  0.012
    5  0.000  0.000  0.006  0.006
    6  0.000  0.000  0.008  0.009
    7  0.003  0.001  0.004  0.008
    8  0.000  0.000  0.009  0.009
    9  0.000  0.000  0.007  0.008
   10  0.020  0.000  0.027  0.047
   11  0.000  0.000  0.025  0.025
   12  0.004  0.000  0.057  0.062
   13  0.000  0.001  0.023  0.023
   14  0.000  0.000  0.046  0.046
   15  0.005  0.000  0.087  0.092
   16  0.006  0.000  0.054  0.060
   17  0.003  0.000  0.096  0.099
   18  0.015  0.000  0.004  0.020
   19  0.000  0.000  0.029  0.029
   20  0.002  0.000  0.012  0.014
   21  0.000  0.000  0.025  0.026
   22  0.001  0.000  0.018  0.018
   23  0.000  0.000  0.024  0.025
   24  0.003  0.000  0.022  0.025
   25  0.000  0.000  0.023  0.024
   26  0.000  0.000  0.029  0.030
   27  0.001  0.000  0.018  0.019
   28  0.000  0.000  0.015  0.015
   29  0.002  0.000  0.004  0.007
   30  0.000  0.000  0.005  0.005
   31  0.002  0.000  0.004  0.007
   32  0.003  0.000  0.005  0.008
   33  0.000  0.000  0.005  0.005
   34  0.003  0.000  0.005  0.008
   35  0.000  0.000  0.006  0.006
   36  0.000  0.000  0.001  0.001
   37  0.000  0.000  0.000  0.000
tot    0.080  0.010  0.740  0.830
 
band    14 # energy   -5.17253577 # occ.  2.00000000
 
ion      s      p      d    tot
    1  0.000  0.000  0.001  0.001
    2  0.001  0.000  0.010  0.012
    3  0.001  0.000  0.010  0.012
    4  0.001  0.000  0.010  0.012
    5  0.005  0.000  0.000  0.005
    6  0.001  0.000  0.010  0.012
    7  0.001  0.000  0.010  0.012
    8  0.001  0.000  0.010  0.012
    9  0.003  0.000  0.019  0.022
   10  0.002  0.000  0.028  0.031
   11  0.001  0.000  0.003  0.004
   12  0.002  0.000  0.029  0.031
   13  0.001  0.000  0.003  0.004
   14  0.001  0.000  0.003  0.004
   15  0.002  0.000  0.058  0.060
   16  0.002  0.000  0.029  0.031
   17  0.002  0.000  0.058  0.060
   18  0.002  0.000  0.058  0.060
   19  0.001  0.000  0.041  0.042
   20  0.004  0.000  0.022  0.027
   21  0.004  0.000  0.022  0.027
   22  0.000  0.000  0.038  0.038
   23  0.004  0.000  0.022  0.027
   24  0.000  0.000  0.038  0.038
   25  0.001  0.000  0.041  0.042
   26  0.001  0.000  0.041  0.042
   27  0.000  0.000  0.038  0.038
   28  0.002  0.000  0.001  0.003
   29  0.002  0.000  0.014  0.016
   30  0.002  0.000  0.014  0.016
   31  0.002  0.000  0.014  0.016
   32  0.002  0.000  0.014  0.016
   33  0.002  0.000  0.014  0.016
   34  0.002  0.000  0.014  0.016
   35  0.011  0.000  0.014  0.026
   36  0.000  0.001  0.002  0.003
   37  0.000  0.000  0.000  0.000
tot    0.073  0.007  0.755  0.835
 
band    15 # energy   -5.16460026 # occ.  2.00000000
 
ion      s      p      d    tot
    1  0.000  0.000  0.005  0.005
    2  0.003  0.000  0.006  0.009
    3  0.000  0.000  0.008  0.009
    4  0.003  0.000  0.006  0.009
    5  0.000  0.000  0.008  0.008
    6  0.002  0.000  0.006  0.008
    7  0.000  0.000  0.008  0.009
    8  0.002  0.000  0.006  0.008
    9  0.000  0.000  0.017  0.017
   10  0.002  0.000  0.026  0.029
   11  0.001  0.000  0.050  0.051
   12  0.001  0.000  0.023  0.024
   13  0.002  0.000  0.046  0.048
   14  0.006  0.000  0.008  0.014
   15  0.000  0.000  0.029  0.029
   16  0.000  0.000  0.023  0.024
   17  0.000  0.000  0.030  0.030
   18  0.001  0.000  0.037  0.038
   19  0.002  0.000  0.070  0.072
   20  0.000  0.000  0.053  0.054
   21  0.000  0.000  0.025  0.025
   22  0.003  0.000  0.056  0.060
   23  0.000  0.000  0.022  0.023
   24  0.012  0.000  0.024  0.036
   25  0.008  0.000  0.007  0.015
   26  0.002  0.000  0.065  0.067
   27  0.003  0.000  0.059  0.062
   28  0.000  0.000  0.004  0.004
   29  0.000  0.000  0.008  0.008
   30  0.002  0.000  0.003  0.005
   31  0.000  0.000  0.009  0.009
   32  0.001  0.001  0.009  0.010
   33  0.002  0.000  0.003  0.005
   34  0.001  0.001  0.008  0.009
   35  0.000  0.000  0.011  0.012
   36  0.000  0.000  0.001  0.001
   37  0.000  0.000  0.000  0.000
tot    0.057  0.007  0.780  0.844
 
band    16 # energy   -5.16458668 # occ.  2.00000000
 
ion      s      p      d    tot
    1  0.000  0.000  0.005  0.005
    2  0.000  0.000  0.007  0.008
    3  0.003  0.000  0.005  0.008
    4  0.000  0.000  0.007  0.008
    5  0.000  0.000  0.008  0.008
    6  0.001  0.000  0.008  0.009
    7  0.003  0.000  0.005  0.008
    8  0.001  0.000  0.008  0.009
    9  0.000  0.000  0.017  0.017
   10  0.000  0.000  0.022  0.022
   11  0.005  0.000  0.019  0.024
   12  0.002  0.000  0.025  0.027
   13  0.004  0.000  0.023  0.027
   14  0.000  0.000  0.061  0.061
   15  0.001  0.000  0.035  0.036
   16  0.002  0.000  0.025  0.027
   17  0.001  0.000  0.034  0.035
   18  0.000  0.000  0.027  0.027
   19  0.006  0.000  0.025  0.031
   20  0.000  0.000  0.014  0.014
   21  0.000  0.000  0.042  0.043
   22  0.008  0.000  0.037  0.045
   23  0.000  0.000  0.045  0.045
   24  0.000  0.000  0.069  0.069
   25  0.000  0.000  0.087  0.087
   26  0.006  0.000  0.030  0.036
   27  0.009  0.000  0.034  0.043
   28  0.000  0.000  0.004  0.004
   29  0.002  0.001  0.005  0.007
   30  0.000  0.000  0.010  0.011
   31  0.002  0.001  0.004  0.007
   32  0.001  0.000  0.004  0.006
   33  0.000  0.000  0.010  0.011
   34  0.001  0.000  0.005  0.006
   35  0.000  0.000  0.011  0.012
   36  0.000  0.000  0.001  0.001
   37  0.000  0.000  0.000  0.000
tot    0.057  0.007  0.780  0.844
 
band    17 # energy   -5.15198358 # occ.  2.00000000
 
ion      s      p      d    tot
    1  0.010  0.000  0.007  0.017
    2  0.003  0.000  0.013  0.017
    3  0.003  0.000  0.013  0.017
    4  0.003  0.000  0.013  0.017
    5  0.003  0.000  0.021  0.024
    6  0.003  0.000  0.013  0.017
    7  0.003  0.000  0.013  0.017
    8  0.003  0.000  0.013  0.017
    9  0.001  0.000  0.006  0.006
   10  0.000  0.000  0.010  0.011
   11  0.003  0.000  0.022  0.025
   12  0.000  0.000  0.010  0.011
   13  0.003  0.000  0.022  0.025
   14  0.003  0.000  0.022  0.025
   15  0.002  0.000  0.011  0.014
   16  0.000  0.000  0.010  0.011
   17  0.002  0.000  0.011  0.014
   18  0.002  0.000  0.011  0.014
   19  0.003  0.000  0.028  0.031
   20  0.000  0.001  0.015  0.016
   21  0.000  0.001  0.015  0.016
   22  0.001  0.001  0.020  0.021
   23  0.000  0.001  0.015  0.016
   24  0.001  0.001  0.020  0.021
   25  0.003  0.000  0.028  0.031
   26  0.003  0.000  0.028  0.031
   27  0.001  0.001  0.020  0.021
   28  0.009  0.000  0.042  0.052
   29  0.010  0.000  0.024  0.034
   30  0.010  0.000  0.024  0.034
   31  0.010  0.000  0.024  0.034
   32  0.010  0.000  0.024  0.034
   33  0.010  0.000  0.024  0.034
   34  0.010  0.000  0.024  0.034
   35  0.008  0.000  0.016  0.024
   36  0.012  0.001  0.004  0.017
   37  0.001  0.000  0.000  0.001
tot    0.155  0.008  0.634  0.798
 
band    18 # energy   -5.02795698 # occ.  2.00000000
 
ion      s      p      d    tot
    1  0.001  0.000  0.000  0.001
    2  0.000  0.000  0.006  0.006
    3  0.000  0.000  0.006  0.006
    4  0.000  0.000  0.006  0.006
    5  0.001  0.001  0.014  0.015
    6  0.000  0.000  0.006  0.006
    7  0.000  0.000  0.006  0.006
    8  0.000  0.000  0.006  0.006
    9  0.002  0.001  0.005  0.008
   10  0.000  0.000  0.016  0.016
   11  0.000  0.001  0.074  0.075
   12  0.000  0.000  0.016  0.016
   13  0.000  0.001  0.074  0.075
   14  0.000  0.001  0.074  0.075
   15  0.000  0.000  0.033  0.034
   16  0.000  0.000  0.016  0.016
   17  0.000  0.000  0.033  0.034
   18  0.000  0.000  0.033  0.034
   19  0.000  0.000  0.027  0.027
   20  0.001  0.000  0.071  0.072
   21  0.001  0.000  0.071  0.072
   22  0.002  0.000  0.019  0.020
   23  0.001  0.000  0.071  0.072
   24  0.002  0.000  0.019  0.020
   25  0.000  0.000  0.027  0.027
   26  0.000  0.000  0.027  0.027
   27  0.002  0.000  0.019  0.020
   28  0.004  0.001  0.003  0.007
   29  0.000  0.000  0.010  0.010
   30  0.000  0.000  0.010  0.010
   31  0.000  0.000  0.010  0.010
   32  0.000  0.000  0.010  0.010
   33  0.000  0.000  0.010  0.010
   34  0.000  0.000  0.010  0.010
   35  0.002  0.000  0.000  0.003
   36  0.000  0.001  0.001  0.003
   37  0.000  0.000  0.000  0.000
tot    0.020  0.014  0.836  0.870
 
band    19 # energy   -5.02323597 # occ.  2.00000000
 
ion      s      p      d    tot
    1  0.000  0.000  0.001  0.001
    2  0.001  0.001  0.006  0.007
    3  0.000  0.000  0.009  0.009
    4  0.001  0.001  0.006  0.007
    5  0.000  0.001  0.016  0.017
    6  0.001  0.000  0.006  0.007
    7  0.000  0.000  0.009  0.009
    8  0.001  0.000  0.006  0.007
    9  0.000  0.000  0.008  0.009
   10  0.000  0.001  0.020  0.021
   11  0.001  0.000  0.075  0.076
   12  0.000  0.000  0.036  0.037
   13  0.000  0.000  0.077  0.078
   14  0.002  0.000  0.046  0.048
   15  0.001  0.000  0.012  0.013
   16  0.000  0.000  0.035  0.036
   17  0.001  0.000  0.010  0.011
   18  0.002  0.001  0.033  0.036
   19  0.001  0.000  0.016  0.017
   20  0.003  0.000  0.048  0.051
   21  0.001  0.000  0.090  0.091
   22  0.000  0.000  0.023  0.023
   23  0.001  0.000  0.088  0.089
   24  0.000  0.001  0.021  0.022
   25  0.003  0.001  0.034  0.038
   26  0.001  0.000  0.015  0.016
   27  0.000  0.000  0.023  0.023
   28  0.000  0.000  0.010  0.011
   29  0.001  0.000  0.005  0.007
   30  0.000  0.000  0.008  0.008
   31  0.001  0.000  0.005  0.007
   32  0.002  0.001  0.007  0.010
   33  0.000  0.000  0.008  0.008
   34  0.002  0.001  0.007  0.010
   35  0.000  0.000  0.001  0.001
   36  0.000  0.002  0.003  0.005
   37  0.000  0.000  0.000  0.000
tot    0.026  0.016  0.822  0.864
 
band    20 # energy   -5.02322404 # occ.  2.00000000
 
ion      s      p      d    tot
    1  0.000  0.000  0.001  0.001
    2  0.000  0.000  0.008  0.008
    3  0.001  0.000  0.005  0.006
    4  0.000  0.000  0.008  0.008
    5  0.000  0.001  0.016  0.017
    6  0.001  0.000  0.008  0.009
    7  0.001  0.000  0.005  0.006
    8  0.001  0.000  0.008  0.009
    9  0.000  0.000  0.008  0.009
   10  0.000  0.000  0.041  0.041
   11  0.001  0.000  0.057  0.059
   12  0.000  0.001  0.025  0.026
   13  0.002  0.000  0.055  0.057
   14  0.000  0.000  0.086  0.086
   15  0.002  0.001  0.025  0.027
   16  0.000  0.001  0.026  0.027
   17  0.002  0.001  0.026  0.029
   18  0.000  0.000  0.004  0.004
   19  0.002  0.001  0.027  0.030
   20  0.000  0.000  0.103  0.103
   21  0.002  0.000  0.060  0.062
   22  0.000  0.001  0.022  0.023
   23  0.002  0.000  0.063  0.065
   24  0.000  0.000  0.023  0.023
   25  0.000  0.000  0.009  0.009
   26  0.002  0.001  0.028  0.031
   27  0.000  0.001  0.022  0.023
   28  0.000  0.000  0.010  0.011
   29  0.001  0.001  0.009  0.010
   30  0.002  0.001  0.006  0.008
   31  0.001  0.001  0.009  0.010
   32  0.000  0.000  0.006  0.007
   33  0.002  0.001  0.006  0.008
   34  0.000  0.000  0.006  0.007
   35  0.000  0.000  0.001  0.001
   36  0.000  0.002  0.003  0.005
   37  0.000  0.000  0.000  0.000
tot    0.026  0.016  0.822  0.864
 
band    21 # energy   -5.00196837 # occ.  2.00000000
 
ion      s      p      d    tot
    1  0.001  0.001  0.005  0.007
    2  0.000  0.000  0.011  0.012
    3  0.000  0.000  0.011  0.012
    4  0.000  0.000  0.011  0.012
    5  0.004  0.001  0.000  0.005
    6  0.000  0.000  0.011  0.012
    7  0.000  0.000  0.011  0.012
    8  0.000  0.000  0.011  0.012
    9  0.001  0.000  0.005  0.005
   10  0.001  0.001  0.054  0.056
   11  0.000  0.000  0.018  0.018
   12  0.001  0.001  0.054  0.056
   13  0.000  0.000  0.018  0.018
   14  0.000  0.000  0.018  0.018
   15  0.002  0.000  0.032  0.035
   16  0.001  0.001  0.054  0.056
   17  0.002  0.000  0.032  0.035
   18  0.002  0.000  0.032  0.035
   19  0.001  0.000  0.045  0.047
   20  0.000  0.000  0.019  0.019
   21  0.000  0.000  0.019  0.020
   22  0.001  0.001  0.049  0.050
   23  0.000  0.000  0.019  0.020
   24  0.001  0.001  0.049  0.050
   25  0.001  0.000  0.045  0.047
   26  0.001  0.000  0.045  0.047
   27  0.001  0.001  0.048  0.050
   28  0.001  0.000  0.010  0.011
   29  0.000  0.000  0.011  0.011
   30  0.000  0.000  0.011  0.011
   31  0.000  0.000  0.011  0.011
   32  0.000  0.000  0.011  0.011
   33  0.000  0.000  0.011  0.011
   34  0.000  0.000  0.011  0.011
   35  0.002  0.001  0.005  0.008
   36  0.004  0.001  0.000  0.005