PROCAR new format
# of k-points:   10         # of bands:  252         # of ions:   37

 k-point     1 :    0.00000000 0.00000000 0.00000000     weight = 0.01562500

band     1 # energy   -7.85481987 # occ.  2.00000000
 
ion      s      p      d    tot
    1  0.000  0.000  0.000  0.000
    2  0.000  0.000  0.000  0.000
    3  0.000  0.000  0.000  0.000
    4  0.000  0.000  0.000  0.000
    5  0.000  0.000  0.000  0.000
    6  0.000  0.000  0.000  0.000
    7  0.000  0.000  0.000  0.000
    8  0.000  0.000  0.000  0.000
    9  0.000  0.000  0.000  0.000
   10  0.000  0.000  0.000  0.000
   11  0.000  0.000  0.000  0.000
   12  0.000  0.000  0.000  0.000
   13  0.000  0.000  0.000  0.000
   14  0.000  0.000  0.000  0.000
   15  0.000  0.000  0.000  0.000
   16  0.000  0.000  0.000  0.000
   17  0.000  0.000  0.000  0.000
   18  0.000  0.000  0.000  0.000
   19  0.001  0.000  0.000  0.001
   20  0.004  0.001  0.003  0.008
   21  0.004  0.001  0.003  0.008
   22  0.001  0.000  0.000  0.001
   23  0.004  0.001  0.003  0.008
   24  0.001  0.000  0.000  0.001
   25  0.001  0.000  0.000  0.001
   26  0.001  0.000  0.000  0.001
   27  0.001  0.000  0.000  0.001
   28  0.000  0.000  0.000  0.001
   29  0.002  0.000  0.001  0.004
   30  0.002  0.000  0.001  0.004
   31  0.002  0.000  0.001  0.004
   32  0.002  0.000  0.001  0.004
   33  0.002  0.000  0.001  0.004
   34  0.002  0.000  0.001  0.004
   35  0.000  0.000  0.000  0.001
   36  0.114  0.038  0.098  0.250
   37  0.410  0.008  0.000  0.419
tot    0.560  0.051  0.116  0.726
 
band     2 # energy   -6.91526028 # occ.  2.00000000
 
ion      s      p      d    tot
    1  0.006  0.001  0.000  0.007
    2  0.006  0.001  0.000  0.007
    3  0.006  0.001  0.000  0.007
    4  0.006  0.001  0.000  0.007
    5  0.006  0.001  0.000  0.007
    6  0.006  0.001  0.000  0.007
    7  0.006  0.001  0.000  0.007
    8  0.006  0.001  0.000  0.007
    9  0.006  0.001  0.000  0.007
   10  0.024  0.000  0.000  0.024
   11  0.025  0.000  0.000  0.025
   12  0.024  0.000  0.000  0.024
   13  0.025  0.000  0.000  0.025
   14  0.025  0.000  0.000  0.025
   15  0.023  0.000  0.000  0.024
   16  0.024  0.000  0.000  0.024
   17  0.023  0.000  0.000  0.024
   18  0.023  0.000  0.000  0.024
   19  0.021  0.000  0.000  0.021
   20  0.021  0.000  0.000  0.022
   21  0.021  0.000  0.000  0.022
   22  0.021  0.000  0.000  0.022
   23  0.021  0.000  0.000  0.022
   24  0.021  0.000  0.000  0.022
   25  0.021  0.000  0.000  0.021
   26  0.021  0.000  0.000  0.021
   27  0.021  0.000  0.000  0.022
   28  0.005  0.000  0.000  0.005
   29  0.004  0.001  0.000  0.005
   30  0.004  0.001  0.000  0.005
   31  0.004  0.001  0.000  0.005
   32  0.004  0.001  0.000  0.005
   33  0.004  0.001  0.000  0.005
   34  0.004  0.001  0.000  0.005
   35  0.005  0.000  0.000  0.005
   36  0.000  0.007  0.006  0.013
   37  0.023  0.000  0.000  0.023
tot    0.518  0.020  0.014  0.551
 
band     3 # energy   -6.07342801 # occ.  2.00000000
 
ion      s      p      d    tot
    1  0.007  0.000  0.000  0.008
    2  0.007  0.000  0.000  0.008
    3  0.007  0.000  0.000  0.008
    4  0.007  0.000  0.000  0.008
    5  0.007  0.000  0.000  0.007
    6  0.007  0.000  0.000  0.008
    7  0.007  0.000  0.000  0.008
    8  0.007  0.000  0.000  0.008
    9  0.007  0.000  0.000  0.008
   10  0.011  0.001  0.015  0.028
   11  0.010  0.001  0.017  0.028
   12  0.011  0.001  0.015  0.028
   13  0.010  0.001  0.017  0.028
   14  0.010  0.001  0.017  0.028
   15  0.009  0.001  0.013  0.024
   16  0.011  0.001  0.015  0.028
   17  0.009  0.001  0.013  0.024
   18  0.009  0.001  0.013  0.024
   19  0.012  0.001  0.017  0.029
   20  0.012  0.001  0.025  0.038
   21  0.012  0.001  0.025  0.038
   22  0.013  0.001  0.016  0.030
   23  0.012  0.001  0.025  0.038
   24  0.013  0.001  0.016  0.030
   25  0.012  0.001  0.017  0.029
   26  0.012  0.001  0.017  0.029
   27  0.013  0.001  0.016  0.030
   28  0.007  0.000  0.000  0.007
   29  0.006  0.000  0.000  0.007
   30  0.006  0.000  0.000  0.007
   31  0.006  0.000  0.000  0.007
   32  0.006  0.000  0.000  0.007
   33  0.006  0.000  0.000  0.007
   34  0.006  0.000  0.000  0.007
   35  0.007  0.000  0.000  0.007
   36  0.003  0.003  0.002  0.008
   37  0.007  0.000  0.000  0.007
tot    0.325  0.026  0.317  0.668
 
band     4 # energy   -5.82239617 # occ.  2.00000000
 
ion      s      p      d    tot
    1  0.011  0.000  0.019  0.029
    2  0.011  0.000  0.015  0.025
    3  0.011  0.000  0.015  0.025
    4  0.011  0.000  0.015  0.025
    5  0.010  0.000  0.013  0.022
    6  0.011  0.000  0.015  0.025
    7  0.011  0.000  0.015  0.025
    8  0.011  0.000  0.015  0.025
    9  0.012  0.000  0.013  0.024
   10  0.000  0.000  0.020  0.021
   11  0.000  0.000  0.013  0.014
   12  0.000  0.000  0.020  0.021
   13  0.000  0.000  0.013  0.014
   14  0.000  0.000  0.013  0.014
   15  0.000  0.000  0.010  0.010
   16  0.000  0.000  0.020  0.021
   17  0.000  0.000  0.010  0.010
   18  0.000  0.000  0.010  0.010
   19  0.000  0.000  0.011  0.012
   20  0.000  0.000  0.034  0.034
   21  0.000  0.000  0.034  0.034
   22  0.000  0.000  0.009  0.009
   23  0.000  0.000  0.034  0.034
   24  0.000  0.000  0.009  0.009
   25  0.000  0.000  0.011  0.012
   26  0.000  0.000  0.011  0.012
   27  0.000  0.000  0.009  0.009
   28  0.009  0.000  0.012  0.020
   29  0.011  0.000  0.016  0.027
   30  0.011  0.000  0.016  0.027
   31  0.011  0.000  0.016  0.027
   32  0.011  0.000  0.016  0.027
   33  0.011  0.000  0.016  0.027
   34  0.011  0.000  0.016  0.027
   35  0.012  0.000  0.013  0.025
   36  0.010  0.001  0.015  0.025
   37  0.005  0.000  0.000  0.005
tot    0.200  0.008  0.561  0.769
 
band     5 # energy   -5.70205750 # occ.  2.00000000
 
ion      s      p      d    tot
    1  0.000  0.000  0.005  0.005
    2  0.001  0.000  0.007  0.008
    3  0.001  0.000  0.007  0.008
    4  0.001  0.000  0.007  0.008
    5  0.005  0.000  0.003  0.008
    6  0.001  0.000  0.007  0.008
    7  0.001  0.000  0.007  0.008
    8  0.001  0.000  0.007  0.008
    9  0.003  0.000  0.001  0.004
   10  0.003  0.000  0.014  0.017
   11  0.001  0.001  0.025  0.026
   12  0.003  0.000  0.014  0.017
   13  0.001  0.001  0.025  0.026
   14  0.001  0.001  0.025  0.026
   15  0.002  0.000  0.014  0.016
   16  0.003  0.000  0.014  0.017
   17  0.002  0.000  0.014  0.016
   18  0.002  0.000  0.014  0.016
   19  0.002  0.001  0.033  0.036
   20  0.007  0.000  0.109  0.116
   21  0.007  0.000  0.109  0.116
   22  0.011  0.001  0.014  0.026
   23  0.007  0.000  0.109  0.116
   24  0.011  0.001  0.014  0.026
   25  0.002  0.001  0.033  0.036
   26  0.002  0.001  0.033  0.036
   27  0.011  0.001  0.014  0.026
   28  0.000  0.000  0.000  0.000
   29  0.000  0.000  0.004  0.005
   30  0.000  0.000  0.004  0.005
   31  0.000  0.000  0.004  0.005
   32  0.000  0.000  0.004  0.005
   33  0.000  0.000  0.004  0.005
   34  0.000  0.000  0.004  0.005
   35  0.004  0.001  0.002  0.006
   36  0.000  0.003  0.003  0.006
   37  0.002  0.000  0.000  0.002
tot    0.104  0.014  0.701  0.820
 
band     6 # energy   -5.69718613 # occ.  2.00000000
 
ion      s      p      d    tot
    1  0.000  0.000  0.007  0.007
    2  0.000  0.000  0.002  0.003
    3  0.000  0.000  0.002  0.003
    4  0.000  0.000  0.002  0.003
    5  0.000  0.000  0.004  0.004
    6  0.001  0.000  0.002  0.003
    7  0.000  0.000  0.003  0.003
    8  0.001  0.000  0.002  0.003
    9  0.000  0.000  0.002  0.002
   10  0.007  0.001  0.018  0.026
   11  0.000  0.000  0.028  0.028
   12  0.001  0.001  0.018  0.020
   13  0.000  0.000  0.028  0.029
   14  0.000  0.000  0.026  0.026
   15  0.002  0.000  0.013  0.016
   16  0.003  0.001  0.018  0.022
   17  0.001  0.000  0.015  0.016
   18  0.005  0.001  0.010  0.015
   19  0.008  0.001  0.031  0.040
   20  0.021  0.000  0.013  0.035
   21  0.003  0.000  0.149  0.152
   22  0.000  0.001  0.039  0.040
   23  0.008  0.000  0.114  0.122
   24  0.000  0.000  0.034  0.034
   25  0.021  0.000  0.039  0.060
   26  0.003  0.001  0.028  0.032
   27  0.000  0.001  0.038  0.039
   28  0.000  0.000  0.005  0.005
   29  0.000  0.000  0.002  0.003
   30  0.000  0.000  0.007  0.008
   31  0.001  0.000  0.003  0.004
   32  0.000  0.000  0.005  0.005
   33  0.001  0.000  0.007  0.008
   34  0.000  0.000  0.004  0.004
   35  0.000  0.000  0.000  0.000
   36  0.000  0.001  0.003  0.004
   37  0.000  0.000  0.000  0.000
tot    0.089  0.013  0.722  0.824
 
band     7 # energy   -5.69718305 # occ.  2.00000000
 
ion      s      p      d    tot
    1  0.000  0.000  0.007  0.007
    2  0.000  0.000  0.002  0.003
    3  0.001  0.000  0.002  0.003
    4  0.001  0.000  0.002  0.003
    5  0.000  0.000  0.004  0.004
    6  0.000  0.000  0.003  0.003
    7  0.001  0.000  0.002  0.003
    8  0.000  0.000  0.003  0.003
    9  0.000  0.000  0.002  0.002
   10  0.000  0.001  0.019  0.019
   11  0.000  0.000  0.027  0.027
   12  0.006  0.001  0.018  0.025
   13  0.000  0.000  0.026  0.027
   14  0.000  0.000  0.029  0.029
   15  0.003  0.000  0.012  0.016
   16  0.005  0.001  0.018  0.024
   17  0.005  0.000  0.010  0.015
   18  0.000  0.000  0.016  0.016
   19  0.014  0.001  0.034  0.049
   20  0.000  0.000  0.171  0.171
   21  0.018  0.000  0.035  0.054
   22  0.000  0.000  0.035  0.035
   23  0.014  0.000  0.070  0.084
   24  0.000  0.001  0.040  0.041
   25  0.000  0.001  0.026  0.028
   26  0.018  0.001  0.037  0.056
   27  0.000  0.001  0.036  0.037
   28  0.000  0.000  0.005  0.005
   29  0.000  0.000  0.007  0.007
   30  0.000  0.000  0.002  0.003
   31  0.000  0.000  0.006  0.007
   32  0.001  0.000  0.004  0.005
   33  0.000  0.000  0.003  0.003
   34  0.001  0.000  0.005  0.007
   35  0.000  0.000  0.000  0.000
   36  0.000  0.001  0.003  0.004
   37  0.000  0.000  0.000  0.000
tot    0.089  0.013  0.722  0.824
 
band     8 # energy   -5.68539011 # occ.  2.00000000
 
ion      s      p      d    tot
    1  0.000  0.000  0.005  0.005
    2  0.000  0.000  0.002  0.003
    3  0.001  0.000  0.007  0.008
    4  0.000  0.000  0.002  0.003
    5  0.000  0.000  0.009  0.010
    6  0.002  0.001  0.006  0.008
    7  0.001  0.000  0.007  0.008
    8  0.002  0.001  0.005  0.008
    9  0.000  0.000  0.001  0.001
   10  0.008  0.001  0.015  0.024
   11  0.010  0.001  0.070  0.080
   12  0.002  0.000  0.078  0.081
   13  0.007  0.001  0.075  0.083
   14  0.034  0.001  0.016  0.050
   15  0.002  0.001  0.014  0.017
   16  0.002  0.000  0.073  0.076
   17  0.001  0.001  0.012  0.015
   18  0.007  0.000  0.038  0.045
   19  0.000  0.000  0.018  0.019
   20  0.013  0.001  0.038  0.051
   21  0.003  0.001  0.032  0.035
   22  0.002  0.000  0.024  0.027
   23  0.004  0.001  0.032  0.037
   24  0.011  0.001  0.007  0.019
   25  0.000  0.000  0.014  0.015
   26  0.000  0.000  0.019  0.019
   27  0.003  0.000  0.023  0.026
   28  0.000  0.000  0.000  0.000
   29  0.002  0.000  0.004  0.006
   30  0.001  0.000  0.003  0.004
   31  0.002  0.000  0.004  0.006
   32  0.000  0.000  0.002  0.002
   33  0.001  0.000  0.003  0.004
   34  0.000  0.000  0.002  0.003
   35  0.000  0.000  0.006  0.006
   36  0.000  0.000  0.003  0.003
   37  0.000  0.000  0.000  0.000
tot    0.120  0.016  0.669  0.806
 
band     9 # energy   -5.68538617 # occ.  2.00000000
 
ion      s      p      d    tot
    1  0.000  0.000  0.005  0.005
    2  0.002  0.001  0.007  0.010
    3  0.001  0.000  0.003  0.004
    4  0.002  0.001  0.007  0.010
    5  0.000  0.000  0.009  0.010
    6  0.000  0.000  0.004  0.004
    7  0.001  0.000  0.003  0.005
    8  0.000  0.000  0.004  0.005
    9  0.000  0.000  0.001  0.001
   10  0.000  0.000  0.096  0.096
   11  0.024  0.001  0.037  0.062
   12  0.007  0.001  0.032  0.039
   13  0.027  0.001  0.032  0.059
   14  0.000  0.001  0.091  0.092
   15  0.005  0.001  0.028  0.034
   16  0.006  0.001  0.038  0.044
   17  0.005  0.000  0.031  0.036
   18  0.000  0.002  0.005  0.007
   19  0.000  0.000  0.016  0.016
   20  0.000  0.001  0.030  0.031
   21  0.010  0.001  0.036  0.047
   22  0.009  0.001  0.012  0.021
   23  0.009  0.001  0.035  0.046
   24  0.000  0.000  0.029  0.029
   25  0.000  0.000  0.020  0.020
   26  0.000  0.000  0.016  0.016
   27  0.008  0.001  0.013  0.022
   28  0.000  0.000  0.000  0.000
   29  0.000  0.000  0.002  0.003
   30  0.001  0.000  0.003  0.005
   31  0.000  0.000  0.002  0.002
   32  0.002  0.000  0.004  0.006
   33  0.001  0.000  0.003  0.004
   34  0.002  0.000  0.004  0.006
   35  0.000  0.000  0.006  0.006
   36  0.000  0.000  0.003  0.003
   37  0.000  0.000  0.000  0.000
tot    0.120  0.016  0.669  0.806
 
band    10 # energy   -5.67749867 # occ.  2.00000000
 
ion      s      p      d    tot
    1  0.010  0.001  0.001  0.012
    2  0.002  0.000  0.010  0.012
    3  0.002  0.000  0.010  0.012
    4  0.002  0.000  0.010  0.012
    5  0.002  0.000  0.022  0.024
    6  0.002  0.000  0.010  0.012
    7  0.002  0.000  0.010  0.012
    8  0.002  0.000  0.010  0.012
    9  0.000  0.001  0.009  0.009
   10  0.005  0.000  0.051  0.056
   11  0.002  0.000  0.071  0.073
   12  0.005  0.000  0.051  0.056
   13  0.002  0.000  0.071  0.073
   14  0.002  0.000  0.071  0.073
   15  0.011  0.001  0.013  0.025
   16  0.005  0.000  0.051  0.056
   17  0.011  0.001  0.013  0.025
   18  0.011  0.001  0.013  0.025
   19  0.000  0.000  0.007  0.007
   20  0.000  0.000  0.039  0.040
   21  0.000  0.000  0.039  0.040
   22  0.001  0.000  0.004  0.006
   23  0.000  0.000  0.039  0.040
   24  0.001  0.000  0.004  0.006
   25  0.000  0.000  0.007  0.007
   26  0.000  0.000  0.007  0.007
   27  0.001  0.000  0.004  0.006
   28  0.000  0.000  0.001  0.001
   29  0.001  0.000  0.010  0.012
   30  0.001  0.000  0.010  0.012
   31  0.001  0.000  0.010  0.012
   32  0.001  0.000  0.010  0.012
   33  0.001  0.000  0.010  0.012
   34  0.001  0.000  0.010  0.012
   35  0.000  0.000  0.002  0.002
   36  0.009  0.003  0.005  0.017
   37  0.005  0.000  0.000  0.005
tot    0.101  0.012  0.717  0.831
 
band    11 # energy   -5.66784604 # occ.  2.00000000
 
ion      s      p      d    tot
    1  0.000  0.000  0.001  0.002
    2  0.001  0.000  0.009  0.010
    3  0.001  0.000  0.009  0.010
    4  0.001  0.000  0.009  0.010
    5  0.009  0.001  0.000  0.010
    6  0.001  0.000  0.009  0.010
    7  0.001  0.000  0.009  0.010
    8  0.001  0.000  0.009  0.010
    9  0.000  0.000  0.014  0.015
   10  0.007  0.001  0.014  0.023
   11  0.011  0.001  0.026  0.038
   12  0.007  0.001  0.014  0.023
   13  0.011  0.001  0.026  0.038
   14  0.011  0.001  0.026  0.038
   15  0.004  0.000  0.051  0.055
   16  0.007  0.001  0.014  0.023
   17  0.004  0.000  0.051  0.055
   18  0.004  0.000  0.051  0.055
   19  0.013  0.001  0.019  0.033
   20  0.005  0.001  0.019  0.025
   21  0.005  0.001  0.019  0.025
   22  0.000  0.000  0.036  0.036
   23  0.005  0.001  0.019  0.025
   24  0.000  0.000  0.036  0.036
   25  0.013  0.001  0.019  0.033
   26  0.013  0.001  0.019  0.033
   27  0.000  0.000  0.036  0.036
   28  0.002  0.001  0.005  0.008
   29  0.000  0.000  0.009  0.010
   30  0.000  0.000  0.009  0.010
   31  0.000  0.000  0.009  0.010
   32  0.000  0.000  0.009  0.010
   33  0.000  0.000  0.009  0.010
   34  0.000  0.000  0.009  0.010
   35  0.003  0.000  0.000  0.003
   36  0.002  0.000  0.002  0.004
   37  0.000  0.000  0.000  0.000
tot    0.148  0.018  0.624  0.790
 
band    12 # energy   -5.64566960 # occ.  2.00000000
 
ion      s      p      d    tot
    1  0.003  0.000  0.025  0.028
    2  0.004  0.000  0.014  0.019
    3  0.004  0.000  0.014  0.019
    4  0.004  0.000  0.014  0.019
    5  0.001  0.000  0.006  0.007
    6  0.004  0.000  0.014  0.019
    7  0.004  0.000  0.014  0.019
    8  0.004  0.000  0.014  0.019
    9  0.012  0.000  0.007  0.020
   10  0.002  0.000  0.027  0.030
   11  0.003  0.000  0.011  0.015
   12  0.002  0.000  0.028  0.030
   13  0.003  0.000  0.011  0.015
   14  0.003  0.000  0.011  0.015
   15  0.000  0.000  0.009  0.009
   16  0.002  0.000  0.028  0.030
   17  0.000  0.000  0.009  0.009
   18  0.000  0.000  0.009  0.009
   19  0.000  0.000  0.011  0.012
   20  0.003  0.001  0.018  0.021
   21  0.003  0.001  0.018  0.021
   22  0.003  0.000  0.032  0.035
   23  0.003  0.001  0.018  0.021
   24  0.003  0.000  0.032  0.035
   25  0.000  0.000  0.011  0.012
   26  0.000  0.000  0.011  0.012
   27  0.003  0.000  0.032  0.035
   28  0.019  0.000  0.014  0.033
   29  0.008  0.000  0.022  0.030
   30  0.008  0.000  0.022  0.030
   31  0.008  0.000  0.022  0.030
   32  0.008  0.000  0.022  0.030
   33  0.008  0.000  0.022  0.030
   34  0.008  0.000  0.022  0.030
   35  0.006  0.000  0.034  0.041
   36  0.001  0.000  0.004  0.005
   37  0.001  0.000  0.000  0.001
tot    0.154  0.008  0.630  0.792
 
band    13 # energy   -5.63541047 # occ.  2.00000000
 
ion      s      p      d    tot
    1  0.000  0.001  0.011  0.011
    2  0.004  0.001  0.008  0.013
    3  0.004  0.001  0.005  0.010
    4  0.002  0.001  0.010  0.013
    5  0.000  0.000  0.008  0.008
    6  0.000  0.000  0.010  0.010
    7  0.003  0.001  0.004  0.008
    8  0.001  0.000  0.007  0.008
    9  0.000  0.000  0.009  0.009
   10  0.019  0.000  0.025  0.045
   11  0.000  0.000  0.025  0.026
   12  0.010  0.000  0.038  0.048
   13  0.000  0.000  0.031  0.031
   14  0.000  0.000  0.038  0.038
   15  0.002  0.000  0.100  0.102
   16  0.002  0.001  0.048  0.050
   17  0.009  0.000  0.060  0.068
   18  0.017  0.000  0.009  0.027
   19  0.000  0.000  0.034  0.034
   20  0.002  0.000  0.019  0.022
   21  0.001  0.000  0.020  0.021
   22  0.004  0.000  0.022  0.026
   23  0.000  0.000  0.020  0.021
   24  0.008  0.000  0.015  0.023
   25  0.002  0.000  0.018  0.021
   26  0.001  0.000  0.027  0.028
   27  0.001  0.000  0.028  0.029
   28  0.000  0.000  0.014  0.014
   29  0.001  0.000  0.006  0.007
   30  0.000  0.000  0.005  0.006
   31  0.003  0.001  0.006  0.009
   32  0.004  0.001  0.005  0.010
   33  0.001  0.000  0.005  0.006
   34  0.003  0.000  0.005  0.009
   35  0.000  0.000  0.006  0.006
   36  0.000  0.000  0.001  0.002
   37  0.000  0.000  0.000  0.000
tot    0.103  0.012  0.702  0.818
 
band    14 # energy   -5.63540871 # occ.  2.00000000
 
ion      s      p      d    tot
    1  0.000  0.001  0.011  0.011
    2  0.001  0.000  0.007  0.008
    3  0.000  0.000  0.010  0.010
    4  0.003  0.000  0.005  0.008
    5  0.000  0.000  0.008  0.008
    6  0.004  0.001  0.005  0.010
    7  0.001  0.001  0.010  0.012
    8  0.004  0.001  0.008  0.012
    9  0.000  0.000  0.009  0.009
   10  0.001  0.001  0.049  0.050
   11  0.000  0.000  0.037  0.037
   12  0.011  0.000  0.036  0.047
   13  0.000  0.000  0.032  0.032
   14  0.000  0.001  0.025  0.025
   15  0.017  0.000  0.012  0.029
   16  0.019  0.000  0.026  0.045
   17  0.010  0.000  0.053  0.063
   18  0.001  0.000  0.104  0.105
   19  0.002  0.000  0.019  0.021
   20  0.000  0.000  0.020  0.020
   21  0.001  0.000  0.020  0.021
   22  0.005  0.000  0.021  0.026
   23  0.002  0.000  0.019  0.022
   24  0.000  0.000  0.028  0.029
   25  0.000  0.000  0.034  0.035
   26  0.001  0.000  0.026  0.027
   27  0.008  0.000  0.015  0.024
   28  0.000  0.000  0.014  0.014
   29  0.003  0.000  0.005  0.008
   30  0.004  0.001  0.005  0.010
   31  0.001  0.000  0.005  0.007
   32  0.000  0.000  0.006  0.006
   33  0.003  0.001  0.006  0.009
   34  0.001  0.000  0.006  0.007
   35  0.000  0.000  0.006  0.006
   36  0.000  0.000  0.001  0.002
   37  0.000  0.000  0.000  0.000
tot    0.103  0.012  0.702  0.818
 
band    15 # energy   -5.62352576 # occ.  2.00000000
 
ion      s      p      d    tot
    1  0.000  0.000  0.006  0.006
    2  0.002  0.000  0.007  0.009
    3  0.000  0.000  0.007  0.007
    4  0.002  0.000  0.007  0.009
    5  0.000  0.000  0.004  0.005
    6  0.002  0.000  0.005  0.007
    7  0.000  0.000  0.007  0.007
    8  0.002  0.000  0.005  0.007
    9  0.000  0.000  0.017  0.017
   10  0.000  0.000  0.036  0.036
   11  0.000  0.000  0.039  0.039
   12  0.000  0.000  0.015  0.015
   13  0.001  0.000  0.035  0.036
   14  0.002  0.000  0.009  0.011
   15  0.000  0.000  0.043  0.043
   16  0.000  0.000  0.012  0.012
   17  0.000  0.000  0.041  0.041
   18  0.002  0.000  0.028  0.030
   19  0.002  0.000  0.085  0.087
   20  0.000  0.000  0.056  0.057
   21  0.000  0.000  0.024  0.025
   22  0.004  0.000  0.055  0.059
   23  0.000  0.000  0.020  0.021
   24  0.013  0.000  0.030  0.043
   25  0.008  0.000  0.006  0.014
   26  0.002  0.000  0.076  0.079
   27  0.003  0.000  0.058  0.061
   28  0.000  0.000  0.005  0.006
   29  0.000  0.000  0.008  0.009
   30  0.002  0.000  0.003  0.005
   31  0.000  0.000  0.009  0.009
   32  0.000  0.000  0.009  0.009
   33  0.002  0.000  0.003  0.005
   34  0.000  0.000  0.008  0.009
   35  0.000  0.000  0.013  0.013
   36  0.000  0.000  0.001  0.001
   37  0.000  0.000  0.000  0.000
tot    0.048  0.007  0.793  0.848
 
band    16 # energy   -5.62351179 # occ.  2.00000000
 
ion      s      p      d    tot
    1  0.000  0.000  0.006  0.006
    2  0.001  0.000  0.005  0.006
    3  0.002  0.000  0.005  0.008
    4  0.000  0.000  0.006  0.006
    5  0.000  0.000  0.004  0.005
    6  0.000  0.000  0.008  0.008
    7  0.002  0.000  0.005  0.008
    8  0.001  0.000  0.007  0.008
    9  0.000  0.000  0.017  0.017
   10  0.000  0.000  0.006  0.006
   11  0.002  0.000  0.017  0.019
   12  0.000  0.000  0.027  0.027
   13  0.001  0.000  0.020  0.022
   14  0.000  0.000  0.046  0.046
   15  0.001  0.000  0.032  0.033
   16  0.000  0.000  0.029  0.029
   17  0.001  0.000  0.033  0.035
   18  0.000  0.000  0.046  0.046
   19  0.006  0.000  0.027  0.034
   20  0.000  0.001  0.011  0.012
   21  0.000  0.000  0.043  0.043
   22  0.009  0.000  0.040  0.049
   23  0.000  0.000  0.047  0.047
   24  0.000  0.000  0.066  0.066
   25  0.000  0.000  0.105  0.105
   26  0.006  0.000  0.036  0.041
   27  0.010  0.000  0.037  0.047
   28  0.000  0.000  0.005  0.006
   29  0.001  0.000  0.005  0.007
   30  0.000  0.000  0.010  0.010
   31  0.001  0.000  0.005  0.006
   32  0.001  0.000  0.005  0.006
   33  0.000  0.000  0.010  0.010
   34  0.001  0.000  0.005  0.007
   35  0.000  0.000  0.013  0.013
   36  0.000  0.000  0.001  0.001
   37  0.000  0.000  0.000  0.000
tot    0.048  0.007  0.793  0.848
 
band    17 # energy   -5.62295920 # occ.  2.00000000
 
ion      s      p      d    tot
    1  0.004  0.000  0.002  0.006
    2  0.000  0.000  0.009  0.009
    3  0.000  0.000  0.009  0.009
    4  0.000  0.000  0.009  0.009
    5  0.001  0.000  0.002  0.003
    6  0.000  0.000  0.009  0.009
    7  0.000  0.000  0.009  0.009
    8  0.000  0.000  0.009  0.009
    9  0.001  0.000  0.006  0.006
   10  0.000  0.000  0.036  0.036
   11  0.002  0.000  0.007  0.010
   12  0.000  0.000  0.036  0.037
   13  0.002  0.000  0.007  0.010
   14  0.002  0.000  0.007  0.010
   15  0.001  0.000  0.049  0.050
   16  0.000  0.000  0.036  0.037
   17  0.001  0.000  0.049  0.050
   18  0.001  0.000  0.049  0.050
   19  0.004  0.000  0.061  0.065
   20  0.003  0.000  0.011  0.014
   21  0.003  0.000  0.011  0.014
   22  0.000  0.000  0.050  0.050
   23  0.003  0.000  0.011  0.014
   24  0.000  0.000  0.049  0.049
   25  0.004  0.000  0.062  0.066
   26  0.004  0.000  0.061  0.065
   27  0.000  0.000  0.050  0.050
   28  0.000  0.000  0.014  0.014
   29  0.000  0.000  0.012  0.012
   30  0.000  0.000  0.012  0.012
   31  0.000  0.000  0.012  0.012
   32  0.000  0.000  0.012  0.012
   33  0.000  0.000  0.012  0.012
   34  0.000  0.000  0.012  0.012
   35  0.002  0.000  0.002  0.005
   36  0.004  0.003  0.000  0.007
   37  0.002  0.000  0.000  0.002
tot    0.047  0.009  0.795  0.851
 
band    18 # energy   -5.49757646 # occ.  2.00000000
 
ion      s      p      d    tot
    1  0.000  0.000  0.001  0.001
    2  0.001  0.001  0.006  0.008
    3  0.000  0.000  0.008  0.008
    4  0.001  0.001  0.006  0.008
    5  0.000  0.001  0.017  0.018
    6  0.001  0.000  0.006  0.007
    7  0.000  0.000  0.008  0.008
    8  0.001  0.000  0.006  0.007
    9  0.000  0.000  0.008  0.009
   10  0.001  0.001  0.021  0.022
   11  0.001  0.000  0.075  0.076
   12  0.000  0.000  0.026  0.027
   13  0.001  0.000  0.076  0.077
   14  0.003  0.000  0.049  0.052
   15  0.001  0.000  0.011  0.012
   16  0.000  0.000  0.026  0.027
   17  0.001  0.000  0.010  0.011
   18  0.003  0.001  0.027  0.031
   19  0.001  0.000  0.011  0.012
   20  0.003  0.000  0.061  0.064
   21  0.001  0.000  0.101  0.102
   22  0.000  0.000  0.025  0.026
   23  0.001  0.000  0.099  0.100
   24  0.000  0.001  0.021  0.022
   25  0.002  0.001  0.029  0.032
   26  0.000  0.000  0.010  0.011
   27  0.000  0.000  0.025  0.025
   28  0.000  0.000  0.007  0.007
   29  0.001  0.000  0.005  0.007
   30  0.000  0.000  0.008  0.008
   31  0.001  0.000  0.005  0.006
   32  0.001  0.001  0.008  0.010
   33  0.000  0.000  0.008  0.008
   34  0.001  0.001  0.008  0.010
   35  0.000  0.000  0.001  0.001
   36  0.000  0.002  0.005  0.007
   37  0.000  0.000  0.000  0.000
tot    0.025  0.016  0.824  0.865
 
band    19 # energy   -5.49756732 # occ.  2.00000000
 
ion      s      p      d    tot
    1  0.000  0.000  0.001  0.001
    2  0.000  0.000  0.007  0.008
    3  0.001  0.001  0.005  0.007
    4  0.000  0.000  0.007  0.007
    5  0.000  0.001  0.017  0.018
    6  0.000  0.000  0.007  0.008
    7  0.001  0.001  0.005  0.007
    8  0.000  0.000  0.008  0.008
    9  0.000  0.000  0.008  0.009
   10  0.000  0.000  0.028  0.028
   11  0.002  0.000  0.059  0.061
   12  0.000  0.001  0.022  0.024
   13  0.002  0.000  0.057  0.059
   14  0.000  0.000  0.084  0.085
   15  0.002  0.001  0.021  0.024
   16  0.000  0.001  0.023  0.024
   17  0.002  0.001  0.022  0.025
   18  0.000  0.000  0.005  0.005
   19  0.002  0.001  0.022  0.024
   20  0.000  0.000  0.113  0.113
   21  0.002  0.000  0.073  0.075
   22  0.000  0.001  0.022  0.023
   23  0.002  0.000  0.075  0.077
   24  0.000  0.000  0.026  0.026
   25  0.000  0.000  0.004  0.004
   26  0.002  0.001  0.023  0.026
   27  0.000  0.001  0.022  0.023
   28  0.000  0.000  0.007  0.007
   29  0.001  0.000  0.009  0.010
   30  0.001  0.001  0.006  0.008
   31  0.001  0.001  0.009  0.010
   32  0.000  0.000  0.006  0.007
   33  0.001  0.001  0.006  0.008
   34  0.000  0.000  0.006  0.007
   35  0.000  0.000  0.001  0.001
   36  0.000  0.002  0.005  0.007
   37  0.000  0.000  0.000  0.000
tot    0.025  0.016  0.824  0.865
 
band    20 # energy   -5.48497862 # occ.  2.00000000
 
ion      s      p      d    tot
    1  0.001  0.000  0.000  0.001
    2  0.000  0.000  0.005  0.006
    3  0.000  0.000  0.005  0.006
    4  0.000  0.000  0.005  0.006
    5  0.001  0.001  0.013  0.015
    6  0.000  0.000  0.005  0.006
    7  0.000  0.000  0.005  0.006
    8  0.000  0.000  0.005  0.006
    9  0.003  0.001  0.005  0.009
   10  0.000  0.000  0.015  0.015
   11  0.000  0.001  0.078  0.079
   12  0.000  0.000  0.015  0.015
   13  0.000  0.001  0.078  0.079
   14  0.000  0.001  0.078  0.079
   15  0.000  0.000  0.033  0.034
   16  0.000  0.000  0.015  0.015
   17  0.000  0.000  0.033  0.034
   18  0.000  0.000  0.033  0.034
   19  0.000  0.000  0.023  0.024
   20  0.001  0.000  0.067  0.068
   21  0.001  0.000  0.067  0.068
   22  0.002  0.000  0.021  0.022
   23  0.001  0.000  0.067  0.068
   24  0.002  0.000  0.021  0.022
   25  0.000  0.000  0.023  0.024
   26  0.000  0.000  0.023  0.024
   27  0.002  0.000  0.021  0.022
   28  0.002  0.001  0.004  0.007
   29  0.000  0.000  0.010  0.011
   30  0.000  0.000  0.010  0.011
   31  0.000  0.000  0.010  0.011
   32  0.000  0.000  0.010  0.011
   33  0.000  0.000  0.010  0.011
   34  0.000  0.000  0.010  0.011
   35  0.005  0.001  0.001  0.006
   36  0.000  0.001  0.001  0.002
   37  0.002  0.000  0.000  0.002
tot    0.024  0.015  0.829  0.867
 
band    21 # energy   -5.46310081 # occ.  2.00000000
 
ion      s      p      d    tot
    1  0.001  0.000  0.003  0.004
    2  0.000  0.001  0.014  0.015
    3  0.000  0.001  0.014  0.015
    4  0.000  0.001  0.014  0.015
    5  0.005  0.001  0.001  0.007
    6  0.000  0.001  0.014  0.015
    7  0.000  0.001  0.014  0.015
    8  0.000  0.001  0.014  0.015
    9  0.002  0.000  0.004  0.006
   10  0.002  0.001  0.047  0.049
   11  0.000  0.000  0.020  0.021
   12  0.002  0.001  0.047  0.049
   13  0.000  0.000  0.020  0.021
   14  0.000  0.000  0.020  0.021
   15  0.004  0.000  0.026  0.030
   16  0.002  0.001  0.047  0.049
   17  0.004  0.000  0.026  0.030
   18  0.004  0.000  0.026  0.030
   19  0.001  0.000  0.048  0.049
   20  0.000  0.000  0.018  0.018
   21  0.000  0.000  0.018  0.018
   22  0.001  0.001  0.042  0.044
   23  0.000  0.000  0.018  0.018
   24  0.001  0.001  0.042  0.044
   25  0.001  0.000  0.048  0.049
   26  0.001  0.000  0.048  0.049
   27  0.001  0.001  0.042  0.044
   28  0.002  0.000  0.017  0.019
   29  0.000  0.000  0.013  0.014
   30  0.000  0.000  0.013  0.014
   31  0.000  0.000  0.013  0.014
   32  0.000  0.000  0.013  0.014
   33  0.000  0.000  0.013  0.014
   34  0.000  0.000  0.013  0.014
   35  0.003  0.001  0.002  0.005
   36  0.004  0.002  0.000  0.006