PROCAR new format
# of k-points:   10         # of bands:  252         # of ions:   37

 k-point     1 :    0.00000000 0.00000000 0.00000000     weight = 0.01562500

band     1 # energy  -17.35136570 # occ.  2.00000000
 
ion      s      p      d    tot
    1  0.000  0.000  0.000  0.000
    2  0.000  0.000  0.000  0.000
    3  0.000  0.000  0.000  0.000
    4  0.000  0.000  0.000  0.000
    5  0.000  0.000  0.000  0.000
    6  0.000  0.000  0.000  0.000
    7  0.000  0.000  0.000  0.000
    8  0.000  0.000  0.000  0.000
    9  0.000  0.000  0.000  0.000
   10  0.000  0.000  0.000  0.000
   11  0.000  0.000  0.000  0.000
   12  0.000  0.000  0.000  0.000
   13  0.000  0.000  0.000  0.000
   14  0.000  0.000  0.000  0.000
   15  0.000  0.000  0.000  0.000
   16  0.000  0.000  0.000  0.000
   17  0.000  0.000  0.000  0.000
   18  0.000  0.000  0.000  0.000
   19  0.000  0.000  0.000  0.000
   20  0.000  0.000  0.000  0.000
   21  0.000  0.000  0.000  0.000
   22  0.000  0.000  0.000  0.000
   23  0.000  0.000  0.000  0.000
   24  0.000  0.000  0.000  0.000
   25  0.000  0.000  0.000  0.000
   26  0.000  0.000  0.000  0.000
   27  0.000  0.000  0.000  0.000
   28  0.000  0.000  0.000  0.000
   29  0.000  0.000  0.000  0.000
   30  0.000  0.000  0.000  0.000
   31  0.000  0.000  0.000  0.000
   32  0.000  0.000  0.000  0.000
   33  0.000  0.000  0.000  0.000
   34  0.000  0.000  0.000  0.000
   35  0.000  0.000  0.000  0.000
   36  0.057  0.086  0.115  0.259
   37  0.781  0.010  0.000  0.791
tot    0.839  0.096  0.116  1.051
 
band     2 # energy   -8.15440928 # occ.  2.00000000
 
ion      s      p      d    tot
    1  0.007  0.001  0.000  0.007
    2  0.007  0.001  0.000  0.007
    3  0.007  0.001  0.000  0.007
    4  0.007  0.001  0.000  0.007
    5  0.007  0.001  0.000  0.007
    6  0.007  0.001  0.000  0.007
    7  0.007  0.001  0.000  0.007
    8  0.007  0.001  0.000  0.007
    9  0.006  0.001  0.000  0.007
   10  0.026  0.000  0.000  0.027
   11  0.027  0.000  0.000  0.028
   12  0.026  0.000  0.000  0.027
   13  0.027  0.000  0.000  0.028
   14  0.027  0.000  0.000  0.028
   15  0.026  0.000  0.000  0.026
   16  0.026  0.000  0.000  0.027
   17  0.026  0.000  0.000  0.026
   18  0.026  0.000  0.000  0.026
   19  0.023  0.000  0.000  0.024
   20  0.027  0.000  0.000  0.028
   21  0.027  0.000  0.000  0.028
   22  0.024  0.000  0.000  0.025
   23  0.027  0.000  0.000  0.028
   24  0.024  0.000  0.000  0.025
   25  0.023  0.000  0.000  0.024
   26  0.023  0.000  0.000  0.024
   27  0.024  0.000  0.000  0.025
   28  0.005  0.000  0.000  0.005
   29  0.005  0.000  0.000  0.005
   30  0.005  0.000  0.000  0.005
   31  0.005  0.000  0.000  0.005
   32  0.005  0.000  0.000  0.005
   33  0.005  0.000  0.000  0.005
   34  0.005  0.000  0.000  0.005
   35  0.005  0.000  0.000  0.005
   36  0.005  0.002  0.000  0.007
   37  0.000  0.000  0.000  0.000
tot    0.565  0.013  0.004  0.582
 
band     3 # energy   -6.96831570 # occ.  2.00000000
 
ion      s      p      d    tot
    1  0.017  0.000  0.001  0.019
    2  0.017  0.000  0.001  0.019
    3  0.017  0.000  0.001  0.019
    4  0.017  0.000  0.001  0.019
    5  0.017  0.000  0.001  0.018
    6  0.017  0.000  0.001  0.019
    7  0.017  0.000  0.001  0.019
    8  0.017  0.000  0.001  0.019
    9  0.017  0.000  0.001  0.019
   10  0.011  0.002  0.003  0.015
   11  0.010  0.002  0.003  0.014
   12  0.011  0.002  0.003  0.015
   13  0.010  0.002  0.003  0.014
   14  0.010  0.002  0.003  0.014
   15  0.010  0.001  0.002  0.014
   16  0.011  0.002  0.003  0.015
   17  0.010  0.001  0.002  0.014
   18  0.010  0.001  0.002  0.014
   19  0.014  0.001  0.004  0.018
   20  0.017  0.001  0.004  0.022
   21  0.017  0.001  0.004  0.022
   22  0.014  0.001  0.004  0.019
   23  0.017  0.001  0.004  0.022
   24  0.014  0.001  0.004  0.019
   25  0.014  0.001  0.004  0.018
   26  0.014  0.001  0.004  0.018
   27  0.014  0.001  0.004  0.019
   28  0.013  0.000  0.000  0.014
   29  0.013  0.001  0.001  0.014
   30  0.013  0.001  0.001  0.014
   31  0.013  0.001  0.001  0.014
   32  0.013  0.001  0.001  0.014
   33  0.013  0.001  0.001  0.014
   34  0.013  0.001  0.001  0.014
   35  0.013  0.000  0.000  0.014
   36  0.010  0.002  0.000  0.012
   37  0.001  0.000  0.000  0.001
tot    0.493  0.033  0.074  0.601
 
band     4 # energy   -6.04600363 # occ.  2.00000000
 
ion      s      p      d    tot
    1  0.001  0.001  0.005  0.006
    2  0.001  0.000  0.005  0.007
    3  0.001  0.000  0.005  0.007
    4  0.001  0.000  0.005  0.007
    5  0.000  0.000  0.001  0.001
    6  0.001  0.000  0.005  0.007
    7  0.001  0.000  0.005  0.007
    8  0.001  0.000  0.005  0.007
    9  0.019  0.001  0.000  0.020
   10  0.009  0.000  0.022  0.031
   11  0.008  0.003  0.009  0.020
   12  0.009  0.000  0.022  0.031
   13  0.008  0.003  0.009  0.020
   14  0.008  0.003  0.009  0.020
   15  0.019  0.002  0.008  0.029
   16  0.009  0.000  0.022  0.031
   17  0.019  0.002  0.008  0.029
   18  0.019  0.002  0.008  0.029
   19  0.000  0.001  0.023  0.024
   20  0.028  0.002  0.023  0.053
   21  0.028  0.002  0.023  0.053
   22  0.015  0.003  0.004  0.022
   23  0.028  0.002  0.023  0.053
   24  0.015  0.003  0.004  0.022
   25  0.000  0.001  0.023  0.024
   26  0.000  0.001  0.023  0.024
   27  0.015  0.003  0.004  0.022
   28  0.005  0.000  0.000  0.006
   29  0.003  0.000  0.006  0.009
   30  0.003  0.000  0.006  0.009
   31  0.003  0.000  0.006  0.009
   32  0.003  0.000  0.006  0.009
   33  0.003  0.000  0.006  0.009
   34  0.003  0.000  0.006  0.009
   35  0.015  0.001  0.000  0.017
   36  0.006  0.004  0.007  0.017
   37  0.000  0.003  0.000  0.003
tot    0.309  0.043  0.349  0.702
 
band     5 # energy   -6.02200528 # occ.  2.00000000
 
ion      s      p      d    tot
    1  0.000  0.000  0.007  0.008
    2  0.002  0.001  0.002  0.005
    3  0.001  0.000  0.003  0.004
    4  0.003  0.001  0.002  0.006
    5  0.000  0.001  0.007  0.008
    6  0.007  0.001  0.003  0.011
    7  0.001  0.000  0.003  0.005
    8  0.006  0.001  0.003  0.011
    9  0.000  0.000  0.001  0.001
   10  0.032  0.002  0.005  0.038
   11  0.012  0.003  0.022  0.037
   12  0.009  0.001  0.025  0.035
   13  0.014  0.003  0.022  0.039
   14  0.052  0.001  0.011  0.064
   15  0.001  0.003  0.006  0.009
   16  0.007  0.000  0.027  0.035
   17  0.001  0.003  0.006  0.009
   18  0.002  0.000  0.012  0.015
   19  0.002  0.003  0.005  0.010
   20  0.063  0.001  0.010  0.074
   21  0.017  0.002  0.029  0.049
   22  0.006  0.001  0.023  0.029
   23  0.014  0.002  0.031  0.047
   24  0.020  0.002  0.005  0.026
   25  0.008  0.000  0.013  0.022
   26  0.002  0.003  0.006  0.011
   27  0.005  0.001  0.024  0.029
   28  0.000  0.000  0.001  0.001
   29  0.007  0.001  0.004  0.012
   30  0.001  0.001  0.003  0.005
   31  0.007  0.001  0.004  0.012
   32  0.002  0.001  0.002  0.005
   33  0.001  0.001  0.003  0.005
   34  0.002  0.000  0.002  0.005
   35  0.000  0.000  0.005  0.005
   36  0.000  0.003  0.004  0.008
   37  0.000  0.000  0.000  0.000
tot    0.306  0.044  0.343  0.694
 
band     6 # energy   -6.02199999 # occ.  2.00000000
 
ion      s      p      d    tot
    1  0.000  0.000  0.007  0.008
    2  0.004  0.001  0.003  0.009
    3  0.006  0.001  0.003  0.010
    4  0.004  0.001  0.003  0.008
    5  0.000  0.001  0.007  0.008
    6  0.000  0.000  0.003  0.003
    7  0.006  0.001  0.003  0.010
    8  0.000  0.000  0.003  0.003
    9  0.000  0.000  0.001  0.001
   10  0.000  0.000  0.033  0.033
   11  0.040  0.001  0.014  0.056
   12  0.023  0.002  0.013  0.037
   13  0.038  0.002  0.015  0.054
   14  0.000  0.003  0.026  0.029
   15  0.002  0.001  0.010  0.013
   16  0.025  0.002  0.011  0.037
   17  0.002  0.001  0.010  0.013
   18  0.000  0.003  0.004  0.007
   19  0.006  0.001  0.011  0.018
   20  0.000  0.003  0.037  0.039
   21  0.046  0.002  0.017  0.064
   22  0.014  0.001  0.012  0.027
   23  0.049  0.001  0.016  0.066
   24  0.000  0.000  0.030  0.030
   25  0.000  0.004  0.002  0.007
   26  0.006  0.001  0.010  0.017
   27  0.015  0.001  0.010  0.027
   28  0.000  0.000  0.001  0.001
   29  0.000  0.000  0.002  0.003
   30  0.005  0.001  0.003  0.009
   31  0.000  0.000  0.002  0.003
   32  0.004  0.001  0.004  0.009
   33  0.006  0.001  0.003  0.010
   34  0.005  0.001  0.004  0.010
   35  0.000  0.000  0.005  0.005
   36  0.000  0.003  0.004  0.008
   37  0.000  0.000  0.000  0.000
tot    0.306  0.044  0.343  0.694
 
band     7 # energy   -6.01804727 # occ.  2.00000000
 
ion      s      p      d    tot
    1  0.025  0.000  0.018  0.043
    2  0.020  0.000  0.020  0.040
    3  0.020  0.000  0.020  0.040
    4  0.020  0.000  0.020  0.040
    5  0.020  0.000  0.020  0.041
    6  0.020  0.000  0.020  0.040
    7  0.020  0.000  0.020  0.040
    8  0.020  0.000  0.020  0.040
    9  0.015  0.000  0.021  0.036
   10  0.005  0.000  0.028  0.033
   11  0.007  0.001  0.025  0.032
   12  0.005  0.000  0.028  0.033
   13  0.007  0.001  0.025  0.032
   14  0.007  0.001  0.025  0.032
   15  0.015  0.001  0.021  0.037
   16  0.005  0.000  0.028  0.033
   17  0.015  0.001  0.021  0.037
   18  0.015  0.001  0.021  0.037
   19  0.001  0.000  0.005  0.005
   20  0.002  0.000  0.006  0.008
   21  0.002  0.000  0.006  0.008
   22  0.000  0.001  0.004  0.005
   23  0.002  0.000  0.006  0.008
   24  0.000  0.001  0.004  0.005
   25  0.000  0.000  0.005  0.005
   26  0.001  0.000  0.005  0.005
   27  0.000  0.001  0.004  0.005
   28  0.001  0.000  0.000  0.001
   29  0.001  0.000  0.000  0.001
   30  0.000  0.000  0.000  0.001
   31  0.001  0.000  0.000  0.001
   32  0.000  0.000  0.000  0.001
   33  0.000  0.000  0.000  0.001
   34  0.000  0.000  0.000  0.001
   35  0.000  0.000  0.000  0.000
   36  0.001  0.000  0.000  0.002
   37  0.000  0.000  0.000  0.000
tot    0.271  0.011  0.447  0.729
 
band     8 # energy   -5.98733778 # occ.  2.00000000
 
ion      s      p      d    tot
    1  0.008  0.001  0.001  0.010
    2  0.000  0.001  0.006  0.007
    3  0.000  0.001  0.006  0.007
    4  0.000  0.001  0.006  0.007
    5  0.016  0.002  0.001  0.019
    6  0.000  0.001  0.006  0.007
    7  0.000  0.001  0.006  0.007
    8  0.000  0.001  0.006  0.007
    9  0.000  0.000  0.001  0.002
   10  0.023  0.003  0.002  0.028
   11  0.023  0.001  0.020  0.044
   12  0.023  0.003  0.002  0.028
   13  0.023  0.001  0.020  0.044
   14  0.023  0.001  0.020  0.044
   15  0.000  0.001  0.024  0.025
   16  0.023  0.003  0.002  0.028
   17  0.000  0.001  0.024  0.025
   18  0.000  0.001  0.024  0.025
   19  0.027  0.002  0.005  0.034
   20  0.005  0.002  0.019  0.026
   21  0.005  0.002  0.019  0.026
   22  0.008  0.000  0.027  0.035
   23  0.005  0.002  0.019  0.026
   24  0.008  0.000  0.027  0.035
   25  0.027  0.002  0.005  0.034
   26  0.027  0.002  0.005  0.034
   27  0.008  0.000  0.027  0.035
   28  0.011  0.001  0.001  0.014
   29  0.000  0.000  0.004  0.004
   30  0.000  0.000  0.004  0.004
   31  0.000  0.000  0.004  0.004
   32  0.000  0.000  0.004  0.004
   33  0.000  0.000  0.004  0.004
   34  0.000  0.000  0.004  0.004
   35  0.004  0.001  0.002  0.007
   36  0.000  0.000  0.000  0.001
   37  0.000  0.000  0.000  0.000
tot    0.298  0.040  0.357  0.695
 
band     9 # energy   -5.95859708 # occ.  2.00000000
 
ion      s      p      d    tot
    1  0.000  0.001  0.004  0.005
    2  0.004  0.001  0.004  0.009
    3  0.007  0.001  0.004  0.012
    4  0.005  0.001  0.004  0.011
    5  0.000  0.000  0.004  0.004
    6  0.000  0.000  0.003  0.004
    7  0.008  0.001  0.004  0.013
    8  0.000  0.000  0.003  0.004
    9  0.000  0.001  0.011  0.012
   10  0.029  0.000  0.016  0.046
   11  0.002  0.002  0.018  0.021
   12  0.006  0.004  0.008  0.017
   13  0.001  0.002  0.019  0.022
   14  0.006  0.001  0.009  0.016
   15  0.019  0.001  0.032  0.052
   16  0.009  0.003  0.009  0.021
   17  0.013  0.001  0.036  0.050
   18  0.062  0.002  0.005  0.068
   19  0.013  0.001  0.027  0.040
   20  0.001  0.001  0.013  0.015
   21  0.000  0.002  0.014  0.015
   22  0.007  0.003  0.014  0.024
   23  0.000  0.002  0.013  0.015
   24  0.032  0.001  0.012  0.045
   25  0.042  0.002  0.003  0.048
   26  0.009  0.001  0.030  0.039
   27  0.010  0.003  0.014  0.026
   28  0.000  0.000  0.006  0.007
   29  0.000  0.000  0.002  0.002
   30  0.003  0.001  0.002  0.005
   31  0.000  0.000  0.002  0.002
   32  0.004  0.001  0.003  0.007
   33  0.002  0.000  0.002  0.004
   34  0.004  0.001  0.003  0.007
   35  0.000  0.001  0.003  0.004
   36  0.000  0.000  0.001  0.001
   37  0.000  0.000  0.000  0.000
tot    0.297  0.041  0.355  0.694
 
band    10 # energy   -5.95859151 # occ.  2.00000000
 
ion      s      p      d    tot
    1  0.000  0.001  0.004  0.005
    2  0.004  0.001  0.003  0.008
    3  0.001  0.001  0.004  0.006
    4  0.003  0.001  0.003  0.007
    5  0.000  0.000  0.004  0.004
    6  0.008  0.001  0.004  0.013
    7  0.001  0.000  0.004  0.005
    8  0.008  0.001  0.004  0.014
    9  0.000  0.001  0.011  0.012
   10  0.000  0.005  0.005  0.010
   11  0.004  0.001  0.013  0.018
   12  0.023  0.001  0.014  0.039
   13  0.005  0.001  0.011  0.017
   14  0.000  0.002  0.022  0.024
   15  0.043  0.001  0.017  0.061
   16  0.021  0.001  0.013  0.035
   17  0.049  0.002  0.013  0.064
   18  0.000  0.001  0.044  0.045
   19  0.030  0.002  0.013  0.045
   20  0.000  0.002  0.014  0.016
   21  0.001  0.001  0.013  0.015
   22  0.026  0.001  0.013  0.040
   23  0.001  0.001  0.013  0.015
   24  0.000  0.004  0.014  0.018
   25  0.000  0.000  0.037  0.037
   26  0.034  0.002  0.010  0.046
   27  0.023  0.002  0.013  0.037
   28  0.000  0.000  0.006  0.007
   29  0.004  0.001  0.002  0.007
   30  0.002  0.000  0.002  0.004
   31  0.004  0.001  0.002  0.007
   32  0.000  0.000  0.001  0.002
   33  0.002  0.000  0.002  0.005
   34  0.001  0.000  0.001  0.002
   35  0.000  0.001  0.003  0.004
   36  0.000  0.000  0.001  0.001
   37  0.000  0.000  0.000  0.000
tot    0.297  0.041  0.355  0.694
 
band    11 # energy   -5.90000691 # occ.  2.00000000
 
ion      s      p      d    tot
    1  0.002  0.000  0.000  0.002
    2  0.000  0.000  0.001  0.001
    3  0.000  0.000  0.001  0.001
    4  0.000  0.000  0.001  0.001
    5  0.002  0.000  0.000  0.002
    6  0.000  0.000  0.001  0.001
    7  0.000  0.000  0.001  0.001
    8  0.000  0.000  0.001  0.001
    9  0.000  0.000  0.001  0.001
   10  0.001  0.000  0.005  0.006
   11  0.001  0.000  0.003  0.004
   12  0.001  0.000  0.005  0.006
   13  0.001  0.000  0.003  0.004
   14  0.001  0.000  0.003  0.004
   15  0.003  0.001  0.004  0.007
   16  0.001  0.000  0.005  0.006
   17  0.003  0.001  0.004  0.007
   18  0.003  0.001  0.004  0.007
   19  0.004  0.001  0.018  0.023
   20  0.001  0.000  0.033  0.034
   21  0.001  0.000  0.033  0.034
   22  0.011  0.001  0.020  0.033
   23  0.001  0.000  0.033  0.034
   24  0.011  0.001  0.020  0.033
   25  0.004  0.001  0.018  0.023
   26  0.004  0.001  0.018  0.023
   27  0.011  0.001  0.020  0.033
   28  0.025  0.000  0.021  0.046
   29  0.025  0.000  0.020  0.045
   30  0.025  0.000  0.020  0.045
   31  0.025  0.000  0.020  0.045
   32  0.025  0.000  0.020  0.045
   33  0.025  0.000  0.020  0.045
   34  0.025  0.000  0.020  0.045
   35  0.023  0.000  0.022  0.045
   36  0.011  0.000  0.012  0.023
   37  0.000  0.000  0.000  0.001
tot    0.283  0.013  0.426  0.723
 
band    12 # energy   -5.54412167 # occ.  2.00000000
 
ion      s      p      d    tot
    1  0.000  0.001  0.004  0.005
    2  0.001  0.001  0.005  0.006
    3  0.009  0.001  0.004  0.015
    4  0.001  0.001  0.005  0.006
    5  0.000  0.001  0.010  0.012
    6  0.005  0.001  0.004  0.009
    7  0.009  0.001  0.005  0.015
    8  0.005  0.001  0.004  0.009
    9  0.000  0.000  0.008  0.008
   10  0.000  0.001  0.052  0.053
   11  0.017  0.001  0.020  0.038
   12  0.008  0.001  0.019  0.028
   13  0.017  0.001  0.020  0.038
   14  0.000  0.000  0.047  0.047
   15  0.001  0.000  0.019  0.021
   16  0.008  0.001  0.019  0.028
   17  0.001  0.000  0.019  0.021
   18  0.000  0.002  0.011  0.012
   19  0.005  0.000  0.018  0.024
   20  0.000  0.000  0.080  0.080
   21  0.016  0.001  0.024  0.041
   22  0.002  0.001  0.019  0.022
   23  0.016  0.001  0.024  0.041
   24  0.000  0.001  0.029  0.030
   25  0.000  0.001  0.013  0.014
   26  0.005  0.000  0.018  0.024
   27  0.002  0.001  0.019  0.022
   28  0.000  0.000  0.008  0.009
   29  0.003  0.001  0.005  0.008
   30  0.010  0.001  0.004  0.015
   31  0.003  0.001  0.005  0.008
   32  0.002  0.001  0.004  0.007
   33  0.010  0.001  0.004  0.015
   34  0.002  0.001  0.004  0.007
   35  0.000  0.000  0.003  0.003
   36  0.000  0.004  0.003  0.007
   37  0.000  0.000  0.000  0.000
tot    0.158  0.033  0.559  0.749
 
band    13 # energy   -5.54410543 # occ.  2.00000000
 
ion      s      p      d    tot
    1  0.000  0.001  0.004  0.005
    2  0.009  0.001  0.004  0.014
    3  0.001  0.000  0.004  0.005
    4  0.009  0.001  0.004  0.014
    5  0.000  0.001  0.010  0.012
    6  0.005  0.001  0.005  0.011
    7  0.001  0.000  0.004  0.005
    8  0.005  0.001  0.005  0.011
    9  0.000  0.000  0.008  0.008
   10  0.011  0.002  0.007  0.020
   11  0.006  0.000  0.038  0.044
   12  0.003  0.001  0.041  0.045
   13  0.006  0.000  0.038  0.044
   14  0.023  0.001  0.012  0.036
   15  0.000  0.001  0.013  0.015
   16  0.003  0.001  0.041  0.045
   17  0.000  0.001  0.013  0.015
   18  0.002  0.000  0.023  0.025
   19  0.002  0.001  0.015  0.017
   20  0.021  0.002  0.006  0.028
   21  0.005  0.000  0.061  0.067
   22  0.001  0.001  0.026  0.028
   23  0.005  0.000  0.061  0.067
   24  0.003  0.001  0.015  0.019
   25  0.007  0.000  0.021  0.028
   26  0.002  0.001  0.015  0.017
   27  0.001  0.001  0.026  0.028
   28  0.000  0.000  0.008  0.009
   29  0.007  0.001  0.003  0.012
   30  0.000  0.000  0.004  0.005
   31  0.007  0.001  0.003  0.012
   32  0.007  0.001  0.004  0.013
   33  0.000  0.000  0.004  0.005
   34  0.007  0.001  0.004  0.013
   35  0.000  0.000  0.003  0.003
   36  0.000  0.004  0.003  0.007
   37  0.000  0.000  0.000  0.000
tot    0.158  0.033  0.559  0.749
 
band    14 # energy   -5.54386619 # occ.  2.00000000
 
ion      s      p      d    tot
    1  0.013  0.002  0.002  0.018
    2  0.000  0.001  0.008  0.009
    3  0.000  0.001  0.008  0.009
    4  0.000  0.001  0.008  0.009
    5  0.000  0.000  0.002  0.002
    6  0.000  0.001  0.008  0.009
    7  0.000  0.001  0.008  0.009
    8  0.000  0.001  0.008  0.009
    9  0.017  0.002  0.000  0.019
   10  0.012  0.001  0.015  0.028
   11  0.002  0.000  0.046  0.048
   12  0.011  0.001  0.015  0.027
   13  0.002  0.000  0.046  0.048
   14  0.002  0.000  0.045  0.047
   15  0.005  0.001  0.019  0.025
   16  0.011  0.001  0.015  0.027
   17  0.005  0.001  0.020  0.025
   18  0.004  0.001  0.018  0.024
   19  0.003  0.001  0.014  0.018
   20  0.002  0.000  0.054  0.056
   21  0.001  0.000  0.055  0.056
   22  0.010  0.001  0.017  0.028
   23  0.001  0.000  0.055  0.056
   24  0.011  0.001  0.018  0.029
   25  0.003  0.001  0.013  0.017
   26  0.003  0.001  0.014  0.018
   27  0.010  0.001  0.017  0.028
   28  0.011  0.001  0.000  0.012
   29  0.000  0.000  0.005  0.006
   30  0.000  0.000  0.005  0.006
   31  0.000  0.000  0.005  0.006
   32  0.000  0.000  0.005  0.006
   33  0.000  0.000  0.005  0.006
   34  0.000  0.000  0.005  0.006
   35  0.007  0.001  0.003  0.010
   36  0.000  0.000  0.002  0.002
   37  0.000  0.000  0.000  0.000
tot    0.145  0.027  0.586  0.758
 
band    15 # energy   -5.50427394 # occ.  2.00000000
 
ion      s      p      d    tot
    1  0.007  0.000  0.001  0.008
    2  0.000  0.001  0.008  0.009
    3  0.000  0.001  0.008  0.009
    4  0.000  0.001  0.008  0.009
    5  0.017  0.002  0.001  0.019
    6  0.000  0.001  0.008  0.009
    7  0.000  0.001  0.008  0.009
    8  0.000  0.001  0.008  0.009
    9  0.003  0.001  0.002  0.005
   10  0.000  0.000  0.041  0.041
   11  0.008  0.002  0.006  0.016
   12  0.000  0.000  0.041  0.041
   13  0.008  0.002  0.006  0.016
   14  0.008  0.002  0.006  0.016
   15  0.008  0.001  0.028  0.037
   16  0.000  0.000  0.041  0.041
   17  0.008  0.001  0.028  0.037
   18  0.008  0.001  0.028  0.037
   19  0.012  0.001  0.035  0.048
   20  0.008  0.002  0.013  0.022
   21  0.008  0.002  0.013  0.022
   22  0.000  0.000  0.038  0.038
   23  0.008  0.002  0.013  0.022
   24  0.000  0.000  0.038  0.038
   25  0.012  0.001  0.035  0.048
   26  0.012  0.001  0.035  0.048
   27  0.000  0.000  0.038  0.038
   28  0.002  0.001  0.006  0.009
   29  0.000  0.000  0.005  0.006
   30  0.000  0.000  0.005  0.006
   31  0.000  0.000  0.005  0.006
   32  0.000  0.000  0.005  0.006
   33  0.000  0.000  0.005  0.006
   34  0.000  0.000  0.005  0.006
   35  0.001  0.000  0.000  0.001
   36  0.017  0.004  0.002  0.023
   37  0.001  0.004  0.000  0.004
tot    0.156  0.036  0.573  0.764
 
band    16 # energy   -5.46752973 # occ.  2.00000000
 
ion      s      p      d    tot
    1  0.000  0.001  0.015  0.015
    2  0.010  0.001  0.005  0.016
    3  0.002  0.000  0.005  0.007
    4  0.010  0.001  0.005  0.016
    5  0.000  0.000  0.005  0.005
    6  0.003  0.001  0.005  0.009
    7  0.002  0.000  0.005  0.008
    8  0.003  0.001  0.005  0.010
    9  0.000  0.001  0.007  0.009
   10  0.000  0.001  0.028  0.029
   11  0.001  0.001  0.020  0.022
   12  0.007  0.000  0.022  0.029
   13  0.001  0.001  0.020  0.022
   14  0.000  0.001  0.020  0.021
   15  0.011  0.002  0.021  0.034
   16  0.007  0.000  0.022  0.029
   17  0.011  0.002  0.020  0.033
   18  0.000  0.000  0.064  0.064
   19  0.013  0.001  0.020  0.034
   20  0.000  0.002  0.021  0.022
   21  0.000  0.001  0.024  0.025
   22  0.018  0.001  0.021  0.039
   23  0.000  0.001  0.024  0.025
   24  0.000  0.000  0.033  0.033
   25  0.000  0.000  0.067  0.068
   26  0.013  0.001  0.020  0.033
   27  0.018  0.001  0.021  0.039
   28  0.000  0.001  0.005  0.005
   29  0.005  0.001  0.003  0.010
   30  0.000  0.000  0.004  0.005
   31  0.005  0.001  0.004  0.010
   32  0.003  0.001  0.002  0.006
   33  0.000  0.000  0.004  0.005
   34  0.003  0.001  0.002  0.006
   35  0.000  0.001  0.007  0.008
   36  0.000  0.000  0.001  0.001
   37  0.000  0.000  0.000  0.000
tot    0.146  0.028  0.579  0.753
 
band    17 # energy   -5.46751654 # occ.  2.00000000
 
ion      s      p      d    tot
    1  0.000  0.001  0.015  0.015
    2  0.000  0.000  0.006  0.006
    3  0.008  0.001  0.005  0.014
    4  0.000  0.000  0.006  0.006
    5  0.000  0.000  0.005  0.005
    6  0.007  0.001  0.005  0.012
    7  0.008  0.001  0.005  0.014
    8  0.007  0.001  0.005  0.012
    9  0.000  0.001  0.007  0.009
   10  0.009  0.000  0.020  0.030
   11  0.000  0.001  0.020  0.021
   12  0.002  0.001  0.026  0.029
   13  0.000  0.001  0.020  0.021
   14  0.001  0.001  0.020  0.022
   15  0.004  0.001  0.049  0.054
   16  0.002  0.001  0.026  0.029
   17  0.004  0.001  0.050  0.054
   18  0.015  0.002  0.006  0.023
   19  0.004  0.001  0.051  0.056
   20  0.000  0.000  0.025  0.026
   21  0.000  0.001  0.022  0.023
   22  0.006  0.001  0.029  0.035
   23  0.000  0.001  0.022  0.023
   24  0.024  0.001  0.017  0.041
   25  0.017  0.001  0.004  0.022
   26  0.004  0.001  0.052  0.057
   27  0.006  0.001  0.029  0.035
   28  0.000  0.001  0.005  0.005
   29  0.001  0.000  0.003  0.004
   30  0.005  0.001  0.002  0.009
   31  0.001  0.000  0.003  0.004
   32  0.002  0.001  0.005  0.008
   33  0.005  0.001  0.002  0.009
   34  0.002  0.001  0.005  0.008
   35  0.000  0.001  0.007  0.008
   36  0.000  0.000  0.001  0.001
   37  0.000  0.000  0.000  0.000
tot    0.146  0.028  0.579  0.753
 
band    18 # energy   -5.15804428 # occ.  2.00000000
 
ion      s      p      d    tot
    1  0.000  0.000  0.014  0.014
    2  0.000  0.000  0.009  0.009
    3  0.004  0.000  0.013  0.017
    4  0.000  0.000  0.009  0.009
    5  0.000  0.000  0.024  0.024
    6  0.006  0.000  0.008  0.015
    7  0.004  0.000  0.013  0.017
    8  0.006  0.000  0.008  0.015
    9  0.000  0.001  0.004  0.005
   10  0.000  0.000  0.016  0.017
   11  0.000  0.000  0.048  0.049
   12  0.000  0.000  0.011  0.011
   13  0.000  0.000  0.048  0.049
   14  0.000  0.000  0.047  0.047
   15  0.000  0.000  0.018  0.018
   16  0.000  0.000  0.011  0.011
   17  0.000  0.000  0.018  0.018
   18  0.000  0.000  0.035  0.035
   19  0.000  0.000  0.011  0.011
   20  0.001  0.000  0.069  0.071
   21  0.000  0.000  0.050  0.051
   22  0.000  0.000  0.032  0.033
   23  0.000  0.000  0.050  0.051
   24  0.000  0.001  0.028  0.029
   25  0.000  0.000  0.013  0.014
   26  0.000  0.000  0.011  0.011
   27  0.000  0.000  0.032  0.033
   28  0.000  0.001  0.012  0.013
   29  0.010  0.001  0.014  0.025
   30  0.000  0.001  0.010  0.011
   31  0.010  0.001  0.014  0.025
   32  0.009  0.001  0.006  0.016
   33  0.000  0.001  0.010  0.011
   34  0.009  0.001  0.006  0.016
   35  0.000  0.000  0.020  0.020
   36  0.000  0.005  0.002  0.007
   37  0.000  0.001  0.000  0.001
tot    0.064  0.019  0.747  0.829
 
band    19 # energy   -5.15803805 # occ.  2.00000000
 
ion      s      p      d    tot
    1  0.000  0.000  0.014  0.014
    2  0.007  0.000  0.011  0.018
    3  0.003  0.001  0.007  0.011
    4  0.007  0.000  0.011  0.018
    5  0.000  0.000  0.024  0.024
    6  0.001  0.000  0.011  0.013
    7  0.003  0.001  0.007  0.011
    8  0.001  0.000  0.011  0.013
    9  0.000  0.001  0.004  0.005
   10  0.000  0.000  0.009  0.009
   11  0.000  0.000  0.047  0.048
   12  0.000  0.000  0.015  0.015
   13  0.000  0.000  0.047  0.048
   14  0.000  0.000  0.049  0.049
   15  0.000  0.000  0.029  0.029
   16  0.000  0.000  0.014  0.015
   17  0.000  0.000  0.029  0.030
   18  0.000  0.000  0.013  0.013
   19  0.000  0.000  0.012  0.013
   20  0.000  0.000  0.044  0.044
   21  0.001  0.000  0.063  0.064
   22  0.000  0.000  0.029  0.030
   23  0.001  0.000  0.063  0.064
   24  0.000  0.000  0.034  0.034
   25  0.000  0.000  0.010  0.010
   26  0.000  0.000  0.012  0.013
   27  0.000  0.000  0.029  0.030
   28  0.000  0.001  0.012  0.013
   29  0.003  0.001  0.006  0.010
   30  0.013  0.001  0.010  0.024
   31  0.003  0.001  0.006  0.010
   32  0.003  0.001  0.014  0.018
   33  0.013  0.001  0.010  0.024
   34  0.003  0.001  0.014  0.018
   35  0.000  0.000  0.020  0.020
   36  0.000  0.005  0.002  0.007
   37  0.000  0.001  0.000  0.001
tot    0.064  0.019  0.747  0.829
 
band    20 # energy   -5.14802925 # occ.  2.00000000
 
ion      s      p      d    tot
    1  0.006  0.000  0.004  0.010
    2  0.000  0.000  0.006  0.007
    3  0.000  0.000  0.006  0.007
    4  0.000  0.000  0.006  0.007
    5  0.000  0.000  0.011  0.012
    6  0.000  0.000  0.006  0.007
    7  0.000  0.000  0.006  0.007
    8  0.000  0.000  0.006  0.007
    9  0.009  0.001  0.001  0.010
   10  0.000  0.000  0.022  0.022
   11  0.000  0.001  0.053  0.053
   12  0.000  0.000  0.022  0.022
   13  0.000  0.001  0.053  0.053
   14  0.000  0.001  0.053  0.053
   15  0.000  0.000  0.029  0.030
   16  0.000  0.000  0.022  0.022
   17  0.000  0.000  0.029  0.030
   18  0.000  0.000  0.029  0.030
   19  0.000  0.000  0.020  0.021
   20  0.001  0.000  0.055  0.057
   21  0.001  0.000  0.055  0.056
   22  0.001  0.000  0.031  0.032
   23  0.001  0.000  0.055  0.056
   24  0.001  0.000  0.031  0.032
   25  0.000  0.000  0.020  0.021
   26  0.000  0.000  0.020  0.021
   27  0.001  0.000  0.031  0.032
   28  0.007  0.001  0.000  0.008
   29  0.000  0.001  0.013  0.013
   30  0.000  0.001  0.013  0.014
   31  0.000  0.001  0.013  0.013
   32  0.000  0.001  0.013  0.013
   33  0.000  0.001  0.013  0.014
   34  0.000  0.001  0.013  0.013
   35  0.015  0.001  0.002  0.018
   36  0.000  0.000  0.011  0.011
   37  0.000  0.003  0.000  0.003
tot    0.045  0.017  0.774  0.836
 
band    21 # energy   -5.12555566 # occ.  2.00000000
 
ion      s      p      d    tot
    1  0.001  0.000  0.005  0.007
    2  0.000  0.001  0.019  0.020
    3  0.000  0.001  0.019  0.020
    4  0.000  0.001  0.019  0.020
    5  0.022  0.001  0.001  0.024
    6  0.000  0.001  0.019  0.020
    7  0.000  0.001  0.019  0.020
    8  0.000  0.001  0.019  0.020
    9  0.014  0.000  0.012  0.027
   10  0.000  0.000  0.035  0.036
   11  0.000  0.001  0.025  0.026
   12  0.000  0.000  0.035  0.036
   13  0.000  0.001  0.025  0.026
   14  0.000  0.001  0.025  0.026
   15  0.000  0.000  0.036  0.036
   16  0.000  0.000  0.035  0.036
   17  0.000  0.000  0.036  0.036
   18  0.000  0.000  0.036  0.036
   19  0.001  0.000  0.026  0.027
   20  0.000  0.000  0.030  0.030
   21  0.000  0.000  0.030  0.030
   22  0.001  0.000  0.019  0.020
   23  0.000  0.000  0.030  0.030
   24  0.001  0.000  0.019  0.020
   25  0.001  0.000  0.026  0.027
   26  0.001  0.000  0.026  0.027
   27  0.001  0.000  0.019  0.020
   28  0.011  0.000  0.008  0.018
   29  0.000  0.000  0.015  0.015
   30  0.000  0.000  0.015  0.015
   31  0.000  0.000  0.015  0.015
   32  0.000  0.000  0.015  0.015
   33  0.000  0.000  0.015  0.015
   34  0.000  0.000  0.015  0.015
   35  0.001  0.000  0.004  0.005
   36  0.008  0.001  0.000  0.009