 vasp.6.2.0 18Jan21 (build Jun 12 2021 23:27:24) complex                        
  
 executed on             LinuxIFC date 2022.05.26  19:47:13
 running on   28 total cores
 distrk:  each k-point on   28 cores,    1 groups
 distr:  one band on NCORE=   1 cores,   28 groups


--------------------------------------------------------------------------------------------------------


 INCAR:
   ISMEAR = -5
   SIGMA = 0.1
   ISPIN = 1
   EDIFF = 1.d-5
   EDIFFG = -0.01
   NSW = 0
   NELM = 150
   ENCUT = 500
   ISIF = 2
   IBRION = 2
   LREAL = Auto
   ALGO = Fast
   ICHARG = 11
   LORBIT = 10
   LCHARG = .F.
   LWAVE = .F.

 POTCAR:    PAW_PBE Ag 02Apr2005                  
 POTCAR:    PAW_PBE Ru 04Feb2005                  
 POTCAR:    PAW_PBE H 15Jun2001                   
 -----------------------------------------------------------------------------
|                                                                             |
|           W    W    AA    RRRRR   N    N  II  N    N   GGGG   !!!           |
|           W    W   A  A   R    R  NN   N  II  NN   N  G    G  !!!           |
|           W    W  A    A  R    R  N N  N  II  N N  N  G       !!!           |
|           W WW W  AAAAAA  RRRRR   N  N N  II  N  N N  G  GGG   !            |
|           WW  WW  A    A  R   R   N   NN  II  N   NN  G    G                |
|           W    W  A    A  R    R  N    N  II  N    N   GGGG   !!!           |
|                                                                             |
|     For optimal performance we recommend to set                             |
|       NCORE = 2 up to number-of-cores-per-socket                            |
|     NCORE specifies how many cores store one orbital (NPAR=cpu/NCORE).      |
|     This setting can greatly improve the performance of VASP for DFT.       |
|     The default, NCORE=1 might be grossly inefficient on modern             |
|     multi-core architectures or massively parallel machines. Do your        |
|     own testing! More info at https://www.vasp.at/wiki/index.php/NCORE      |
|     Unfortunately you need to use the default for GW and RPA                |
|     calculations (for HF NCORE is supported but not extensively tested      |
|     yet).                                                                   |
|                                                                             |
 -----------------------------------------------------------------------------

 POTCAR:    PAW_PBE Ag 02Apr2005                  
   VRHFIN =Ag : s1 d10                                                                              
   LEXCH  = PE                                                                                      
   EATOM  =  1037.2675 eV,   76.2370 Ry                                                             
                                                                                                    
   TITEL  = PAW_PBE Ag 02Apr2005                                                                    
   LULTRA =        F    use ultrasoft PP ?                                                          
   IUNSCR =        1    unscreen: 0-lin 1-nonlin 2-no                                               
   RPACOR =    2.000    partial core radius                                                         
   POMASS =  107.868; ZVAL   =   11.000    mass and valenz                                          
   RCORE  =    2.500    outmost cutoff radius                                                       
   RWIGS  =    2.840; RWIGS  =    1.503    wigner-seitz radius (au A)                               
   ENMAX  =  249.844; ENMIN  =  187.383 eV                                                          
   ICORE  =        3    local potential                                                             
   LCOR   =        T    correct aug charges                                                         
   LPAW   =        T    paw PP                                                                      
   EAUG   =  412.496                                                                                
   DEXC   =    0.000                                                                                
   RMAX   =    2.560    core radius for proj-oper                                                   
   RAUG   =    1.300    factor for augmentation sphere                                              
   RDEP   =    2.576    radius for radial grids                                                     
   RDEPT  =    2.072    core radius for aug-charge                                                  
                                                                                                    
   Atomic configuration                                                                             
   12 entries                                                                                       
     n  l   j            E        occ.                                                              
     1  0  0.50    -25324.9161   2.0000                                                             
     2  0  0.50     -3728.5341   2.0000                                                             
     2  1  1.50     -3344.0404   6.0000                                                             
     3  0  0.50      -683.5581   2.0000                                                             
     3  1  1.50      -557.3225   6.0000                                                             
     3  2  2.50      -358.3853  10.0000                                                             
     4  0  0.50       -95.0341   2.0000                                                             
     4  1  1.50       -58.5511   6.0000                                                             
     4  2  2.50        -7.4440  10.0000                                                             
     5  0  0.50        -4.4045   1.0000                                                             
     5  1  0.50        -1.3606   0.0000                                                             
     4  3  2.50        -1.3606   0.0000                                                             
   Description                                                                                      
     l       E           TYP  RCUT    TYP  RCUT                                                     
     2     -7.4439781     23  2.400                                                                 
     2     -8.8045607     23  2.400                                                                 
     0     -4.4044681     23  2.400                                                                 
     0      1.9520038     23  2.400                                                                 
     1     -1.3605826     23  2.500                                                                 
     1     27.2116520     23  2.500                                                                 
     3     -4.0817478     23  2.400                                                                 
  local pseudopotential read in
  partial core-charges read in
  partial kinetic energy density read in
  atomic valenz-charges read in
  non local Contribution for L=           2  read in
    real space projection operators read in
  non local Contribution for L=           2  read in
    real space projection operators read in
  non local Contribution for L=           0  read in
    real space projection operators read in
  non local Contribution for L=           0  read in
    real space projection operators read in
  non local Contribution for L=           1  read in
    real space projection operators read in
  non local Contribution for L=           1  read in
    real space projection operators read in
    PAW grid and wavefunctions read in
 
   number of l-projection  operators is LMAX  =           6
   number of lm-projection operators is LMMAX =          18
 
 POTCAR:    PAW_PBE Ru 04Feb2005                  
   VRHFIN =Ru: s1 d7                                                                                
   LEXCH  = PE                                                                                      
   EATOM  =   454.8837 eV,   33.4330 Ry                                                             
                                                                                                    
   TITEL  = PAW_PBE Ru 04Feb2005                                                                    
   LULTRA =        F    use ultrasoft PP ?                                                          
   IUNSCR =        1    unscreen: 0-lin 1-nonlin 2-no                                               
   RPACOR =    2.170    partial core radius                                                         
   POMASS =  101.070; ZVAL   =    8.000    mass and valenz                                          
   RCORE  =    2.700    outmost cutoff radius                                                       
   RWIGS  =    2.650; RWIGS  =    1.402    wigner-seitz radius (au A)                               
   ENMAX  =  213.271; ENMIN  =  159.953 eV                                                          
   ICORE  =        3    local potential                                                             
   LCOR   =        T    correct aug charges                                                         
   LPAW   =        T    paw PP                                                                      
   EAUG   =  333.494                                                                                
   DEXC   =    0.000                                                                                
   RMAX   =    2.758    core radius for proj-oper                                                   
   RAUG   =    1.300    factor for augmentation sphere                                              
   RDEP   =    2.865    radius for radial grids                                                     
   RDEPT  =    2.250    core radius for aug-charge                                                  
                                                                                                    
   Atomic configuration                                                                             
   12 entries                                                                                       
     n  l   j            E        occ.                                                              
     1  0  0.50    -21933.2693   2.0000                                                             
     2  0  0.50     -3153.4097   2.0000                                                             
     2  1  1.50     -2823.9548   6.0000                                                             
     3  0  0.50      -555.3323   2.0000                                                             
     3  1  1.50      -447.1024   6.0000                                                             
     3  2  2.50      -273.0570  10.0000                                                             
     4  0  0.50       -76.3589   2.0000                                                             
     4  1  1.50       -46.4050   6.0000                                                             
     4  2  2.50        -5.2029   7.0000                                                             
     5  0  0.50        -4.2392   1.0000                                                             
     5  1  0.50        -1.3606   0.0000                                                             
     4  3  2.50        -1.3606   0.0000                                                             
   Description                                                                                      
     l       E           TYP  RCUT    TYP  RCUT                                                     
     2     -5.2028939     23  2.600                                                                 
     2     -6.5634765     23  2.600                                                                 
     0     -4.2392259     23  2.700                                                                 
     0     27.2116520     23  2.700                                                                 
     1     -4.0817478     23  2.700                                                                 
     1     27.2116520     23  2.700                                                                 
     3     -5.4423304     23  2.600                                                                 
  local pseudopotential read in
  partial core-charges read in
  partial kinetic energy density read in
  atomic valenz-charges read in
  non local Contribution for L=           2  read in
    real space projection operators read in
  non local Contribution for L=           2  read in
    real space projection operators read in
  non local Contribution for L=           0  read in
    real space projection operators read in
  non local Contribution for L=           0  read in
    real space projection operators read in
  non local Contribution for L=           1  read in
    real space projection operators read in
  non local Contribution for L=           1  read in
    real space projection operators read in
    PAW grid and wavefunctions read in
 
   number of l-projection  operators is LMAX  =           6
   number of lm-projection operators is LMMAX =          18
 
 POTCAR:    PAW_PBE H 15Jun2001                   
   VRHFIN =H: ultrasoft test                                                                        
   LEXCH  = PE                                                                                      
   EATOM  =    12.4884 eV,    0.9179 Ry                                                             
                                                                                                    
   TITEL  = PAW_PBE H 15Jun2001                                                                     
   LULTRA =        F    use ultrasoft PP ?                                                          
   IUNSCR =        0    unscreen: 0-lin 1-nonlin 2-no                                               
   RPACOR =    0.000    partial core radius                                                         
   POMASS =    1.000; ZVAL   =    1.000    mass and valenz                                          
   RCORE  =    1.100    outmost cutoff radius                                                       
   RWIGS  =    0.700; RWIGS  =    0.370    wigner-seitz radius (au A)                               
   ENMAX  =  250.000; ENMIN  =  200.000 eV                                                          
   RCLOC  =    0.701    cutoff for local pot                                                        
   LCOR   =        T    correct aug charges                                                         
   LPAW   =        T    paw PP                                                                      
   EAUG   =  400.000                                                                                
   RMAX   =    1.123    core radius for proj-oper                                                   
   RAUG   =    1.200    factor for augmentation sphere                                              
   RDEP   =    1.112    radius for radial grids                                                     
   RDEPT  =    0.926    core radius for aug-charge                                                  
                                                                                                    
   Atomic configuration                                                                             
    2 entries                                                                                       
     n  l   j            E        occ.                                                              
     1  0  0.50        -6.4927   1.0000                                                             
     2  1  0.50        -3.4015   0.0000                                                             
   Description                                                                                      
     l       E           TYP  RCUT    TYP  RCUT                                                     
     0     -6.4927494     23  1.100                                                                 
     0      6.8029130     23  1.100                                                                 
     1     -4.0817478     23  1.100                                                                 
  local pseudopotential read in
  atomic valenz-charges read in
  non local Contribution for L=           0  read in
    real space projection operators read in
  non local Contribution for L=           0  read in
    real space projection operators read in
  non local Contribution for L=           1  read in
    real space projection operators read in
    PAW grid and wavefunctions read in
 
   number of l-projection  operators is LMAX  =           3
   number of lm-projection operators is LMMAX =           5
 
 Optimization of the real space projectors (new method)

 maximal supplied QI-value         = 15.12
 optimisation between [QCUT,QGAM] = [ 11.34, 22.83] = [ 36.00,145.93] Ry 
 Optimized for a Real-space Cutoff    1.43 Angstroem

   l    n(q)    QCUT    max X(q) W(low)/X(q) W(high)/X(q)  e(spline) 
   2      9    11.338    53.897    0.16E-03    0.20E-03    0.28E-06
   2      9    11.338    52.416    0.16E-03    0.20E-03    0.29E-06
   0     10    11.338   122.045    0.31E-04    0.76E-04    0.15E-06
   0     10    11.338    73.629    0.30E-04    0.72E-04    0.15E-06
   1      9    11.338    15.255    0.20E-03    0.19E-04    0.17E-06
   1      9    11.338     9.562    0.16E-03    0.15E-04    0.14E-06
 Optimization of the real space projectors (new method)

 maximal supplied QI-value         = 13.98
 optimisation between [QCUT,QGAM] = [ 11.33, 22.79] = [ 35.93,145.49] Ry 
 Optimized for a Real-space Cutoff    1.52 Angstroem

   l    n(q)    QCUT    max X(q) W(low)/X(q) W(high)/X(q)  e(spline) 
   2      9    11.327    61.733    0.26E-03    0.14E-03    0.16E-06
   2      9    11.327    59.886    0.26E-03    0.14E-03    0.17E-06
   0     10    11.327    23.358    0.19E-03    0.14E-04    0.46E-06
   0     10    11.327    11.320    0.15E-03    0.11E-04    0.37E-06
   1     10    11.327    14.765    0.49E-04    0.26E-03    0.24E-06
   1     10    11.327     8.283    0.37E-04    0.20E-03    0.18E-06
 Optimization of the real space projectors (new method)

 maximal supplied QI-value         = 34.20
 optimisation between [QCUT,QGAM] = [ 11.29, 22.57] = [ 35.68,142.71] Ry 
 Optimized for a Real-space Cutoff    1.16 Angstroem

   l    n(q)    QCUT    max X(q) W(low)/X(q) W(high)/X(q)  e(spline) 
   0      8    11.287    19.460    0.40E-03    0.73E-03    0.16E-06
   0      8    11.287    12.209    0.38E-03    0.70E-03    0.15E-06
   1      7    11.287     4.655    0.22E-03    0.25E-04    0.22E-06
  PAW_PBE Ag 02Apr2005                  :
 energy of atom  1       EATOM=-1037.2675
 kinetic energy error for atom=    0.0052 (will be added to EATOM!!)
  PAW_PBE Ru 04Feb2005                  :
 energy of atom  2       EATOM= -454.8837
 kinetic energy error for atom=    0.0015 (will be added to EATOM!!)
  PAW_PBE H 15Jun2001                   :
 energy of atom  3       EATOM=  -12.4884
 kinetic energy error for atom=    0.0020 (will be added to EATOM!!)
 
 
 POSCAR: Ag-Ru-H
  positions in direct lattice
  velocities in cartesian coordinates
 exchange correlation table for  LEXCH =        8
   RHO(1)=    0.500       N(1)  =     2000
   RHO(2)=  100.500       N(2)  =     4000

 VTST: version 3.2, (02/03/18)

 CHAIN: initializing optimizer
 
 OPT: Using VASP Conjugate-Gradient optimizer
 CHAIN: Read ICHAIN            0
 
 POSCAR: Ag-Ru-H
  positions in direct lattice
  velocities in cartesian coordinates
 


--------------------------------------------------------------------------------------------------------


 ion  position               nearest neighbor table
   1  0.000  0.000  0.238-   2 2.93   8 2.93   7 2.93   6 2.93   4 2.93  12 2.93  16 2.93  10 2.93
                             3 2.93
   2  0.333  0.000  0.238-   1 2.93   8 2.93   9 2.93   3 2.93   4 2.93   5 2.93  10 2.93  17 2.93
                            11 2.93
   3  0.667  0.000  0.238-   9 2.93   2 2.93   5 2.93  11 2.93   7 2.93  18 2.93   1 2.93   6 2.93
                            12 2.93
   4  0.000  0.333  0.238-   5 2.93   6 2.93   2 2.93   1 2.93   7 2.93  13 2.93  15 2.93   9 2.93
                            10 2.93
   5  0.333  0.333  0.238-   4 2.93   3 2.93   7 2.93   2 2.93   8 2.93  14 2.93  13 2.93  11 2.93
                             6 2.93
   6  0.667  0.333  0.238-   4 2.93   9 2.93   1 2.93  15 2.93   8 2.93  12 2.93   3 2.93   5 2.93
                            14 2.93
   7  0.000  0.667  0.238-   8 2.93   1 2.93   5 2.93   3 2.93   4 2.93  16 2.93  18 2.93  13 2.93
                             9 2.93
   8  0.333  0.667  0.238-   7 2.93   1 2.93   2 2.93   9 2.93   5 2.93  16 2.93   6 2.93  17 2.93
                            14 2.93
   9  0.667  0.667  0.238-   3 2.93   2 2.93   8 2.93   6 2.93  17 2.93   4 2.93  15 2.93   7 2.93
                            18 2.93
  10  0.111  0.111  0.346-  20 2.90  19 2.93  26 2.93  12 2.93  16 2.93  15 2.93  17 2.93  13 2.93
                            11 2.93   2 2.93   1 2.93   4 2.93
  11  0.444  0.111  0.346-  21 2.90  20 2.90  27 2.92  14 2.93  17 2.93  18 2.93   3 2.93  12 2.93
                            13 2.93  10 2.93   5 2.93   2 2.93
  12  0.778  0.111  0.346-  21 2.90  25 2.93  19 2.93  10 2.93  16 2.93  18 2.93  15 2.93  11 2.93
                             1 2.93  14 2.93   6 2.93   3 2.93
  13  0.111  0.444  0.346-  20 2.90  23 2.90  22 2.92  15 2.93  14 2.93  18 2.93  10 2.93  11 2.93
                            16 2.93   4 2.93   5 2.93   7 2.93
  14  0.444  0.444  0.346-  23 2.90  21 2.90  24 2.92  13 2.93  11 2.93  16 2.93   5 2.93  12 2.93
                            17 2.93   8 2.93  15 2.93   6 2.93
  15  0.778  0.444  0.346-  24 2.92  22 2.92  19 2.93  13 2.93  10 2.93  12 2.93  17 2.93  18 2.93
                             4 2.93   6 2.93   9 2.93  14 2.93
  16  0.111  0.778  0.346-  23 2.90  26 2.93  25 2.93  18 2.93  12 2.93  10 2.93  14 2.93  17 2.93
                            13 2.93   7 2.93   8 2.93   1 2.93
  17  0.444  0.778  0.346-  27 2.92  24 2.92  26 2.93  11 2.93  10 2.93   9 2.93  18 2.93  15 2.93
                            16 2.93   2 2.93  14 2.93   8 2.93
  18  0.778  0.778  0.346-  22 2.92  27 2.92  25 2.93  16 2.93  12 2.93  13 2.93  11 2.93  17 2.93
                            15 2.93   7 2.93   3 2.93   9 2.93
  19  0.889  0.223  0.454-  28 2.91  15 2.93  10 2.93  12 2.93  24 2.93  22 2.93  26 2.93  25 2.93
                            20 2.94  21 2.94  32 2.94  31 2.94
  20  0.223  0.223  0.452-  36 2.77  13 2.90  11 2.90  10 2.90  21 2.92  23 2.92  31 2.92  29 2.92
                            27 2.93  22 2.93  19 2.94  26 2.94
  21  0.555  0.223  0.452-  36 2.77  11 2.90  14 2.90  12 2.90  20 2.92  23 2.92  30 2.92  32 2.92
                            27 2.93  24 2.93  25 2.94  19 2.94
  22  0.888  0.556  0.453-  35 2.91  18 2.92  15 2.92  13 2.92  33 2.92  31 2.92  24 2.92  27 2.92
                            25 2.93  19 2.93  23 2.93  20 2.93
  23  0.223  0.555  0.452-  36 2.77  14 2.90  13 2.90  16 2.90  21 2.92  20 2.92  34 2.92  33 2.92
                            22 2.93  24 2.93  26 2.94  25 2.94
  24  0.556  0.556  0.453-  35 2.91  15 2.92  17 2.92  14 2.92  32 2.92  34 2.92  27 2.92  22 2.92
                            19 2.93  26 2.93  23 2.93  21 2.93
  25  0.889  0.889  0.454-  28 2.91  18 2.93  16 2.93  12 2.93  22 2.93  27 2.93  26 2.93  19 2.93
                            23 2.94  21 2.94  33 2.94  30 2.94
  26  0.223  0.889  0.454-  28 2.91  17 2.93  16 2.93  10 2.93  27 2.93  24 2.93  25 2.93  19 2.93
                            23 2.94  20 2.94  34 2.94  29 2.94
  27  0.556  0.888  0.453-  35 2.91  17 2.92  18 2.92  11 2.92  29 2.92  30 2.92  24 2.92  22 2.92
                            26 2.93  25 2.93  20 2.93  21 2.93
  28  0.000  0.000  0.560-  26 2.91  25 2.91  19 2.91  29 2.95  34 2.95  33 2.95  32 2.95  31 2.95
                            30 2.95
  29  0.333  0.006  0.561-  31 2.88  30 2.88  36 2.89  20 2.92  27 2.92  26 2.94  28 2.95  35 2.96
                            34 3.03
  30  0.661  0.006  0.561-  32 2.88  29 2.88  36 2.89  21 2.92  27 2.92  25 2.94  28 2.95  35 2.96
                            33 3.03
  31  0.006  0.333  0.561-  29 2.88  33 2.88  36 2.89  20 2.92  22 2.92  19 2.94  28 2.95  35 2.96
                            32 3.03
  32  0.661  0.333  0.561-  30 2.88  34 2.88  36 2.89  21 2.92  24 2.92  19 2.94  28 2.95  35 2.96
                            31 3.03
  33  0.006  0.661  0.561-  34 2.88  31 2.88  36 2.89  23 2.92  22 2.92  25 2.94  28 2.95  35 2.96
                            30 3.03
  34  0.333  0.661  0.561-  33 2.88  32 2.88  36 2.89  23 2.92  24 2.92  26 2.94  28 2.95  35 2.96
                            29 3.03
  35  0.667  0.667  0.560-  24 2.91  27 2.91  22 2.91  30 2.96  32 2.96  29 2.96  34 2.96  31 2.96
                            33 2.96
  36  0.333  0.333  0.551-  37 1.60  21 2.77  20 2.77  23 2.77  31 2.89  30 2.89  33 2.89  29 2.89
                            34 2.89  32 2.89
  37  0.333  0.333  0.624-  36 1.60
 
  LATTYP: Found a hexagonal cell.
 ALAT       =     8.7913665772
 C/A-ratio  =     2.5227160501
  
  Lattice vectors:
  
 A1 = (  -4.3956832886,  -7.6135467898,   0.0000000000)
 A2 = (   8.7913665771,   0.0000000000,   0.0000000000)
 A3 = (   0.0000000000,   0.0000000000,  22.1781215668)


Analysis of symmetry for initial positions (statically):
=====================================================================
 Subroutine PRICEL returns:
 Original cell was already a primitive cell.
 

 Routine SETGRP: Setting up the symmetry group for a 
 hexagonal supercell.


 Subroutine GETGRP returns: Found  6 space group operations
 (whereof  6 operations were pure point group operations)
 out of a pool of 24 trial point group operations.


The static configuration has the point symmetry C_3v.


Analysis of symmetry for dynamics (positions and initial velocities):
=====================================================================
 Subroutine PRICEL returns:
 Original cell was already a primitive cell.
 

 Routine SETGRP: Setting up the symmetry group for a 
 hexagonal supercell.


 Subroutine GETGRP returns: Found  6 space group operations
 (whereof  6 operations were pure point group operations)
 out of a pool of 24 trial point group operations.


The dynamic configuration has the point symmetry C_3v.


Analysis of constrained symmetry for selective dynamics:
=====================================================================
 Subroutine PRICEL returns:
 Original cell was already a primitive cell.
 

 Routine SETGRP: Setting up the symmetry group for a 
 hexagonal supercell.


 Subroutine GETGRP returns: Found  6 space group operations
 (whereof  6 operations were pure point group operations)
 out of a pool of 24 trial point group operations.


The constrained configuration has the point symmetry C_3v.


 Subroutine INISYM returns: Found  6 space group operations
 (whereof  6 operations are pure point group operations),
 and found     1 'primitive' translations


----------------------------------------------------------------------------------------

                                     Primitive cell                                     

  volume of cell :    1484.4589

  direct lattice vectors                    reciprocal lattice vectors
     8.791366577  0.000000000  0.000000000     0.113747958 -0.065672414  0.000000000
     4.395683289  7.613546790  0.000000000     0.000000000  0.131344829  0.000000000
     0.000000000  0.000000000 22.178121567     0.000000000  0.000000000  0.045089481

  length of vectors
     8.791366577  8.791366577 22.178121567     0.131344829  0.131344829  0.045089481

  position of ions in fractional coordinates (direct lattice)
     0.000000000  0.000000000  0.238171124
     0.333333313  0.000000000  0.238171124
     0.666666627  0.000000000  0.238171124
     0.000000000  0.333333343  0.238171124
     0.333333313  0.333333343  0.238171124
     0.666666687  0.333333343  0.238171124
     0.000000000  0.666666687  0.238171124
     0.333333313  0.666666687  0.238171124
     0.666666627  0.666666687  0.238171124
     0.111111104  0.111111112  0.346057051
     0.444444448  0.111111112  0.346057051
     0.777777791  0.111111112  0.346057051
     0.111111097  0.444444448  0.346057051
     0.444444418  0.444444448  0.346057051
     0.777777791  0.444444448  0.346057051
     0.111111104  0.777777791  0.346057051
     0.444444448  0.777777791  0.346057051
     0.777777791  0.777777791  0.346057051
     0.888718139  0.222563739  0.453727266
     0.222682212  0.222682227  0.452272528
     0.554635515  0.222682227  0.452272528
     0.888462106  0.555768977  0.453398445
     0.222682227  0.554635575  0.452272528
     0.555768977  0.555768977  0.453398445
     0.888718139  0.888718139  0.453727266
     0.222563709  0.888718139  0.453727266
     0.555768917  0.888462106  0.453398445
     0.000000000  0.000000000  0.560191499
     0.333086067  0.005822137  0.560799538
     0.661091736  0.005822137  0.560799538
     0.005822137  0.333086097  0.560799538
     0.661091796  0.333086097  0.560799538
     0.005822137  0.661091796  0.560799538
     0.333086067  0.661091796  0.560799538
     0.666666627  0.666666687  0.560042406
     0.333333313  0.333333343  0.551469523
     0.333333313  0.333333343  0.623725836

  ion indices of the primitive-cell ions
   primitive index   ion index
                 1           1
                 2           2
                 3           3
                 4           4
                 5           5
                 6           6
                 7           7
                 8           8
                 9           9
                10          10
                11          11
                12          12
                13          13
                14          14
                15          15
                16          16
                17          17
                18          18
                19          19
                20          20
                21          21
                22          22
                23          23
                24          24
                25          25
                26          26
                27          27
                28          28
                29          29
                30          30
                31          31
                32          32
                33          33
                34          34
                35          35
                36          36
                37          37

----------------------------------------------------------------------------------------

 
 
 KPOINTS: Automatic mesh                          

Automatic generation of k-mesh.
 Grid dimensions read from file:
 generate k-points for:    8    8    1

 Generating k-lattice:

  Cartesian coordinates                     Fractional coordinates (reciprocal lattice)
     0.014218495 -0.008209052  0.000000000     0.125000000  0.000000000  0.000000000
     0.000000000  0.016418104  0.000000000     0.000000000  0.125000000  0.000000000
     0.000000000  0.000000000  0.045089481     0.000000000  0.000000000  1.000000000

  Length of vectors
     0.016418104  0.016418104  0.045089481

  Shift w.r.t. Gamma in fractional coordinates (k-lattice)
     0.000000000  0.000000000  0.000000000

 TETIRR: Found     36 inequivalent tetrahedra from      384
 
 Subroutine IBZKPT returns following result:
 ===========================================
 
 Found     10 irreducible k-points:
 
 Following reciprocal coordinates:
            Coordinates               Weight
  0.000000  0.000000  0.000000      1.000000
  0.125000 -0.000000  0.000000      6.000000
  0.250000 -0.000000  0.000000      6.000000
  0.375000 -0.000000  0.000000      6.000000
  0.500000 -0.000000  0.000000      3.000000
  0.250000  0.125000  0.000000      6.000000
  0.375000  0.125000  0.000000     12.000000
  0.500000  0.125000  0.000000     12.000000
  0.500000  0.250000  0.000000      6.000000
 -0.375000  0.250000  0.000000      6.000000
 
 Following cartesian coordinates:
            Coordinates               Weight
  0.000000  0.000000  0.000000      1.000000
  0.014218 -0.008209  0.000000      6.000000
  0.028437 -0.016418  0.000000      6.000000
  0.042655 -0.024627  0.000000      6.000000
  0.056874 -0.032836  0.000000      3.000000
  0.028437 -0.000000  0.000000      6.000000
  0.042655 -0.008209  0.000000     12.000000
  0.056874 -0.016418  0.000000     12.000000
  0.056874 -0.000000  0.000000      6.000000
 -0.042655  0.057463  0.000000      6.000000
 


--------------------------------------------------------------------------------------------------------




 Dimension of arrays:
   k-points           NKPTS =     10   k-points in BZ     NKDIM =     10   number of bands    NBANDS=    252
   number of dos      NEDOS =    301   number of ions     NIONS =     37
   non local maximal  LDIM  =      6   non local SUM 2l+1 LMDIM =     18
   total plane-waves  NPLWV = 290304
   max r-space proj   IRMAX =   2918   max aug-charges    IRDMAX=  13425
   dimension x,y,z NGX =    48 NGY =   48 NGZ =  126
   dimension x,y,z NGXF=    96 NGYF=   96 NGZF=  252
   support grid    NGXF=    96 NGYF=   96 NGZF=  252
   ions per type =              35   1   1
   NGX,Y,Z   is equivalent  to a cutoff of   9.08,  9.08,  9.44 a.u.
   NGXF,Y,Z  is equivalent  to a cutoff of  18.15, 18.15, 18.89 a.u.

 SYSTEM =  unknown system                          
 POSCAR =  Ag-Ru-H                                 

 Startparameter for this run:
   NWRITE =      2    write-flag & timer
   PREC   = normal    normal or accurate (medium, high low for compatibility)
   ISTART =      0    job   : 0-new  1-cont  2-samecut
   ICHARG =     11    charge: 1-file 2-atom 10-const
   ISPIN  =      1    spin polarized calculation?
   LNONCOLLINEAR =      F non collinear calculations
   LSORBIT =      F    spin-orbit coupling
   INIWAV =      1    electr: 0-lowe 1-rand  2-diag
   LASPH  =      F    aspherical Exc in radial PAW
   METAGGA=      F    non-selfconsistent MetaGGA calc.

 Electronic Relaxation 1
   ENCUT  =  500.0 eV  36.75 Ry    6.06 a.u.  16.03 16.03 40.44*2*pi/ulx,y,z
   ENINI  =  500.0     initial cutoff
   ENAUG  =  412.5 eV  augmentation charge cutoff
   NELM   =    150;   NELMIN=  2; NELMDL= -5     # of ELM steps 
   EDIFF  = 0.1E-04   stopping-criterion for ELM
   LREAL  =      T    real-space projection
   NLSPLINE    = F    spline interpolate recip. space projectors
   LCOMPAT=      F    compatible to vasp.4.4
   GGA_COMPAT  = T    GGA compatible to vasp.4.4-vasp.4.6
   LMAXPAW     = -100 max onsite density
   LMAXMIX     =    2 max onsite mixed and CHGCAR
   VOSKOWN=      0    Vosko Wilk Nusair interpolation
   ROPT   =   -0.00050  -0.00050  -0.00050
 Ionic relaxation
   EDIFFG = -.1E-01   stopping-criterion for IOM
   NSW    =      0    number of steps for IOM
   NBLOCK =      1;   KBLOCK =      1    inner block; outer block 
   IBRION =     -1    ionic relax: 0-MD 1-quasi-New 2-CG
   NFREE  =      1    steps in history (QN), initial steepest desc. (CG)
   ISIF   =      2    stress and relaxation
   IWAVPR =     10    prediction:  0-non 1-charg 2-wave 3-comb
   ISYM   =      2    0-nonsym 1-usesym 2-fastsym
   LCORR  =      T    Harris-Foulkes like correction to forces

   POTIM  = 0.5000    time-step for ionic-motion
   TEIN   =    0.0    initial temperature
   TEBEG  =    0.0;   TEEND  =   0.0 temperature during run
   SMASS  =  -3.00    Nose mass-parameter (am)
   estimated Nose-frequenzy (Omega)   =  0.10E-29 period in steps = 0.13E+47 mass=  -0.177E-26a.u.
   SCALEE = 1.0000    scale energy and forces
   NPACO  =    256;   APACO  = 16.0  distance and # of slots for P.C.
   PSTRESS=    0.0 pullay stress

  Mass of Ions in am
   POMASS = 107.87101.07  1.00
  Ionic Valenz
   ZVAL   =  11.00  8.00  1.00
  Atomic Wigner-Seitz radii
   RWIGS  =  -1.00 -1.00 -1.00
  virtual crystal weights 
   VCA    =   1.00  1.00  1.00
   NELECT =     394.0000    total number of electrons
   NUPDOWN=      -1.0000    fix difference up-down

 DOS related values:
   EMIN   =  10.00;   EMAX   =-10.00  energy-range for DOS
   EFERMI =   0.00
   ISMEAR =    -5;   SIGMA  =   0.10  broadening in eV -4-tet -1-fermi 0-gaus

 Electronic relaxation 2 (details)
   IALGO  =     68    algorithm
   LDIAG  =      T    sub-space diagonalisation (order eigenvalues)
   LSUBROT=      F    optimize rotation matrix (better conditioning)
   TURBO    =      0    0=normal 1=particle mesh
   IRESTART =      0    0=no restart 2=restart with 2 vectors
   NREBOOT  =      0    no. of reboots
   NMIN     =      0    reboot dimension
   EREF     =   0.00    reference energy to select bands
   IMIX   =      4    mixing-type and parameters
     AMIX     =   0.40;   BMIX     =  1.00
     AMIX_MAG =   1.60;   BMIX_MAG =  1.00
     AMIN     =   0.10
     WC   =   100.;   INIMIX=   1;  MIXPRE=   1;  MAXMIX= -45

 Intra band minimization:
   WEIMIN = 0.0000     energy-eigenvalue tresh-hold
   EBREAK =  0.99E-08  absolut break condition
   DEPER  =   0.30     relativ break condition  

   TIME   =   0.40     timestep for ELM

  volume/ion in A,a.u.               =      40.12       270.75
  Fermi-wavevector in a.u.,A,eV,Ry     =   1.052085  1.988152 15.060057  1.106883
  Thomas-Fermi vector in A             =   2.187154
 
 Write flags
   LWAVE        =      F    write WAVECAR
   LDOWNSAMPLE  =      F    k-point downsampling of WAVECAR
   LCHARG       =      F    write CHGCAR
   LVTOT        =      F    write LOCPOT, total local potential
   LVHAR        =      F    write LOCPOT, Hartree potential only
   LELF         =      F    write electronic localiz. function (ELF)
   LORBIT       =     10    0 simple, 1 ext, 2 COOP (PROOUT), +10 PAW based schemes


 Dipole corrections
   LMONO  =      F    monopole corrections only (constant potential shift)
   LDIPOL =      F    correct potential (dipole corrections)
   IDIPOL =      0    1-x, 2-y, 3-z, 4-all directions 
   EPSILON=  1.0000000 bulk dielectric constant

 Exchange correlation treatment:
   GGA     =    --    GGA type
   LEXCH   =     8    internal setting for exchange type
   VOSKOWN=      0    Vosko Wilk Nusair interpolation
   LHFCALC =     F    Hartree Fock is set to
   LHFONE  =     F    Hartree Fock one center treatment
   AEXX    =    0.0000 exact exchange contribution

 Linear response parameters
   LEPSILON=     F    determine dielectric tensor
   LRPA    =     F    only Hartree local field effects (RPA)
   LNABLA  =     F    use nabla operator in PAW spheres
   LVEL    =     F    velocity operator in full k-point grid
   LINTERFAST=   F  fast interpolation
   KINTER  =     0    interpolate to denser k-point grid
   CSHIFT  =0.1000    complex shift for real part using Kramers Kronig
   OMEGAMAX=  -1.0    maximum frequency
   DEG_THRESHOLD= 0.2000000E-02 threshold for treating states as degnerate
   RTIME   =   -0.100 relaxation time in fs
  (WPLASMAI=    0.000 imaginary part of plasma frequency in eV, 0.658/RTIME)
   DFIELD  = 0.0000000 0.0000000 0.0000000 field for delta impulse in time
 
 Orbital magnetization related:
   ORBITALMAG=     F  switch on orbital magnetization
   LCHIMAG   =     F  perturbation theory with respect to B field
   DQ        =  0.001000  dq finite difference perturbation B field
   LLRAUG    =     F  two centre corrections for induced B field



--------------------------------------------------------------------------------------------------------


 Static calculation
 charge density and potential remain constant during run
 non-spin polarized calculation
 RMM-DIIS sequential band-by-band and
  variant of blocked Davidson during initial phase
 perform sub-space diagonalisation
    before iterative eigenvector-optimisation
 no mixing
 using additional bands           55
 real space projection scheme for non local part
 use partial core corrections
 calculate Harris-corrections to forces 
   (improved forces if not selfconsistent)
 use gradient corrections 
 WARNING: stress and forces are not correct
  (second derivative of E(xc) not defined)
 use of overlap-Matrix (Vanderbilt PP)
 Fermi weights with tetrahedron method with Bloechl corrections


--------------------------------------------------------------------------------------------------------


  energy-cutoff  :      500.00
  volume of cell :     1484.46
      direct lattice vectors                 reciprocal lattice vectors
     8.791366577  0.000000000  0.000000000     0.113747958 -0.065672414  0.000000000
     4.395683289  7.613546790  0.000000000     0.000000000  0.131344829  0.000000000
     0.000000000  0.000000000 22.178121567     0.000000000  0.000000000  0.045089481

  length of vectors
     8.791366577  8.791366577 22.178121567     0.131344829  0.131344829  0.045089481


 
 k-points in units of 2pi/SCALE and weight: Automatic mesh                          
   0.00000000  0.00000000  0.00000000       0.016
   0.01421849 -0.00820905  0.00000000       0.094
   0.02843699 -0.01641810  0.00000000       0.094
   0.04265548 -0.02462716  0.00000000       0.094
   0.05687398 -0.03283621  0.00000000       0.047
   0.02843699 -0.00000000  0.00000000       0.094
   0.04265548 -0.00820905  0.00000000       0.188
   0.05687398 -0.01641810  0.00000000       0.188
   0.05687398 -0.00000000  0.00000000       0.094
  -0.04265548  0.05746336  0.00000000       0.094
 
 k-points in reciprocal lattice and weights: Automatic mesh                          
   0.00000000  0.00000000  0.00000000       0.016
   0.12500000 -0.00000000  0.00000000       0.094
   0.25000000 -0.00000000  0.00000000       0.094
   0.37500000 -0.00000000  0.00000000       0.094
   0.50000000 -0.00000000  0.00000000       0.047
   0.25000000  0.12500000  0.00000000       0.094
   0.37500000  0.12500000  0.00000000       0.188
   0.50000000  0.12500000  0.00000000       0.188
   0.50000000  0.25000000  0.00000000       0.094
  -0.37500000  0.25000000  0.00000000       0.094
 
 position of ions in fractional coordinates (direct lattice) 
   0.00000000  0.00000000  0.23817112
   0.33333331  0.00000000  0.23817112
   0.66666663  0.00000000  0.23817112
   0.00000000  0.33333334  0.23817112
   0.33333331  0.33333334  0.23817112
   0.66666669  0.33333334  0.23817112
   0.00000000  0.66666669  0.23817112
   0.33333331  0.66666669  0.23817112
   0.66666663  0.66666669  0.23817112
   0.11111110  0.11111111  0.34605705
   0.44444445  0.11111111  0.34605705
   0.77777779  0.11111111  0.34605705
   0.11111110  0.44444445  0.34605705
   0.44444442  0.44444445  0.34605705
   0.77777779  0.44444445  0.34605705
   0.11111110  0.77777779  0.34605705
   0.44444445  0.77777779  0.34605705
   0.77777779  0.77777779  0.34605705
   0.88871814  0.22256374  0.45372727
   0.22268221  0.22268223  0.45227253
   0.55463552  0.22268223  0.45227253
   0.88846211  0.55576898  0.45339844
   0.22268223  0.55463558  0.45227253
   0.55576898  0.55576898  0.45339844
   0.88871814  0.88871814  0.45372727
   0.22256371  0.88871814  0.45372727
   0.55576892  0.88846211  0.45339844
   0.00000000  0.00000000  0.56019150
   0.33308607  0.00582214  0.56079954
   0.66109174  0.00582214  0.56079954
   0.00582214  0.33308610  0.56079954
   0.66109180  0.33308610  0.56079954
   0.00582214  0.66109180  0.56079954
   0.33308607  0.66109180  0.56079954
   0.66666663  0.66666669  0.56004241
   0.33333331  0.33333334  0.55146952
   0.33333331  0.33333334  0.62372584
 
 position of ions in cartesian coordinates  (Angst):
   0.00000000  0.00000000  5.28218814
   2.93045535  0.00000000  5.28218814
   5.86091070  0.00000000  5.28218814
   1.46522781  2.53784900  5.28218814
   4.39568315  2.53784900  5.28218814
   7.32613904  2.53784900  5.28218814
   2.93045562  5.07569801  5.28218814
   5.86091096  5.07569801  5.28218814
   8.79136632  5.07569801  5.28218814
   1.46522770  0.84594965  7.67489535
   4.39568332  0.84594965  7.67489535
   7.32613893  0.84594965  7.67489535
   2.93045542  3.38379860  7.67489535
   5.86091083  3.38379860  7.67489535
   8.79136671  3.38379860  7.67489535
   4.39568328  5.92164760  7.67489535
   7.32613890  5.92164760  7.67489535
  10.25659451  5.92164760  7.67489535
   8.79136665  1.69449944 10.06281846
   2.93652150  1.69540156 10.03055511
   5.85484468  1.69540156 10.03055511
  10.25378047  4.23137311 10.05552583
   4.39568342  4.22274391 10.03055511
   7.32895321  4.23137311 10.05552583
  11.71957041  6.76629713 10.06281846
   5.86316262  6.76629713 10.06281846
   8.79136631  6.76434782 10.05552583
   0.00000000  0.00000000 12.42399517
   2.95387399  0.04432711 12.43748034
   5.83749206  0.04432711 12.43748034
   1.51532553  2.53596659 12.43748034
   7.27604131  2.53596659 12.43748034
   2.95713470  5.03325332 12.43748034
   5.83423188  5.03325332 12.43748034
   8.79136632  5.07569801 12.42068856
   4.39568315  2.53784900 12.23055812
   4.39568315  2.53784900 13.83306742
 


--------------------------------------------------------------------------------------------------------


 k-point   1 :   0.0000 0.0000 0.0000  plane waves:   37683
 k-point   2 :   0.1250-0.0000 0.0000  plane waves:   37658
 k-point   3 :   0.2500-0.0000 0.0000  plane waves:   37682
 k-point   4 :   0.3750-0.0000 0.0000  plane waves:   37686
 k-point   5 :   0.5000-0.0000 0.0000  plane waves:   37668
 k-point   6 :   0.2500 0.1250 0.0000  plane waves:   37666
 k-point   7 :   0.3750 0.1250 0.0000  plane waves:   37708
 k-point   8 :   0.5000 0.1250 0.0000  plane waves:   37726
 k-point   9 :   0.5000 0.2500 0.0000  plane waves:   37706
 k-point  10 :  -0.3750 0.2500 0.0000  plane waves:   37686

 maximum and minimum number of plane-waves per node :     37726    37658

 maximum number of plane-waves:     37726
 maximum index in each direction: 
   IXMAX=   16   IYMAX=   16   IZMAX=   40
   IXMIN=  -16   IYMIN=  -16   IZMIN=  -40


 serial   3D FFT for wavefunctions
 parallel 3D FFT for charge:
    minimum data exchange during FFTs selected (reduces bandwidth)


 total amount of memory used by VASP MPI-rank0   123322. kBytes
=======================================================================

   base      :      30000. kBytes
   nonlr-proj:      15219. kBytes
   fftplans  :       4330. kBytes
   grid      :      17879. kBytes
   one-center:        575. kBytes
   wavefun   :      55319. kBytes
 
     INWAV:  cpu time    0.0000: real time    0.0000
 initial charge density was supplied:
 number of electron     393.9999918 magnetization 
 keeping initial charge density in first step


--------------------------------------------------------------------------------------------------------


 Maximum index for non-local projection operator         2802
 Maximum index for augmentation-charges          702 (set IRDMAX)


--------------------------------------------------------------------------------------------------------


 First call to EWALD:  gamma=   0.155
 Maximum number of real-space cells 4x 4x 2
 Maximum number of reciprocal cells 2x 2x 5

    FEWALD:  cpu time    0.0014: real time    0.0014


--------------------------------------- Iteration      1(   1)  ---------------------------------------


    POTLOK:  cpu time    0.0440: real time    0.0445
    SETDIJ:  cpu time    0.0049: real time    0.0050
     EDDAV:  cpu time    7.1667: real time    7.1685
 BZINTS: Fermi energy:    9.228036;  394.000000 electrons
         Band energy: 0.120170E+04;  BLOECHL correction:   -0.010519
       DOS:  cpu time    0.0093: real time    0.0094
    --------------------------------------------
      LOOP:  cpu time    7.2249: real time    7.2274

 eigenvalue-minimisations  :  5040
 total energy-change (2. order) : 0.2380877E+04  (-0.1819505E+05)
 number of electron     393.9999918 magnetization 
 augmentation part      393.9999918 magnetization 

 Free energy of the ion-electron system (eV)
  ---------------------------------------------------
  alpha Z        PSCENC =       734.18824922
  Ewald energy   TEWEN  =     98144.04850104
  -Hartree energ DENC   =   -135635.26564326
  -exchange      EXHF   =         0.00000000
  -V(xc)+E(xc)   XCENC  =      -419.23423263
  PAW double counting   =     38881.93969753   -37298.05121779
  entropy T*S    EENTRO =         0.00000000
  eigenvalues    EBANDS =      1201.70215326
  atomic energy  EATOM  =     36771.54941066
  Solvation  Ediel_sol  =         0.00000000
  ---------------------------------------------------
  free energy    TOTEN  =      2380.87691803 eV

  energy without entropy =     2380.87691803  energy(sigma->0) =     2380.87691803


--------------------------------------------------------------------------------------------------------




--------------------------------------- Iteration      1(   2)  ---------------------------------------


     EDDAV:  cpu time    7.4621: real time    7.4651
 BZINTS: Fermi energy:    1.118660;  394.000000 electrons
         Band energy:-0.120501E+04;  BLOECHL correction:   -0.037095
       DOS:  cpu time    0.0098: real time    0.0098
    --------------------------------------------
      LOOP:  cpu time    7.4719: real time    7.4749

 eigenvalue-minimisations  :  5320
 total energy-change (2. order) :-0.2406714E+04  (-0.2281872E+04)
 number of electron     393.9999918 magnetization 
 augmentation part      393.9999918 magnetization 

 Free energy of the ion-electron system (eV)
  ---------------------------------------------------
  alpha Z        PSCENC =       734.18824922
  Ewald energy   TEWEN  =     98144.04850104
  -Hartree energ DENC   =   -135635.26564326
  -exchange      EXHF   =         0.00000000
  -V(xc)+E(xc)   XCENC  =      -419.23423263
  PAW double counting   =     38881.93969753   -37298.05121779
  entropy T*S    EENTRO =         0.00000000
  eigenvalues    EBANDS =     -1205.01141171
  atomic energy  EATOM  =     36771.54941066
  Solvation  Ediel_sol  =         0.00000000
  ---------------------------------------------------
  free energy    TOTEN  =       -25.83664695 eV

  energy without entropy =      -25.83664695  energy(sigma->0) =      -25.83664695


--------------------------------------------------------------------------------------------------------




--------------------------------------- Iteration      1(   3)  ---------------------------------------


     EDDAV:  cpu time    7.9172: real time    7.9176
 BZINTS: Fermi energy:    0.746742;  394.000000 electrons
         Band energy:-0.127779E+04;  BLOECHL correction:   -0.043998
       DOS:  cpu time    0.0102: real time    0.0102
    --------------------------------------------
      LOOP:  cpu time    7.9274: real time    7.9278

 eigenvalue-minimisations  :  5712
 total energy-change (2. order) :-0.7277466E+02  (-0.7154261E+02)
 number of electron     393.9999918 magnetization 
 augmentation part      393.9999918 magnetization 

 Free energy of the ion-electron system (eV)
  ---------------------------------------------------
  alpha Z        PSCENC =       734.18824922
  Ewald energy   TEWEN  =     98144.04850104
  -Hartree energ DENC   =   -135635.26564326
  -exchange      EXHF   =         0.00000000
  -V(xc)+E(xc)   XCENC  =      -419.23423263
  PAW double counting   =     38881.93969753   -37298.05121779
  entropy T*S    EENTRO =         0.00000000
  eigenvalues    EBANDS =     -1277.78607019
  atomic energy  EATOM  =     36771.54941066
  Solvation  Ediel_sol  =         0.00000000
  ---------------------------------------------------
  free energy    TOTEN  =       -98.61130542 eV

  energy without entropy =      -98.61130542  energy(sigma->0) =      -98.61130542


--------------------------------------------------------------------------------------------------------




--------------------------------------- Iteration      1(   4)  ---------------------------------------


     EDDAV:  cpu time    8.2962: real time    8.2965
 BZINTS: Fermi energy:    0.741701;  394.000000 electrons
         Band energy:-0.127862E+04;  BLOECHL correction:   -0.043643
       DOS:  cpu time    0.0102: real time    0.0102
    --------------------------------------------
      LOOP:  cpu time    8.3063: real time    8.3067

 eigenvalue-minimisations  :  6048
 total energy-change (2. order) :-0.8303012E+00  (-0.8300817E+00)
 number of electron     393.9999918 magnetization 
 augmentation part      393.9999918 magnetization 

 Free energy of the ion-electron system (eV)
  ---------------------------------------------------
  alpha Z        PSCENC =       734.18824922
  Ewald energy   TEWEN  =     98144.04850104
  -Hartree energ DENC   =   -135635.26564326
  -exchange      EXHF   =         0.00000000
  -V(xc)+E(xc)   XCENC  =      -419.23423263
  PAW double counting   =     38881.93969753   -37298.05121779
  entropy T*S    EENTRO =         0.00000000
  eigenvalues    EBANDS =     -1278.61637138
  atomic energy  EATOM  =     36771.54941066
  Solvation  Ediel_sol  =         0.00000000
  ---------------------------------------------------
  free energy    TOTEN  =       -99.44160661 eV

  energy without entropy =      -99.44160661  energy(sigma->0) =      -99.44160661


--------------------------------------------------------------------------------------------------------




--------------------------------------- Iteration      1(   5)  ---------------------------------------


     EDDAV:  cpu time    8.6319: real time    8.6323
 BZINTS: Fermi energy:    0.741554;  394.000000 electrons
         Band energy:-0.127863E+04;  BLOECHL correction:   -0.043625
       DOS:  cpu time    0.0100: real time    0.0100
    --------------------------------------------
      LOOP:  cpu time    8.6419: real time    8.6423

 eigenvalue-minimisations  :  6356
 total energy-change (2. order) :-0.1787457E-01  (-0.1788790E-01)
 number of electron     393.9999918 magnetization 
 augmentation part      393.9999918 magnetization 

 Free energy of the ion-electron system (eV)
  ---------------------------------------------------
  alpha Z        PSCENC =       734.18824922
  Ewald energy   TEWEN  =     98144.04850104
  -Hartree energ DENC   =   -135635.26564326
  -exchange      EXHF   =         0.00000000
  -V(xc)+E(xc)   XCENC  =      -419.23423263
  PAW double counting   =     38881.93969753   -37298.05121779
  entropy T*S    EENTRO =         0.00000000
  eigenvalues    EBANDS =     -1278.63424595
  atomic energy  EATOM  =     36771.54941066
  Solvation  Ediel_sol  =         0.00000000
  ---------------------------------------------------
  free energy    TOTEN  =       -99.45948119 eV

  energy without entropy =      -99.45948119  energy(sigma->0) =      -99.45948119


--------------------------------------------------------------------------------------------------------




--------------------------------------- Iteration      1(   6)  ---------------------------------------


    EDDIAG:  cpu time    1.4004: real time    1.4006
  RMM-DIIS:  cpu time    3.9088: real time    3.9089
    ORTHCH:  cpu time    0.2591: real time    0.2591
 BZINTS: Fermi energy:    0.741553;  394.000000 electrons
         Band energy:-0.127863E+04;  BLOECHL correction:   -0.043625
       DOS:  cpu time    0.0101: real time    0.0101
    --------------------------------------------
      LOOP:  cpu time    5.5784: real time    5.5787

 eigenvalue-minimisations  :  4975
 total energy-change (2. order) :-0.3862472E-03  (-0.3862720E-03)
 number of electron     393.9999918 magnetization 
 augmentation part      393.9999918 magnetization 

 Free energy of the ion-electron system (eV)
  ---------------------------------------------------
  alpha Z        PSCENC =       734.18824922
  Ewald energy   TEWEN  =     98144.04850104
  -Hartree energ DENC   =   -135635.26564326
  -exchange      EXHF   =         0.00000000
  -V(xc)+E(xc)   XCENC  =      -419.23423263
  PAW double counting   =     38881.93969753   -37298.05121779
  entropy T*S    EENTRO =         0.00000000
  eigenvalues    EBANDS =     -1278.63463220
  atomic energy  EATOM  =     36771.54941066
  Solvation  Ediel_sol  =         0.00000000
  ---------------------------------------------------
  free energy    TOTEN  =       -99.45986743 eV

  energy without entropy =      -99.45986743  energy(sigma->0) =      -99.45986743


--------------------------------------------------------------------------------------------------------




--------------------------------------- Iteration      1(   7)  ---------------------------------------


    EDDIAG:  cpu time    1.4015: real time    1.4017
  RMM-DIIS:  cpu time    5.3561: real time    5.3562
    ORTHCH:  cpu time    0.2595: real time    0.2595
 BZINTS: Fermi energy:    0.741553;  394.000000 electrons
         Band energy:-0.127863E+04;  BLOECHL correction:   -0.043625
       DOS:  cpu time    0.0102: real time    0.0101
    --------------------------------------------
      LOOP:  cpu time    7.0273: real time    7.0275

 eigenvalue-minimisations  :  6797
 total energy-change (2. order) :-0.1255766E-03  (-0.1253996E-03)
 number of electron     393.9999918 magnetization 
 augmentation part      393.9999918 magnetization 

 Free energy of the ion-electron system (eV)
  ---------------------------------------------------
  alpha Z        PSCENC =       734.18824922
  Ewald energy   TEWEN  =     98144.04850104
  -Hartree energ DENC   =   -135635.26564326
  -exchange      EXHF   =         0.00000000
  -V(xc)+E(xc)   XCENC  =      -419.23423263
  PAW double counting   =     38881.93969753   -37298.05121779
  entropy T*S    EENTRO =         0.00000000
  eigenvalues    EBANDS =     -1278.63475778
  atomic energy  EATOM  =     36771.54941066
  Solvation  Ediel_sol  =         0.00000000
  ---------------------------------------------------
  free energy    TOTEN  =       -99.45999301 eV

  energy without entropy =      -99.45999301  energy(sigma->0) =      -99.45999301


--------------------------------------------------------------------------------------------------------




--------------------------------------- Iteration      1(   8)  ---------------------------------------


    EDDIAG:  cpu time    1.4037: real time    1.4038
  RMM-DIIS:  cpu time    3.5333: real time    3.5333
    ORTHCH:  cpu time    0.2593: real time    0.2593
 BZINTS: Fermi energy:    0.741553;  394.000000 electrons
         Band energy:-0.127863E+04;  BLOECHL correction:   -0.043625
       DOS:  cpu time    0.0097: real time    0.0097
    --------------------------------------------
      LOOP:  cpu time    5.2060: real time    5.2061

 eigenvalue-minimisations  :  3828
 total energy-change (2. order) :-0.5717215E-05  (-0.5608813E-05)
 number of electron     393.9999918 magnetization 
 augmentation part      393.9999918 magnetization 

 Free energy of the ion-electron system (eV)
  ---------------------------------------------------
  alpha Z        PSCENC =       734.18824922
  Ewald energy   TEWEN  =     98144.04850104
  -Hartree energ DENC   =   -135635.26564326
  -exchange      EXHF   =         0.00000000
  -V(xc)+E(xc)   XCENC  =      -419.23423263
  PAW double counting   =     38881.93969753   -37298.05121779
  entropy T*S    EENTRO =         0.00000000
  eigenvalues    EBANDS =     -1278.63476349
  atomic energy  EATOM  =     36771.54941066
  Solvation  Ediel_sol  =         0.00000000
  ---------------------------------------------------
  free energy    TOTEN  =       -99.45999873 eV

  energy without entropy =      -99.45999873  energy(sigma->0) =      -99.45999873


--------------------------------------------------------------------------------------------------------




 average (electrostatic) potential at core
  the test charge radii are     1.1249  1.2511  0.5201
  (the norm of the test charge is              1.0000)
       1 -78.1341       2 -78.1181       3 -78.1180       4 -78.1181       5 -78.1077
       6 -78.1178       7 -78.1180       8 -78.1178       9 -78.1406      10 -78.3553
      11 -78.3352      12 -78.3551      13 -78.3352      14 -78.3349      15 -78.3477
      16 -78.3551      17 -78.3477      18 -78.3478      19 -78.3340      20 -78.3186
      21 -78.3185      22 -78.3291      23 -78.3185      24 -78.3289      25 -78.3340
      26 -78.3340      27 -78.3291      28 -78.0835      29 -77.9793      30 -77.9793
      31 -77.9793      32 -77.9791      33 -77.9793      34 -77.9791      35 -78.0841
      36 -66.4341      37 -34.9044
 
 
 
 E-fermi :   0.7416     XC(G=0):  -5.9054     alpha+bet : -5.6109

 Fermi energy:         0.7415525972

 k-point     1 :       0.0000    0.0000    0.0000
  band No.  band energies     occupation 
      1      -6.3389      2.00000
      2      -5.4666      2.00000
      3      -5.1835      2.00000
      4      -5.0735      2.00000
      5      -5.0641      2.00000
      6      -5.0608      2.00000
      7      -5.0608      2.00000
      8      -5.0553      2.00000
      9      -5.0553      2.00000
     10      -5.0297      2.00000
     11      -5.0212      2.00000
     12      -5.0144      2.00000
     13      -5.0144      2.00000
     14      -5.0082      2.00000
     15      -5.0082      2.00000
     16      -4.9588      2.00000
     17      -4.8532      2.00000
     18      -4.8456      2.00000
     19      -4.8445      2.00000
     20      -4.8445      2.00000
     21      -4.8405      2.00000
     22      -4.8405      2.00000
     23      -4.6580      2.00000
     24      -4.6568      2.00000
     25      -4.6568      2.00000
     26      -4.6453      2.00000
     27      -4.6300      2.00000
     28      -4.6284      2.00000
     29      -4.6284      2.00000
     30      -4.6264      2.00000
     31      -4.5979      2.00000
     32      -4.5979      2.00000
     33      -4.5939      2.00000
     34      -4.5939      2.00000
     35      -4.4776      2.00000
     36      -4.4723      2.00000
     37      -4.4722      2.00000
     38      -4.4350      2.00000
     39      -4.3611      2.00000
     40      -4.3611      2.00000
     41      -4.2710      2.00000
     42      -4.2709      2.00000
     43      -4.2551      2.00000
     44      -4.2539      2.00000
     45      -4.2539      2.00000
     46      -4.2288      2.00000
     47      -4.2287      2.00000
     48      -4.2269      2.00000
     49      -4.1829      2.00000
     50      -4.1828      2.00000
     51      -4.1182      2.00000
     52      -4.1101      2.00000
     53      -4.0963      2.00000
     54      -4.0587      2.00000
     55      -3.8773      2.00000
     56      -3.8670      2.00000
     57      -3.8665      2.00000
     58      -3.8665      2.00000
     59      -3.8598      2.00000
     60      -3.8598      2.00000
     61      -3.8498      2.00000
     62      -3.8378      2.00000
     63      -3.8378      2.00000
     64      -3.8079      2.00000
     65      -3.8079      2.00000
     66      -3.7143      2.00000
     67      -3.7142      2.00000
     68      -3.6869      2.00000
     69      -3.6833      2.00000
     70      -3.6832      2.00000
     71      -3.6709      2.00000
     72      -3.6617      2.00000
     73      -3.6616      2.00000
     74      -3.6413      2.00000
     75      -3.6413      2.00000
     76      -3.6321      2.00000
     77      -3.6258      2.00000
     78      -3.6258      2.00000
     79      -3.6216      2.00000
     80      -3.6002      2.00000
     81      -3.5885      2.00000
     82      -3.5884      2.00000
     83      -3.5688      2.00000
     84      -3.5688      2.00000
     85      -3.4879      2.00000
     86      -3.4714      2.00000
     87      -3.4714      2.00000
     88      -3.4405      2.00000
     89      -3.4405      2.00000
     90      -3.4254      2.00000
     91      -3.4254      2.00000
     92      -3.3943      2.00000
     93      -3.3943      2.00000
     94      -3.3922      2.00000
     95      -3.3700      2.00000
     96      -3.3700      2.00000
     97      -3.2583      2.00000
     98      -3.2583      2.00000
     99      -3.1550      2.00000
    100      -3.1550      2.00000
    101      -3.1360      2.00000
    102      -3.1275      2.00000
    103      -3.1186      2.00000
    104      -3.1176      2.00000
    105      -3.1176      2.00000
    106      -3.0906      2.00000
    107      -3.0906      2.00000
    108      -3.0594      2.00000
    109      -3.0580      2.00000
    110      -3.0580      2.00000
    111      -3.0288      2.00000
    112      -3.0245      2.00000
    113      -2.9668      2.00000
    114      -2.9668      2.00000
    115      -2.8969      2.00000
    116      -2.8969      2.00000
    117      -2.8808      2.00000
    118      -2.8808      2.00000
    119      -2.8032      2.00000
    120      -2.8032      2.00000
    121      -2.7987      2.00000
    122      -2.7858      2.00000
    123      -2.7858      2.00000
    124      -2.7704      2.00000
    125      -2.7704      2.00000
    126      -2.7677      2.00000
    127      -2.7565      2.00000
    128      -2.7565      2.00000
    129      -2.7519      2.00000
    130      -2.7404      2.00000
    131      -2.7404      2.00000
    132      -2.7399      2.00000
    133      -2.6309      2.00000
    134      -2.6309      2.00000
    135      -2.5739      2.00000
    136      -2.5599      2.00000
    137      -2.5598      2.00000
    138      -2.5539      2.00000
    139      -2.5528      2.00000
    140      -2.5494      2.00000
    141      -2.5493      2.00000
    142      -2.5431      2.00000
    143      -2.5388      2.00000
    144      -2.5388      2.00000
    145      -2.5260      2.00000
    146      -2.5052      2.00000
    147      -2.5052      2.00000
    148      -2.4633      2.00000
    149      -2.4579      2.00000
    150      -2.4579      2.00000
    151      -2.4525      2.00000
    152      -2.4467      2.00000
    153      -2.4413      2.00000
    154      -2.4412      2.00000
    155      -2.4198      2.00000
    156      -2.3976      2.00000
    157      -2.3976      2.00000
    158      -2.3661      2.00000
    159      -2.3661      2.00000
    160      -2.3639      2.00000
    161      -2.3576      2.00000
    162      -2.3573      2.00000
    163      -2.3573      2.00000
    164      -2.3186      2.00000
    165      -2.3186      2.00000
    166      -2.2959      2.00000
    167      -2.2959      2.00000
    168      -2.2883      2.00000
    169      -2.2645      2.00000
    170      -2.2529      2.00000
    171      -2.2400      2.00000
    172      -2.2377      2.00000
    173      -2.2377      2.00000
    174      -2.1943      2.00000
    175      -2.1943      2.00000
    176      -2.1619      2.00000
    177      -2.1618      2.00000
    178      -2.1270      2.00000
    179      -2.1169      2.00000
    180      -2.0697      2.00000
    181      -2.0528      2.00000
    182      -2.0527      2.00000
    183      -2.0315      2.00000
    184      -2.0315      2.00000
    185      -1.8306      2.00000
    186      -1.3105      2.00000
    187      -1.3104      2.00000
    188      -1.2852      2.00000
    189      -1.2351      2.00000
    190      -1.2350      2.00000
    191      -0.9185      2.00000
    192      -0.0693      2.00000
    193       0.1710      2.00000
    194       0.1710      2.00000
    195       0.2559      2.00000
    196       0.3042      2.00000
    197       0.3043      2.00000
    198       0.4565      2.00000
    199       0.6327      2.00000
    200       0.6327      2.06038
    201       0.6862      0.42133
    202       0.6862      0.23470
    203       1.2042      0.00000
    204       2.2267      0.00000
    205       2.6676      0.00000
    206       2.7247      0.00000
    207       2.7247      0.00000
    208       2.9388      0.00000
    209       2.9388      0.00000
    210       4.0432      0.00000
    211       4.1116      0.00000
    212       4.2323      0.00000
    213       4.2323      0.00000
    214       4.2744      0.00000
    215       4.2744      0.00000
    216       4.6463      0.00000
    217       4.9845      0.00000
    218       5.0404      0.00000
    219       5.0478      0.00000
    220       5.0478      0.00000
    221       5.0942      0.00000
    222       5.0942      0.00000
    223       5.1513      0.00000
    224       5.1513      0.00000
    225       5.1674      0.00000
    226       5.2854      0.00000
    227       5.2854      0.00000
    228       5.3393      0.00000
    229       5.4836      0.00000
    230       6.3326      0.00000
    231       6.5283      0.00000
    232       6.6468      0.00000
    233       6.6468      0.00000
    234       6.7107      0.00000
    235       6.8368      0.00000
    236       6.8368      0.00000
    237       6.8567      0.00000
    238       7.0350      0.00000
    239       7.0515      0.00000
    240       7.0515      0.00000
    241       7.0749      0.00000
    242       7.0749      0.00000
    243       7.0808      0.00000
    244       7.2831      0.00000
    245       7.3592      0.00000
    246       7.3675      0.00000
    247       7.3688      0.00000
    248       7.4096      0.00000
    249       7.4111      0.00000
    250       7.4883      0.00000
    251       7.7721      0.00000
    252       7.8049      0.00000

 k-point     2 :       0.1250   -0.0000    0.0000
  band No.  band energies     occupation 
      1      -6.2929      2.00000
      2      -5.4264      2.00000
      3      -5.1504      2.00000
      4      -5.1207      2.00000
      5      -5.0883      2.00000
      6      -5.0644      2.00000
      7      -5.0587      2.00000
      8      -5.0564      2.00000
      9      -5.0375      2.00000
     10      -5.0270      2.00000
     11      -5.0256      2.00000
     12      -5.0189      2.00000
     13      -4.9598      2.00000
     14      -4.9474      2.00000
     15      -4.9422      2.00000
     16      -4.9318      2.00000
     17      -4.9201      2.00000
     18      -4.8930      2.00000
     19      -4.8907      2.00000
     20      -4.7838      2.00000
     21      -4.7784      2.00000
     22      -4.7320      2.00000
     23      -4.7236      2.00000
     24      -4.7163      2.00000
     25      -4.7153      2.00000
     26      -4.6627      2.00000
     27      -4.6608      2.00000
     28      -4.6160      2.00000
     29      -4.6142      2.00000
     30      -4.5828      2.00000
     31      -4.5773      2.00000
     32      -4.5642      2.00000
     33      -4.5202      2.00000
     34      -4.5111      2.00000
     35      -4.5029      2.00000
     36      -4.4643      2.00000
     37      -4.4571      2.00000
     38      -4.3855      2.00000
     39      -4.3430      2.00000
     40      -4.3420      2.00000
     41      -4.3354      2.00000
     42      -4.3287      2.00000
     43      -4.3020      2.00000
     44      -4.2741      2.00000
     45      -4.2720      2.00000
     46      -4.2589      2.00000
     47      -4.2485      2.00000
     48      -4.2002      2.00000
     49      -4.1784      2.00000
     50      -4.1594      2.00000
     51      -4.1043      2.00000
     52      -4.0783      2.00000
     53      -4.0581      2.00000
     54      -4.0571      2.00000
     55      -3.8984      2.00000
     56      -3.8944      2.00000
     57      -3.8857      2.00000
     58      -3.8751      2.00000
     59      -3.8713      2.00000
     60      -3.8636      2.00000
     61      -3.8533      2.00000
     62      -3.8386      2.00000
     63      -3.8318      2.00000
     64      -3.8260      2.00000
     65      -3.7906      2.00000
     66      -3.7381      2.00000
     67      -3.7220      2.00000
     68      -3.7181      2.00000
     69      -3.7079      2.00000
     70      -3.7076      2.00000
     71      -3.6787      2.00000
     72      -3.6705      2.00000
     73      -3.6591      2.00000
     74      -3.6550      2.00000
     75      -3.6498      2.00000
     76      -3.6354      2.00000
     77      -3.6303      2.00000
     78      -3.6188      2.00000
     79      -3.6132      2.00000
     80      -3.6079      2.00000
     81      -3.5893      2.00000
     82      -3.5866      2.00000
     83      -3.5816      2.00000
     84      -3.5511      2.00000
     85      -3.5490      2.00000
     86      -3.5425      2.00000
     87      -3.5302      2.00000
     88      -3.4940      2.00000
     89      -3.4920      2.00000
     90      -3.4156      2.00000
     91      -3.4046      2.00000
     92      -3.3851      2.00000
     93      -3.3690      2.00000
     94      -3.3029      2.00000
     95      -3.2958      2.00000
     96      -3.2894      2.00000
     97      -3.2652      2.00000
     98      -3.2435      2.00000
     99      -3.2150      2.00000
    100      -3.1989      2.00000
    101      -3.1817      2.00000
    102      -3.1750      2.00000
    103      -3.1518      2.00000
    104      -3.1478      2.00000
    105      -3.1257      2.00000
    106      -3.0968      2.00000
    107      -3.0946      2.00000
    108      -3.0657      2.00000
    109      -3.0577      2.00000
    110      -3.0456      2.00000
    111      -3.0191      2.00000
    112      -3.0062      2.00000
    113      -2.9685      2.00000
    114      -2.9682      2.00000
    115      -2.9439      2.00000
    116      -2.9263      2.00000
    117      -2.9225      2.00000
    118      -2.8999      2.00000
    119      -2.8865      2.00000
    120      -2.8791      2.00000
    121      -2.8575      2.00000
    122      -2.8568      2.00000
    123      -2.8355      2.00000
    124      -2.8209      2.00000
    125      -2.8206      2.00000
    126      -2.7755      2.00000
    127      -2.7706      2.00000
    128      -2.7590      2.00000
    129      -2.7507      2.00000
    130      -2.7289      2.00000
    131      -2.7281      2.00000
    132      -2.7165      2.00000
    133      -2.7147      2.00000
    134      -2.6916      2.00000
    135      -2.6832      2.00000
    136      -2.6559      2.00000
    137      -2.6361      2.00000
    138      -2.6304      2.00000
    139      -2.6090      2.00000
    140      -2.5846      2.00000
    141      -2.5644      2.00000
    142      -2.5611      2.00000
    143      -2.5396      2.00000
    144      -2.5295      2.00000
    145      -2.5158      2.00000
    146      -2.5030      2.00000
    147      -2.5029      2.00000
    148      -2.4802      2.00000
    149      -2.4760      2.00000
    150      -2.4732      2.00000
    151      -2.4599      2.00000
    152      -2.4489      2.00000
    153      -2.4344      2.00000
    154      -2.4252      2.00000
    155      -2.4142      2.00000
    156      -2.4133      2.00000
    157      -2.4066      2.00000
    158      -2.3910      2.00000
    159      -2.3848      2.00000
    160      -2.3833      2.00000
    161      -2.3668      2.00000
    162      -2.3514      2.00000
    163      -2.3347      2.00000
    164      -2.3240      2.00000
    165      -2.3098      2.00000
    166      -2.3091      2.00000
    167      -2.2834      2.00000
    168      -2.2748      2.00000
    169      -2.2606      2.00000
    170      -2.2569      2.00000
    171      -2.2395      2.00000
    172      -2.2170      2.00000
    173      -2.2082      2.00000
    174      -2.1945      2.00000
    175      -2.1851      2.00000
    176      -2.1719      2.00000
    177      -2.1682      2.00000
    178      -2.1517      2.00000
    179      -2.1300      2.00000
    180      -2.1188      2.00000
    181      -2.0992      2.00000
    182      -2.0049      2.00000
    183      -1.7793      2.00000
    184      -1.6077      2.00000
    185      -1.5848      2.00000
    186      -1.4807      2.00000
    187      -1.4152      2.00000
    188      -1.2517      2.00000
    189      -0.8837      2.00000
    190      -0.7469      2.00000
    191      -0.4991      2.00000
    192      -0.1648      2.00000
    193      -0.0183      2.00000
    194       0.0812      2.00000
    195       0.1141      2.00000
    196       0.3083      2.00000
    197       0.3564      2.00000
    198       0.5280      2.00000
    199       0.5476      2.00000
    200       0.8023      0.06844
    201       0.9701     -0.03216
    202       1.1243     -0.02314
    203       1.3040      0.00000
    204       2.0919      0.00000
    205       2.3215      0.00000
    206       2.5978      0.00000
    207       2.9640      0.00000
    208       3.1466      0.00000
    209       3.1891      0.00000
    210       3.1940      0.00000
    211       3.2730      0.00000
    212       4.0906      0.00000
    213       4.0935      0.00000
    214       4.3266      0.00000
    215       4.3341      0.00000
    216       4.3917      0.00000
    217       4.6389      0.00000
    218       4.8485      0.00000
    219       5.0178      0.00000
    220       5.1191      0.00000
    221       5.1494      0.00000
    222       5.2071      0.00000
    223       5.2348      0.00000
    224       5.2541      0.00000
    225       5.3056      0.00000
    226       5.4714      0.00000
    227       5.5460      0.00000
    228       5.7521      0.00000
    229       5.7933      0.00000
    230       6.1148      0.00000
    231       6.3793      0.00000
    232       6.4205      0.00000
    233       6.5439      0.00000
    234       6.5690      0.00000
    235       6.6439      0.00000
    236       6.6964      0.00000
    237       6.7072      0.00000
    238       6.7535      0.00000
    239       6.8241      0.00000
    240       6.8962      0.00000
    241       6.9264      0.00000
    242       7.0331      0.00000
    243       7.1262      0.00000
    244       7.1555      0.00000
[...]
  0.000   0.000   0.000   0.000   0.000   0.000   0.000   0.000   0.000   0.000   0.000   0.000   0.000   0.000   0.000   0.000
  0.000   0.000   0.000   0.000   0.000   0.000   0.000   0.000   0.000   0.000   0.000   0.000   0.000   0.000   0.000   0.000
  0.000   0.000   0.000   0.000   0.000   0.000   0.000   0.000   0.000   0.000   0.000   0.000   0.000   0.000   0.000   0.000
  0.000   0.000   0.000   0.000   0.000   0.000   0.000   0.000   0.000   0.000   0.000   0.000   0.000   0.000   0.000   0.000
  0.000   0.000   0.000   0.000   0.000   0.000   0.000   0.000   0.000   0.000   0.000   0.000   0.000   0.000   0.000   0.000
  0.000   0.000   0.000   0.000   0.000   0.000   0.000   0.000   0.000   0.000   1.000   0.000   0.000   0.000   0.000   0.000
  0.000   0.000   0.000   0.000   0.000   0.000   0.000   0.000   0.000   0.000   0.000   0.000   0.000   0.000   0.000   0.000
  0.000   0.000   0.000   0.000   0.000   0.000   0.000   0.000   0.000   0.000   0.000   0.000   0.000   0.000   0.000   0.000
  0.000   0.000   0.000   0.000   0.000   0.000   0.000   0.000   0.000   0.000   0.000   0.000   0.000   0.000   0.000   0.000
  0.000   0.000   0.000   0.000   0.000   0.000   0.000   0.000   0.000   0.000   0.000   0.000   0.000   0.000   0.000   0.000
  0.000   0.000   0.000   0.000   0.000   0.000   0.000   0.000   0.000   0.000   0.000   0.000   0.000   0.000   0.000   0.000
  0.000   0.000   0.000   0.000   0.000   0.000   0.000   0.000   0.000   0.000   0.000   0.000   0.000   0.000   0.000   0.000
  0.000   0.000   0.000   0.000   0.000   0.000   0.000   0.000   0.000   0.000   0.000   0.000   0.000   0.000   0.000   0.000


------------------------ aborting loop because EDIFF is reached ----------------------------------------





 total charge

# of ion       s       p       d       tot
------------------------------------------
    1        0.418   0.201   9.180   9.798
    2        0.416   0.203   9.177   9.797
    3        0.416   0.203   9.177   9.797
    4        0.416   0.203   9.177   9.797
    5        0.419   0.202   9.176   9.796
    6        0.416   0.203   9.177   9.797
    7        0.416   0.203   9.177   9.797
    8        0.416   0.203   9.177   9.797
    9        0.414   0.201   9.180   9.795
   10        0.408   0.269   9.163   9.840
   11        0.409   0.268   9.168   9.844
   12        0.408   0.269   9.163   9.840
   13        0.409   0.268   9.168   9.844
   14        0.409   0.268   9.168   9.844
   15        0.405   0.269   9.165   9.838
   16        0.408   0.269   9.163   9.840
   17        0.405   0.269   9.165   9.838
   18        0.405   0.269   9.165   9.838
   19        0.401   0.266   9.167   9.833
   20        0.431   0.288   9.152   9.870
   21        0.431   0.288   9.152   9.870
   22        0.395   0.272   9.168   9.835
   23        0.431   0.288   9.152   9.870
   24        0.395   0.272   9.168   9.835
   25        0.401   0.266   9.167   9.833
   26        0.401   0.266   9.167   9.833
   27        0.395   0.272   9.168   9.835
   28        0.411   0.196   9.182   9.789
   29        0.418   0.209   9.169   9.796
   30        0.418   0.209   9.169   9.796
   31        0.418   0.209   9.169   9.796
   32        0.418   0.209   9.169   9.796
   33        0.418   0.209   9.169   9.796
   34        0.418   0.209   9.169   9.796
   35        0.402   0.199   9.183   9.784
   36        0.507   0.421   6.656   7.583
   37        0.516   0.018   0.000   0.534
--------------------------------------------------
tot         15.434   8.802 327.585 351.821
 
    CHARGE:  cpu time    0.3343: real time    0.3344
    FORLOC:  cpu time    0.0100: real time    0.0100
    FORNL :  cpu time    1.4878: real time    1.4881
    STRESS:  cpu time    4.4336: real time    4.4339
    FORCOR:  cpu time    0.0417: real time    0.0417
    FORHAR:  cpu time    0.0164: real time    0.0163
    OFIELD:  cpu time    0.0002: real time    0.0002

  FORCE on cell =-STRESS in cart. coord.  units (eV):
  Direction    XX          YY          ZZ          XY          YZ          ZX
  --------------------------------------------------------------------------------------
  Alpha Z   734.18825   734.18825   734.18825
  Ewald  120815.21489120815.21486************     0.00000    -0.00000    -0.00001
  Hartree130899.31644130899.31643************     0.00000    -0.00000    -0.00000
  E(xc)   -2069.33401 -2069.33399 -2075.44177    -0.00001     0.00000     0.00000
  Local  ************************263139.89556     0.00023    -0.00003    -0.00006
  n-local  -330.69676  -307.43127  -316.21665    12.53864    -0.50308     0.72232
  augment  3265.81670  3265.81687  3275.97709    -0.00015     0.00000     0.00003
  Kinetic  4864.23757  4872.89914  4896.72666     5.99175     0.73951     0.04631
  Fock        0.00000     0.00000     0.00000     0.00000     0.00000     0.00000
  -------------------------------------------------------------------------------------
  Total      -9.42170    -9.42170     0.47182    -0.00000    -0.00000    -0.00000
  in kB     -10.16884   -10.16884     0.50923    -0.00000    -0.00000    -0.00000
  external pressure =       -6.61 kB  Pullay stress =        0.00 kB


 VOLUME and BASIS-vectors are now :
 -----------------------------------------------------------------------------
  energy-cutoff  :      500.00
  volume of cell :     1484.46
      direct lattice vectors                 reciprocal lattice vectors
     8.791366577  0.000000000  0.000000000     0.113747958 -0.065672414  0.000000000
     4.395683289  7.613546790  0.000000000     0.000000000  0.131344829  0.000000000
     0.000000000  0.000000000 22.178121567     0.000000000  0.000000000  0.045089481

  length of vectors
     8.791366577  8.791366577 22.178121567     0.131344829  0.131344829  0.045089481


 FORCES acting on ions
    electron-ion (+dipol)            ewald-force                    non-local-force                 convergence-correction
 -----------------------------------------------------------------------------------------------
   0.460E-04 -.282E-04 0.250E+04   -.954E-04 0.593E-04 -.249E+04   -.166E-17 0.778E-18 -.202E+01   -.106E-03 -.168E-03 0.637E-01
   0.198E+00 0.331E+00 0.250E+04   -.323E+00 -.365E+00 -.249E+04   0.685E-01 0.955E-01 -.155E+01   0.612E-01 -.478E-01 0.111E+00
   -.198E+00 0.331E+00 0.250E+04   0.323E+00 -.365E+00 -.249E+04   -.685E-01 0.955E-01 -.155E+01   -.618E-01 -.459E-01 0.112E+00
   0.385E+00 0.602E-02 0.250E+04   -.477E+00 -.973E-01 -.249E+04   0.117E+00 0.116E-01 -.155E+01   -.106E-01 0.771E-01 0.111E+00
   -.798E-05 -.201E-04 0.250E+04   0.981E-04 -.198E-05 -.250E+04   -.354E-17 -.161E-17 -.124E+01   0.624E-02 0.381E-02 0.294E+00
   -.385E+00 0.606E-02 0.250E+04   0.477E+00 -.973E-01 -.249E+04   -.117E+00 0.116E-01 -.155E+01   0.917E-02 0.780E-01 0.112E+00
   0.187E+00 -.337E+00 0.250E+04   -.154E+00 0.462E+00 -.249E+04   0.484E-01 -.107E+00 -.155E+01   -.701E-01 -.300E-01 0.112E+00
   -.187E+00 -.337E+00 0.250E+04   0.154E+00 0.462E+00 -.249E+04   -.484E-01 -.107E+00 -.155E+01   0.718E-01 -.310E-01 0.112E+00
   0.363E-04 -.131E-04 0.250E+04   0.792E-04 -.643E-04 -.249E+04   -.553E-18 -.380E-17 -.188E+01   -.666E-02 -.344E-02 0.431E-01
   0.373E+01 0.215E+01 0.824E+03   -.343E+01 -.198E+01 -.824E+03   -.332E+00 -.192E+00 -.754E+00   0.328E-01 0.189E-01 0.332E+00
   -.287E-04 0.371E+01 0.829E+03   0.411E-04 -.402E+01 -.829E+03   0.133E-11 0.202E+00 -.319E+00   0.628E-02 0.738E-01 0.270E+00
   -.373E+01 0.215E+01 0.824E+03   0.343E+01 -.198E+01 -.824E+03   0.332E+00 -.192E+00 -.754E+00   -.343E-01 0.200E-01 0.332E+00
   0.321E+01 -.185E+01 0.829E+03   -.348E+01 0.201E+01 -.829E+03   0.175E+00 -.101E+00 -.319E+00   0.669E-01 -.314E-01 0.270E+00
   -.321E+01 -.185E+01 0.829E+03   0.348E+01 0.201E+01 -.829E+03   -.175E+00 -.101E+00 -.319E+00   -.563E-01 -.322E-01 0.269E+00
   0.160E-04 0.681E+00 0.825E+03   -.108E-03 -.887E+00 -.824E+03   0.849E-12 0.129E+00 -.781E+00   -.164E-02 0.505E-01 0.266E+00
   -.809E-05 -.430E+01 0.824E+03   0.206E-04 0.397E+01 -.824E+03   0.252E-11 0.384E+00 -.754E+00   0.120E-03 -.398E-01 0.332E+00
   0.590E+00 -.341E+00 0.825E+03   -.768E+00 0.443E+00 -.824E+03   0.112E+00 -.646E-01 -.781E+00   0.429E-01 -.267E-01 0.266E+00
   -.590E+00 -.341E+00 0.825E+03   0.768E+00 0.443E+00 -.824E+03   -.112E+00 -.646E-01 -.781E+00   -.429E-01 -.248E-01 0.267E+00
   0.406E-04 -.689E+00 -.871E+03   -.127E-03 0.575E+00 0.870E+03   0.723E-12 0.110E+00 0.657E+00   -.384E-03 0.533E-02 0.321E+00
   0.375E+01 0.216E+01 -.856E+03   -.257E+01 -.148E+01 0.856E+03   -.125E+01 -.722E+00 -.107E+01   -.238E-01 -.137E-01 0.296E+00
   -.375E+01 0.216E+01 -.856E+03   0.257E+01 -.148E+01 0.856E+03   0.125E+01 -.722E+00 -.107E+01   0.237E-01 -.133E-01 0.296E+00
   -.168E+01 0.970E+00 -.865E+03   0.139E+01 -.802E+00 0.864E+03   0.293E+00 -.169E+00 0.390E+00   0.222E-01 -.125E-01 0.303E+00
   -.551E-04 -.433E+01 -.856E+03   0.416E-04 0.297E+01 0.856E+03   0.948E-11 0.144E+01 -.107E+01   0.627E-03 0.278E-01 0.296E+00
   0.168E+01 0.970E+00 -.865E+03   -.139E+01 -.802E+00 0.864E+03   -.293E+00 -.169E+00 0.390E+00   -.222E-01 -.127E-01 0.303E+00
   0.597E+00 0.345E+00 -.871E+03   -.498E+00 -.287E+00 0.870E+03   -.953E-01 -.550E-01 0.657E+00   -.413E-02 -.254E-02 0.321E+00
   -.597E+00 0.345E+00 -.871E+03   0.498E+00 -.288E+00 0.870E+03   0.953E-01 -.550E-01 0.657E+00   0.411E-02 -.312E-02 0.321E+00
   0.201E-04 -.194E+01 -.865E+03   0.110E-03 0.160E+01 0.864E+03   0.222E-11 0.338E+00 0.390E+00   -.401E-03 0.255E-01 0.303E+00
   0.540E-04 -.370E-04 -.251E+04   -.114E-03 0.774E-04 0.251E+04   0.569E-17 -.864E-18 0.211E+01   0.979E-04 -.787E-04 -.561E-01
   -.603E+00 -.614E+00 -.251E+04   0.129E+01 0.157E+01 0.251E+04   -.719E+00 -.100E+01 0.167E+01   0.539E-01 0.772E-01 -.108E+00
   0.603E+00 -.614E+00 -.251E+04   -.129E+01 0.157E+01 0.251E+04   0.719E+00 -.100E+01 0.167E+01   -.545E-01 0.786E-01 -.108E+00
   -.833E+00 -.215E+00 -.251E+04   0.200E+01 0.333E+00 0.251E+04   -.123E+01 -.121E+00 0.167E+01   0.941E-01 0.821E-02 -.108E+00
   0.833E+00 -.215E+00 -.251E+04   -.200E+01 0.332E+00 0.251E+04   0.123E+01 -.121E+00 0.167E+01   -.947E-01 0.908E-02 -.108E+00
   -.230E+00 0.829E+00 -.251E+04   0.711E+00 -.190E+01 0.251E+04   -.509E+00 0.112E+01 0.167E+01   0.413E-01 -.860E-01 -.108E+00
   0.230E+00 0.829E+00 -.251E+04   -.712E+00 -.190E+01 0.251E+04   0.509E+00 0.112E+01 0.167E+01   -.399E-01 -.865E-01 -.108E+00
   0.247E-04 -.131E-04 -.251E+04   0.105E-03 -.654E-04 0.251E+04   -.349E-18 0.209E-18 0.224E+01   -.652E-02 -.333E-02 -.214E-01
   -.200E-04 -.120E-04 -.173E+04   0.767E-04 0.950E-05 0.173E+04   0.554E-17 0.558E-17 -.483E+01   0.183E-02 0.111E-02 -.877E-01
   0.527E-05 -.423E-05 -.286E+03   0.525E-05 0.876E-07 0.288E+03   -.209E-19 -.761E-19 -.239E+01   0.105E-03 0.640E-04 -.200E-01
 -----------------------------------------------------------------------------------------------
   0.324E-03 -.714E-03 0.735E+01   -.998E-15 0.150E-13 -.347E-11   0.893E-15 0.228E-15 -.129E+02   0.843E-02 0.809E-02 0.560E+01
 
 
 POSITION                                       TOTAL-FORCE (eV/Angst)
 -----------------------------------------------------------------------------------
      0.00000      0.00000      5.28219         0.000000      0.000000     -0.029039
      2.93046      0.00000      5.28219         0.005359      0.014628      0.025400
      5.86091      0.00000      5.28219        -0.005359      0.014628      0.025400
      1.46523      2.53785      5.28219         0.015348     -0.002673      0.025400
      4.39568      2.53785      5.28219         0.000000      0.000000     -0.026538
      7.32614      2.53785      5.28219        -0.015348     -0.002673      0.025400
      2.93046      5.07570      5.28219         0.009989     -0.011955      0.025400
      5.86091      5.07570      5.28219        -0.009989     -0.011955      0.025400
      8.79137      5.07570      5.28219        -0.000000      0.000000     -0.002748
      1.46523      0.84595      7.67490        -0.006412     -0.003702     -0.008399
      4.39568      0.84595      7.67490        -0.000000     -0.038053     -0.038854
      7.32614      0.84595      7.67490         0.006412     -0.003702     -0.008399
      2.93046      3.38380      7.67490        -0.032955      0.019027     -0.038854
      5.86091      3.38380      7.67490         0.032955      0.019027     -0.038854
      8.79137      3.38380      7.67490        -0.000000     -0.026047     -0.001159
      4.39568      5.92165      7.67490         0.000000      0.007403     -0.008399
      7.32614      5.92165      7.67490        -0.022558      0.013024     -0.001159
     10.25659      5.92165      7.67490         0.022558      0.013024     -0.001159
      8.79137      1.69450     10.06282         0.000000      0.000908      0.006428
      2.93652      1.69540     10.03056        -0.092236     -0.053252     -0.112506
      5.85484      1.69540     10.03056         0.092236     -0.053252     -0.112506
     10.25378      4.23137     10.05553         0.022840     -0.013186     -0.016077
      4.39568      4.22274     10.03056         0.000000      0.106505     -0.112506
      7.32895      4.23137     10.05553        -0.022840     -0.013186     -0.016077
     11.71957      6.76630     10.06282        -0.000786     -0.000454      0.006428
      5.86316      6.76630     10.06282         0.000786     -0.000454      0.006428
      8.79137      6.76435     10.05553         0.000000      0.026373     -0.016077
      0.00000      0.00000     12.42400         0.000000      0.000000      0.021250
      2.95387      0.04433     12.43748         0.020353      0.026204      0.051440
      5.83749      0.04433     12.43748        -0.020353      0.026204      0.051440
      1.51533      2.53597     12.43748         0.032870      0.004525      0.051440
      7.27604      2.53597     12.43748        -0.032870      0.004525      0.051440
      2.95713      5.03325     12.43748         0.012517     -0.030729      0.051440
      5.83423      5.03325     12.43748        -0.012517     -0.030729      0.051440
      8.79137      5.07570     12.42069         0.000000      0.000000      0.028255
      4.39568      2.53785     12.23056         0.000000      0.000000      0.060744
      4.39568      2.53785     13.83307         0.000000      0.000000     -0.001261
 -----------------------------------------------------------------------------------
    total drift:                                0.008757      0.007375      0.060877


--------------------------------------------------------------------------------------------------------



  FREE ENERGIE OF THE ION-ELECTRON SYSTEM (eV)
  ---------------------------------------------------
  free  energy   TOTEN  =       -99.45999873 eV

  energy  without entropy=      -99.45999873  energy(sigma->0) =      -99.45999873
 


--------------------------------------------------------------------------------------------------------


    POTLOK:  cpu time    0.0429: real time    0.0429


--------------------------------------------------------------------------------------------------------


 stress matrix after NEB project (eV)
     -9.42170     -0.00000     -0.00000
     -0.00000     -9.42170     -0.00000
     -0.00000     -0.00000      0.47182
  FORCES: max atom, RMS     0.001261    0.000207
  FORCE total and by dimension    0.001261    0.001261
  Stress total and by dimension   13.332644    9.421698
     LOOP+:  cpu time   63.7992: real time   63.8111
 -----------------------------------------------------------------------------
|                                                                             |
|           W    W    AA    RRRRR   N    N  II  N    N   GGGG   !!!           |
|           W    W   A  A   R    R  NN   N  II  NN   N  G    G  !!!           |
|           W    W  A    A  R    R  N N  N  II  N N  N  G       !!!           |
|           W WW W  AAAAAA  RRRRR   N  N N  II  N  N N  G  GGG   !            |
|           WW  WW  A    A  R   R   N   NN  II  N   NN  G    G                |
|           W    W  A    A  R    R  N    N  II  N    N   GGGG   !!!           |
|                                                                             |
|     Tetrahedron method does not include variations of the Fermi             |
|     occupations, so forces and stress will be inaccurate. We suggest        |
|     using a different smearing scheme ISMEAR = 1 or 2 for metals in         |
|     relaxations.                                                            |
|                                                                             |
 -----------------------------------------------------------------------------

    4ORBIT:  cpu time    0.0000: real time    0.0000



 total charge

# of ion       s       p       d       tot
------------------------------------------
    1        0.418   0.201   9.180   9.798
    2        0.416   0.203   9.177   9.797
    3        0.416   0.203   9.177   9.797
    4        0.416   0.203   9.177   9.797
    5        0.419   0.202   9.176   9.796
    6        0.416   0.203   9.177   9.797
    7        0.416   0.203   9.177   9.797
    8        0.416   0.203   9.177   9.797
    9        0.414   0.201   9.180   9.795
   10        0.408   0.269   9.163   9.840
   11        0.409   0.268   9.168   9.844
   12        0.408   0.269   9.163   9.840
   13        0.409   0.268   9.168   9.844
   14        0.409   0.268   9.168   9.844
   15        0.405   0.269   9.165   9.838
   16        0.408   0.269   9.163   9.840
   17        0.405   0.269   9.165   9.838
   18        0.405   0.269   9.165   9.838
   19        0.401   0.266   9.167   9.833
   20        0.431   0.288   9.152   9.870
   21        0.431   0.288   9.152   9.870
   22        0.395   0.272   9.168   9.835
   23        0.431   0.288   9.152   9.870
   24        0.395   0.272   9.168   9.835
   25        0.401   0.266   9.167   9.833
   26        0.401   0.266   9.167   9.833
   27        0.395   0.272   9.168   9.835
   28        0.411   0.196   9.182   9.789
   29        0.418   0.209   9.169   9.796
   30        0.418   0.209   9.169   9.796
   31        0.418   0.209   9.169   9.796
   32        0.418   0.209   9.169   9.796
   33        0.418   0.209   9.169   9.796
   34        0.418   0.209   9.169   9.796
   35        0.402   0.199   9.183   9.784
   36        0.507   0.421   6.656   7.583
   37        0.516   0.018   0.000   0.534
--------------------------------------------------
tot         15.434   8.802 327.585 351.821
 
 BZINTS: Fermi energy:    0.741553;  394.000000 electrons
         Band energy:-0.127863E+04;  BLOECHL correction:   -0.043625

 total amount of memory used by VASP MPI-rank0   123322. kBytes
=======================================================================

   base      :      30000. kBytes
   nonlr-proj:      15219. kBytes
   fftplans  :       4330. kBytes
   grid      :      17879. kBytes
   one-center:        575. kBytes
   wavefun   :      55319. kBytes
 
  
  
 General timing and accounting informations for this job:
 ========================================================
  
                  Total CPU time used (sec):       71.082
                            User time (sec):       68.436
                          System time (sec):        2.646
                         Elapsed time (sec):       71.474
  
                   Maximum memory used (kb):      383260.
                   Average memory used (kb):          N/A
  
                          Minor page faults:        68228
                          Major page faults:            0
                 Voluntary context switches:         4807
