PROCAR new format
# of k-points:   10         # of bands:  252         # of ions:   37

 k-point     1 :    0.00000000 0.00000000 0.00000000     weight = 0.01562500

band     1 # energy   -6.33892003 # occ.  2.00000000
 
ion      s      p      d    tot
    1  0.006  0.001  0.000  0.007
    2  0.006  0.001  0.000  0.007
    3  0.006  0.001  0.000  0.007
    4  0.006  0.001  0.000  0.007
    5  0.006  0.001  0.000  0.007
    6  0.006  0.001  0.000  0.007
    7  0.006  0.001  0.000  0.007
    8  0.006  0.001  0.000  0.007
    9  0.006  0.001  0.000  0.007
   10  0.024  0.000  0.000  0.025
   11  0.024  0.000  0.000  0.025
   12  0.024  0.000  0.000  0.025
   13  0.024  0.000  0.000  0.025
   14  0.024  0.000  0.000  0.025
   15  0.024  0.000  0.000  0.024
   16  0.024  0.000  0.000  0.025
   17  0.024  0.000  0.000  0.024
   18  0.024  0.000  0.000  0.024
   19  0.022  0.000  0.000  0.023
   20  0.023  0.000  0.000  0.024
   21  0.023  0.000  0.000  0.024
   22  0.023  0.000  0.000  0.023
   23  0.023  0.000  0.000  0.024
   24  0.023  0.000  0.000  0.023
   25  0.022  0.000  0.000  0.023
   26  0.022  0.000  0.000  0.023
   27  0.023  0.000  0.000  0.023
   28  0.005  0.001  0.000  0.006
   29  0.005  0.001  0.000  0.005
   30  0.005  0.001  0.000  0.005
   31  0.005  0.001  0.000  0.005
   32  0.005  0.001  0.000  0.005
   33  0.005  0.001  0.000  0.005
   34  0.005  0.001  0.000  0.005
   35  0.005  0.001  0.000  0.006
   36  0.008  0.001  0.000  0.009
   37  0.000  0.000  0.000  0.000
tot    0.526  0.013  0.007  0.546
 
band     2 # energy   -5.46664269 # occ.  2.00000000
 
ion      s      p      d    tot
    1  0.008  0.000  0.000  0.008
    2  0.008  0.000  0.000  0.008
    3  0.008  0.000  0.000  0.008
    4  0.008  0.000  0.000  0.008
    5  0.008  0.000  0.000  0.008
    6  0.008  0.000  0.000  0.008
    7  0.008  0.000  0.000  0.008
    8  0.008  0.000  0.000  0.008
    9  0.008  0.000  0.000  0.008
   10  0.010  0.001  0.016  0.027
   11  0.010  0.001  0.015  0.026
   12  0.010  0.001  0.016  0.027
   13  0.010  0.001  0.015  0.026
   14  0.010  0.001  0.015  0.026
   15  0.010  0.001  0.015  0.026
   16  0.010  0.001  0.016  0.027
   17  0.010  0.001  0.015  0.026
   18  0.010  0.001  0.015  0.026
   19  0.014  0.001  0.018  0.032
   20  0.013  0.001  0.019  0.033
   21  0.013  0.001  0.019  0.033
   22  0.013  0.001  0.017  0.030
   23  0.013  0.001  0.019  0.033
   24  0.013  0.001  0.017  0.030
   25  0.014  0.001  0.018  0.032
   26  0.014  0.001  0.018  0.032
   27  0.013  0.001  0.017  0.030
   28  0.007  0.000  0.000  0.007
   29  0.006  0.000  0.000  0.006
   30  0.006  0.000  0.000  0.006
   31  0.006  0.000  0.000  0.006
   32  0.006  0.000  0.000  0.006
   33  0.006  0.000  0.000  0.006
   34  0.006  0.000  0.000  0.006
   35  0.006  0.000  0.000  0.007
   36  0.009  0.000  0.001  0.010
   37  0.001  0.000  0.000  0.001
tot    0.336  0.024  0.302  0.662
 
band     3 # energy   -5.18345204 # occ.  2.00000000
 
ion      s      p      d    tot
    1  0.017  0.000  0.029  0.046
    2  0.017  0.000  0.028  0.045
    3  0.017  0.000  0.028  0.045
    4  0.017  0.000  0.028  0.045
    5  0.017  0.000  0.028  0.044
    6  0.017  0.000  0.028  0.045
    7  0.017  0.000  0.028  0.045
    8  0.017  0.000  0.028  0.045
    9  0.017  0.000  0.028  0.046
   10  0.001  0.001  0.023  0.024
   11  0.001  0.001  0.024  0.025
   12  0.001  0.001  0.023  0.024
   13  0.001  0.001  0.024  0.025
   14  0.001  0.001  0.024  0.025
   15  0.001  0.001  0.023  0.025
   16  0.001  0.001  0.023  0.024
   17  0.001  0.001  0.023  0.025
   18  0.001  0.001  0.023  0.025
   19  0.000  0.000  0.006  0.006
   20  0.000  0.000  0.007  0.007
   21  0.000  0.000  0.007  0.007
   22  0.000  0.000  0.008  0.008
   23  0.000  0.000  0.007  0.007
   24  0.000  0.000  0.008  0.008
   25  0.000  0.000  0.006  0.006
   26  0.000  0.000  0.006  0.006
   27  0.000  0.000  0.008  0.008
   28  0.004  0.000  0.005  0.009
   29  0.004  0.000  0.004  0.008
   30  0.004  0.000  0.004  0.008
   31  0.004  0.000  0.004  0.008
   32  0.004  0.000  0.004  0.008
   33  0.004  0.000  0.004  0.008
   34  0.004  0.000  0.004  0.008
   35  0.004  0.000  0.005  0.009
   36  0.004  0.000  0.000  0.005
   37  0.000  0.000  0.000  0.000
tot    0.198  0.006  0.559  0.763
 
band     4 # energy   -5.07354424 # occ.  2.00000000
 
ion      s      p      d    tot
    1  0.005  0.001  0.004  0.010
    2  0.000  0.000  0.005  0.005
    3  0.000  0.000  0.005  0.005
    4  0.000  0.000  0.005  0.005
    5  0.000  0.000  0.001  0.001
    6  0.000  0.000  0.005  0.005
    7  0.000  0.000  0.005  0.005
    8  0.000  0.000  0.005  0.005
    9  0.002  0.001  0.003  0.005
   10  0.006  0.000  0.055  0.062
   11  0.001  0.001  0.026  0.028
   12  0.006  0.000  0.055  0.062
   13  0.001  0.001  0.026  0.028
   14  0.001  0.001  0.026  0.027
   15  0.012  0.001  0.011  0.024
   16  0.006  0.000  0.055  0.062
   17  0.012  0.001  0.011  0.024
   18  0.012  0.001  0.011  0.024
   19  0.001  0.001  0.030  0.031
   20  0.007  0.000  0.063  0.069
   21  0.007  0.000  0.062  0.069
   22  0.013  0.001  0.010  0.024
   23  0.007  0.000  0.062  0.069
   24  0.013  0.001  0.010  0.024
   25  0.001  0.001  0.030  0.031
   26  0.001  0.001  0.030  0.031
   27  0.013  0.001  0.010  0.024
   28  0.000  0.000  0.001  0.002
   29  0.000  0.000  0.004  0.004
   30  0.000  0.000  0.004  0.004
   31  0.000  0.000  0.004  0.004
   32  0.000  0.000  0.004  0.004
   33  0.000  0.000  0.004  0.004
   34  0.000  0.000  0.004  0.004
   35  0.002  0.001  0.003  0.006
   36  0.008  0.001  0.006  0.015
   37  0.002  0.000  0.000  0.002
tot    0.136  0.016  0.655  0.807
 
band     5 # energy   -5.06405902 # occ.  2.00000000
 
ion      s      p      d    tot
    1  0.001  0.000  0.000  0.001
    2  0.000  0.000  0.005  0.006
    3  0.000  0.000  0.005  0.006
    4  0.000  0.000  0.005  0.006
    5  0.004  0.001  0.005  0.011
    6  0.000  0.000  0.005  0.006
    7  0.000  0.000  0.005  0.006
    8  0.000  0.000  0.005  0.006
    9  0.002  0.000  0.004  0.006
   10  0.008  0.001  0.005  0.013
   11  0.014  0.001  0.042  0.056
   12  0.008  0.001  0.005  0.013
   13  0.014  0.001  0.042  0.056
   14  0.014  0.001  0.042  0.056
   15  0.001  0.000  0.057  0.059
   16  0.008  0.001  0.005  0.013
   17  0.001  0.000  0.057  0.059
   18  0.001  0.000  0.058  0.059
   19  0.010  0.001  0.030  0.041
   20  0.006  0.001  0.012  0.019
   21  0.006  0.001  0.012  0.019
   22  0.001  0.000  0.049  0.050
   23  0.006  0.001  0.012  0.019
   24  0.001  0.000  0.049  0.050
   25  0.010  0.001  0.030  0.041
   26  0.010  0.001  0.030  0.041
   27  0.001  0.000  0.049  0.050
   28  0.004  0.001  0.004  0.009
   29  0.000  0.000  0.003  0.003
   30  0.000  0.000  0.003  0.003
   31  0.000  0.000  0.003  0.003
   32  0.000  0.000  0.003  0.003
   33  0.000  0.000  0.003  0.003
   34  0.000  0.000  0.003  0.003
   35  0.002  0.000  0.005  0.007
   36  0.000  0.000  0.000  0.000
   37  0.000  0.000  0.000  0.000
tot    0.130  0.017  0.655  0.802
 
band     6 # energy   -5.06077287 # occ.  2.00000000
 
ion      s      p      d    tot
    1  0.000  0.000  0.001  0.001
    2  0.000  0.000  0.003  0.004
    3  0.002  0.001  0.006  0.008
    4  0.000  0.000  0.003  0.004
    5  0.000  0.000  0.008  0.009
    6  0.001  0.000  0.003  0.004
    7  0.002  0.001  0.006  0.008
    8  0.001  0.000  0.003  0.004
    9  0.000  0.000  0.006  0.006
   10  0.000  0.000  0.028  0.028
   11  0.006  0.000  0.077  0.084
   12  0.000  0.001  0.045  0.046
   13  0.006  0.000  0.079  0.085
   14  0.024  0.001  0.005  0.030
   15  0.005  0.001  0.023  0.029
   16  0.000  0.001  0.045  0.045
   17  0.005  0.001  0.022  0.029
   18  0.020  0.000  0.033  0.054
   19  0.002  0.000  0.042  0.044
   20  0.004  0.000  0.030  0.034
   21  0.001  0.001  0.022  0.024
   22  0.005  0.001  0.031  0.037
   23  0.001  0.001  0.022  0.024
   24  0.020  0.001  0.015  0.035
   25  0.007  0.001  0.010  0.017
   26  0.002  0.000  0.043  0.045
   27  0.005  0.001  0.031  0.037
   28  0.000  0.000  0.003  0.003
   29  0.001  0.000  0.003  0.004
   30  0.000  0.000  0.002  0.002
   31  0.001  0.000  0.003  0.004
   32  0.001  0.000  0.003  0.004
   33  0.000  0.000  0.002  0.002
   34  0.001  0.000  0.003  0.004
   35  0.000  0.000  0.007  0.008
   36  0.000  0.000  0.001  0.001
   37  0.000  0.000  0.000  0.000
tot    0.121  0.016  0.667  0.805
 
band     7 # energy   -5.06076690 # occ.  2.00000000
 
ion      s      p      d    tot
    1  0.000  0.000  0.001  0.001
    2  0.001  0.001  0.005  0.007
    3  0.000  0.000  0.002  0.003
    4  0.001  0.001  0.005  0.007
    5  0.000  0.000  0.008  0.009
    6  0.001  0.000  0.005  0.007
    7  0.000  0.000  0.002  0.003
    8  0.001  0.000  0.005  0.007
    9  0.000  0.000  0.006  0.006
   10  0.000  0.001  0.051  0.052
   11  0.018  0.001  0.030  0.048
   12  0.000  0.000  0.033  0.034
   13  0.018  0.001  0.028  0.047
   14  0.000  0.000  0.102  0.102
   15  0.015  0.001  0.030  0.046
   16  0.000  0.000  0.034  0.034
   17  0.015  0.001  0.030  0.046
   18  0.000  0.002  0.018  0.020
   19  0.005  0.000  0.021  0.026
   20  0.000  0.001  0.019  0.020
   21  0.003  0.001  0.027  0.031
   22  0.015  0.001  0.020  0.036
   23  0.003  0.001  0.027  0.030
   24  0.000  0.001  0.036  0.037
   25  0.000  0.000  0.053  0.053
   26  0.005  0.000  0.020  0.026
   27  0.015  0.001  0.020  0.036
   28  0.000  0.000  0.003  0.003
   29  0.000  0.000  0.002  0.002
   30  0.001  0.000  0.003  0.005
   31  0.000  0.000  0.002  0.002
   32  0.000  0.000  0.002  0.003
   33  0.001  0.000  0.003  0.005
   34  0.000  0.000  0.002  0.003
   35  0.000  0.000  0.007  0.008
   36  0.000  0.000  0.001  0.001
   37  0.000  0.000  0.000  0.000
tot    0.121  0.016  0.667  0.805
 
band     8 # energy   -5.05527772 # occ.  2.00000000
 
ion      s      p      d    tot
    1  0.000  0.000  0.010  0.010
    2  0.000  0.000  0.003  0.003
    3  0.002  0.001  0.006  0.008
    4  0.000  0.000  0.004  0.005
    5  0.000  0.000  0.001  0.001
    6  0.001  0.001  0.004  0.006
    7  0.001  0.000  0.006  0.008
    8  0.000  0.000  0.003  0.004
    9  0.000  0.000  0.005  0.005
   10  0.002  0.001  0.059  0.061
   11  0.003  0.001  0.027  0.031
   12  0.027  0.001  0.021  0.049
   13  0.005  0.000  0.038  0.044
   14  0.000  0.002  0.014  0.016
   15  0.005  0.000  0.051  0.056
   16  0.016  0.001  0.038  0.054
   17  0.009  0.001  0.017  0.026
   18  0.000  0.000  0.093  0.094
   19  0.007  0.001  0.023  0.030
   20  0.001  0.000  0.051  0.052
   21  0.015  0.001  0.011  0.027
   22  0.000  0.000  0.024  0.024
   23  0.009  0.001  0.029  0.038
   24  0.000  0.001  0.039  0.039
   25  0.001  0.001  0.020  0.022
   26  0.011  0.001  0.025  0.037
   27  0.000  0.000  0.030  0.031
   28  0.000  0.000  0.005  0.005
   29  0.001  0.000  0.003  0.004
   30  0.000  0.000  0.002  0.002
   31  0.001  0.000  0.002  0.003
   32  0.000  0.000  0.003  0.003
   33  0.000  0.000  0.002  0.002
   34  0.001  0.000  0.003  0.004
   35  0.000  0.000  0.001  0.001
   36  0.000  0.000  0.002  0.002
   37  0.000  0.000  0.000  0.000
tot    0.118  0.016  0.671  0.806
 
band     9 # energy   -5.05527665 # occ.  2.00000000
 
ion      s      p      d    tot
    1  0.000  0.000  0.010  0.010
    2  0.002  0.001  0.006  0.008
    3  0.000  0.000  0.003  0.003
    4  0.001  0.001  0.004  0.006
    5  0.000  0.000  0.001  0.001
    6  0.001  0.000  0.005  0.005
    7  0.000  0.000  0.003  0.003
    8  0.001  0.000  0.006  0.008
    9  0.000  0.000  0.005  0.005
   10  0.028  0.001  0.020  0.048
   11  0.003  0.001  0.025  0.029
   12  0.002  0.001  0.057  0.061
   13  0.000  0.002  0.015  0.017
   14  0.006  0.000  0.039  0.044
   15  0.004  0.000  0.056  0.061
   16  0.014  0.001  0.041  0.055
   17  0.001  0.000  0.090  0.091
   18  0.009  0.001  0.014  0.023
   19  0.006  0.001  0.022  0.029
   20  0.016  0.001  0.009  0.026
   21  0.001  0.000  0.049  0.051
   22  0.000  0.001  0.038  0.039
   23  0.008  0.001  0.032  0.040
   24  0.000  0.000  0.023  0.023
   25  0.012  0.001  0.025  0.038
   26  0.001  0.001  0.020  0.022
   27  0.000  0.000  0.032  0.032
   28  0.000  0.000  0.005  0.005
   29  0.000  0.000  0.002  0.002
   30  0.001  0.000  0.003  0.004
   31  0.000  0.000  0.003  0.003
   32  0.001  0.000  0.002  0.003
   33  0.001  0.000  0.003  0.004
   34  0.000  0.000  0.002  0.002
   35  0.000  0.000  0.001  0.001
   36  0.000  0.000  0.002  0.002
   37  0.000  0.000  0.000  0.000
tot    0.118  0.016  0.671  0.806
 
band    10 # energy   -5.02968258 # occ.  2.00000000
 
ion      s      p      d    tot
    1  0.000  0.000  0.016  0.016
    2  0.000  0.000  0.010  0.011
    3  0.000  0.000  0.010  0.011
    4  0.000  0.000  0.010  0.011
    5  0.002  0.000  0.001  0.004
    6  0.000  0.000  0.010  0.011
    7  0.000  0.000  0.010  0.011
    8  0.000  0.000  0.010  0.011
    9  0.006  0.001  0.000  0.007
   10  0.003  0.000  0.058  0.060
   11  0.001  0.000  0.050  0.051
   12  0.003  0.000  0.058  0.060
   13  0.001  0.000  0.050  0.051
   14  0.001  0.000  0.050  0.051
   15  0.004  0.000  0.006  0.010
   16  0.003  0.000  0.058  0.060
   17  0.004  0.000  0.006  0.010
   18  0.004  0.000  0.006  0.010
   19  0.001  0.000  0.017  0.018
   20  0.000  0.000  0.052  0.052
   21  0.000  0.000  0.052  0.052
   22  0.004  0.000  0.031  0.035
   23  0.000  0.000  0.052  0.052
   24  0.004  0.000  0.031  0.035
   25  0.001  0.000  0.017  0.018
   26  0.001  0.000  0.017  0.018
   27  0.004  0.000  0.031  0.035
   28  0.007  0.000  0.002  0.009
   29  0.001  0.000  0.007  0.008
   30  0.001  0.000  0.007  0.008
   31  0.001  0.000  0.007  0.008
   32  0.001  0.000  0.007  0.008
   33  0.001  0.000  0.007  0.008
   34  0.001  0.000  0.007  0.008
   35  0.000  0.001  0.013  0.014
   36  0.000  0.000  0.002  0.002
   37  0.000  0.000  0.000  0.000
tot    0.059  0.007  0.778  0.844
 
band    11 # energy   -5.02115871 # occ.  2.00000000
 
ion      s      p      d    tot
    1  0.005  0.001  0.000  0.006
    2  0.000  0.000  0.011  0.011
    3  0.000  0.000  0.011  0.011
    4  0.000  0.000  0.011  0.011
    5  0.001  0.000  0.004  0.005
    6  0.000  0.000  0.011  0.011
    7  0.000  0.000  0.011  0.011
    8  0.000  0.000  0.011  0.011
    9  0.002  0.000  0.009  0.011
   10  0.002  0.000  0.025  0.027
   11  0.003  0.000  0.017  0.021
   12  0.002  0.000  0.025  0.027
   13  0.003  0.000  0.017  0.021
   14  0.003  0.000  0.017  0.021
   15  0.000  0.000  0.063  0.063
   16  0.002  0.000  0.025  0.027
   17  0.000  0.000  0.063  0.063
   18  0.000  0.000  0.063  0.063
   19  0.002  0.000  0.056  0.058
   20  0.004  0.000  0.010  0.015
   21  0.004  0.000  0.011  0.015
   22  0.000  0.000  0.051  0.051
   23  0.004  0.000  0.011  0.015
   24  0.000  0.000  0.051  0.051
   25  0.002  0.000  0.056  0.058
   26  0.002  0.000  0.056  0.058
   27  0.000  0.000  0.051  0.051
   28  0.000  0.000  0.010  0.011
   29  0.000  0.000  0.005  0.006
   30  0.000  0.000  0.005  0.006
   31  0.000  0.000  0.005  0.006
   32  0.000  0.000  0.005  0.006
   33  0.000  0.000  0.005  0.006
   34  0.000  0.000  0.005  0.006
   35  0.002  0.000  0.004  0.006
   36  0.005  0.001  0.002  0.007
   37  0.001  0.000  0.000  0.001
tot    0.050  0.007  0.796  0.853
 
band    12 # energy   -5.01440804 # occ.  2.00000000
 
ion      s      p      d    tot
    1  0.000  0.000  0.020  0.020
    2  0.003  0.001  0.006  0.010
    3  0.002  0.000  0.009  0.011
    4  0.003  0.001  0.006  0.010
    5  0.000  0.000  0.005  0.005
    6  0.000  0.000  0.009  0.009
    7  0.002  0.000  0.009  0.011
    8  0.000  0.000  0.009  0.009
    9  0.000  0.000  0.011  0.011
   10  0.000  0.000  0.025  0.025
   11  0.003  0.000  0.025  0.028
   12  0.000  0.000  0.036  0.036
   13  0.003  0.000  0.025  0.028
   14  0.000  0.000  0.030  0.030
   15  0.004  0.000  0.022  0.027
   16  0.000  0.000  0.036  0.036
   17  0.004  0.000  0.022  0.026
   18  0.000  0.000  0.057  0.057
   19  0.009  0.000  0.033  0.043
   20  0.000  0.000  0.081  0.081
   21  0.006  0.000  0.027  0.033
   22  0.000  0.000  0.036  0.036
   23  0.006  0.000  0.028  0.034
   24  0.000  0.000  0.009  0.009
   25  0.000  0.000  0.073  0.073
   26  0.010  0.000  0.033  0.042
   27  0.000  0.000  0.035  0.036
   28  0.000  0.000  0.011  0.011
   29  0.000  0.000  0.007  0.008
   30  0.001  0.000  0.005  0.006
   31  0.000  0.000  0.008  0.008
   32  0.002  0.001  0.004  0.007
   33  0.001  0.000  0.005  0.006
   34  0.002  0.001  0.004  0.007
   35  0.000  0.000  0.007  0.007
   36  0.000  0.001  0.001  0.002
   37  0.000  0.000  0.000  0.000
tot    0.064  0.008  0.769  0.841
 
band    13 # energy   -5.01438552 # occ.  2.00000000
 
ion      s      p      d    tot
    1  0.000  0.000  0.020  0.020
    2  0.000  0.000  0.010  0.010
    3  0.002  0.000  0.007  0.009
    4  0.000  0.000  0.010  0.010
    5  0.000  0.000  0.005  0.005
    6  0.003  0.000  0.007  0.011
    7  0.002  0.000  0.007  0.009
    8  0.003  0.000  0.007  0.011
    9  0.000  0.000  0.011  0.012
   10  0.000  0.000  0.040  0.040
   11  0.001  0.000  0.029  0.030
   12  0.000  0.000  0.029  0.029
   13  0.001  0.000  0.029  0.030
   14  0.004  0.000  0.024  0.027
   15  0.001  0.000  0.045  0.046
   16  0.000  0.000  0.029  0.029
   17  0.001  0.000  0.046  0.047
   18  0.005  0.000  0.010  0.016
   19  0.003  0.000  0.060  0.063
   20  0.008  0.000  0.010  0.018
   21  0.002  0.000  0.064  0.066
   22  0.000  0.000  0.017  0.018
   23  0.002  0.000  0.063  0.065
   24  0.001  0.000  0.044  0.045
   25  0.013  0.000  0.020  0.032
   26  0.003  0.000  0.060  0.064
   27  0.000  0.000  0.018  0.018
   28  0.000  0.000  0.011  0.011
   29  0.002  0.000  0.003  0.006
   30  0.001  0.001  0.006  0.008
   31  0.002  0.000  0.003  0.006
   32  0.000  0.000  0.007  0.007
   33  0.001  0.001  0.006  0.008
   34  0.000  0.000  0.007  0.007
   35  0.000  0.000  0.007  0.007
   36  0.000  0.001  0.001  0.002
   37  0.000  0.000  0.000  0.000
tot    0.064  0.008  0.769  0.841
 
band    14 # energy   -5.00819312 # occ.  2.00000000
 
ion      s      p      d    tot
    1  0.000  0.000  0.005  0.005
    2  0.003  0.001  0.006  0.010
    3  0.002  0.000  0.009  0.011
    4  0.003  0.001  0.006  0.010
    5  0.000  0.000  0.019  0.020
    6  0.000  0.000  0.010  0.010
    7  0.002  0.000  0.009  0.011
    8  0.000  0.000  0.010  0.010
    9  0.000  0.000  0.014  0.014
   10  0.007  0.000  0.008  0.015
   11  0.001  0.000  0.042  0.043
   12  0.002  0.000  0.045  0.047
   13  0.001  0.000  0.042  0.043
   14  0.003  0.000  0.028  0.032
   15  0.000  0.000  0.024  0.024
   16  0.002  0.000  0.045  0.046
   17  0.000  0.000  0.024  0.024
   18  0.001  0.000  0.041  0.042
   19  0.000  0.000  0.034  0.034
   20  0.005  0.000  0.039  0.044
   21  0.001  0.000  0.030  0.031
   22  0.003  0.000  0.074  0.077
   23  0.001  0.000  0.030  0.031
   24  0.013  0.000  0.005  0.018
   25  0.001  0.000  0.028  0.029
   26  0.000  0.000  0.034  0.034
   27  0.003  0.000  0.074  0.077
   28  0.000  0.000  0.003  0.003
   29  0.000  0.000  0.007  0.007
   30  0.001  0.000  0.003  0.004
   31  0.000  0.000  0.007  0.007
   32  0.002  0.001  0.004  0.006
   33  0.001  0.000  0.003  0.004
   34  0.002  0.001  0.004  0.006
   35  0.000  0.000  0.007  0.007
   36  0.000  0.000  0.002  0.003
   37  0.000  0.000  0.000  0.000
tot    0.062  0.008  0.773  0.843
 
band    15 # energy   -5.00816974 # occ.  2.00000000
 
ion      s      p      d    tot
    1  0.000  0.000  0.005  0.005
    2  0.000  0.000  0.010  0.011
    3  0.002  0.000  0.007  0.010
    4  0.000  0.000  0.010  0.011
    5  0.000  0.000  0.019  0.020
    6  0.004  0.000  0.007  0.011
    7  0.002  0.000  0.007  0.010
    8  0.004  0.000  0.007  0.011
    9  0.000  0.000  0.014  0.014
   10  0.000  0.000  0.057  0.057
   11  0.002  0.000  0.033  0.036
   12  0.005  0.000  0.020  0.025
   13  0.002  0.000  0.033  0.036
   14  0.000  0.000  0.047  0.047
   15  0.000  0.000  0.036  0.036
   16  0.005  0.000  0.020  0.025
   17  0.000  0.000  0.036  0.036
   18  0.000  0.000  0.018  0.018
   19  0.001  0.000  0.030  0.031
   20  0.000  0.000  0.027  0.027
   21  0.004  0.000  0.036  0.040
   22  0.010  0.000  0.028  0.037
   23  0.004  0.000  0.036  0.040
   24  0.000  0.000  0.097  0.097
   25  0.000  0.000  0.036  0.036
   26  0.001  0.000  0.030  0.031
   27  0.010  0.000  0.028  0.038
   28  0.000  0.000  0.003  0.003
   29  0.002  0.000  0.002  0.004
   30  0.001  0.001  0.006  0.008
   31  0.002  0.000  0.002  0.004
   32  0.000  0.000  0.005  0.005
   33  0.001  0.001  0.006  0.008
   34  0.000  0.000  0.005  0.005
   35  0.000  0.000  0.007  0.007
   36  0.000  0.000  0.002  0.003
   37  0.000  0.000  0.000  0.000
tot    0.062  0.008  0.773  0.843
 
band    16 # energy   -4.95880203 # occ.  2.00000000
 
ion      s      p      d    tot
    1  0.002  0.000  0.004  0.006
    2  0.002  0.000  0.009  0.011
    3  0.002  0.000  0.009  0.011
    4  0.002  0.000  0.009  0.011
    5  0.004  0.000  0.009  0.013
    6  0.002  0.000  0.009  0.011
    7  0.002  0.000  0.009  0.011
    8  0.002  0.000  0.009  0.011
    9  0.000  0.000  0.011  0.012
   10  0.001  0.000  0.004  0.005
   11  0.001  0.000  0.010  0.011
   12  0.001  0.000  0.004  0.005
   13  0.001  0.000  0.010  0.011
   14  0.001  0.000  0.010  0.011
   15  0.002  0.000  0.007  0.010
   16  0.001  0.000  0.004  0.005
   17  0.002  0.000  0.007  0.010
   18  0.003  0.000  0.007  0.010
   19  0.002  0.001  0.018  0.020
   20  0.001  0.001  0.022  0.024
   21  0.001  0.001  0.022  0.024
   22  0.000  0.001  0.023  0.024
   23  0.001  0.001  0.022  0.024
   24  0.000  0.001  0.023  0.024
   25  0.002  0.001  0.018  0.020
   26  0.002  0.001  0.018  0.020
   27  0.000  0.001  0.023  0.024
   28  0.013  0.000  0.038  0.051
   29  0.016  0.000  0.029  0.045
   30  0.016  0.000  0.029  0.045
   31  0.016  0.000  0.029  0.045
   32  0.016  0.000  0.029  0.045
   33  0.016  0.000  0.029  0.045
   34  0.016  0.000  0.029  0.045
   35  0.024  0.000  0.030  0.054
   36  0.015  0.000  0.004  0.020
   37  0.001  0.000  0.000  0.001
tot    0.187  0.009  0.579  0.775
 
band    17 # energy   -4.85322969 # occ.  2.00000000
 
ion      s      p      d    tot
    1  0.001  0.000  0.001  0.002
    2  0.000  0.000  0.009  0.009
    3  0.000  0.000  0.009  0.009
    4  0.000  0.000  0.009  0.009
    5  0.000  0.000  0.016  0.016
    6  0.000  0.000  0.009  0.009
    7  0.000  0.000  0.009  0.009
    8  0.000  0.000  0.009  0.009
    9  0.003  0.001  0.004  0.008
   10  0.001  0.000  0.017  0.018
   11  0.001  0.001  0.070  0.071
   12  0.001  0.000  0.017  0.018
   13  0.001  0.001  0.070  0.071
   14  0.001  0.001  0.069  0.070
   15  0.000  0.001  0.037  0.038
   16  0.001  0.000  0.017  0.018
   17  0.000  0.001  0.037  0.038
   18  0.000  0.001  0.037  0.038
   19  0.000  0.001  0.031  0.032
   20  0.001  0.000  0.061  0.062
   21  0.001  0.000  0.060  0.062
   22  0.002  0.000  0.014  0.016
   23  0.001  0.000  0.060  0.062
   24  0.002  0.000  0.014  0.016
   25  0.000  0.001  0.031  0.032
   26  0.000  0.001  0.031  0.032
   27  0.002  0.000  0.014  0.016
   28  0.007  0.001  0.000  0.008
   29  0.001  0.000  0.009  0.010
   30  0.001  0.000  0.009  0.010
   31  0.001  0.000  0.009  0.010
   32  0.001  0.000  0.009  0.010
   33  0.001  0.000  0.009  0.010
   34  0.001  0.000  0.009  0.010
   35  0.000  0.000  0.000  0.000
   36  0.000  0.000  0.007  0.007
   37  0.001  0.000  0.000  0.001
tot    0.029  0.014  0.821  0.864
 
band    18 # energy   -4.84560775 # occ.  2.00000000
 
ion      s      p      d    tot
    1  0.002  0.001  0.010  0.012
    2  0.000  0.000  0.010  0.010
    3  0.000  0.000  0.010  0.010
    4  0.000  0.000  0.010  0.010
    5  0.003  0.001  0.000  0.004
    6  0.000  0.000  0.010  0.010
    7  0.000  0.000  0.010  0.010
    8  0.000  0.000  0.010  0.010
    9  0.000  0.000  0.007  0.007
   10  0.001  0.001  0.065  0.066
   11  0.000  0.000  0.017  0.018
   12  0.001  0.001  0.065  0.066
   13  0.000  0.000  0.017  0.018
   14  0.000  0.000  0.016  0.016
   15  0.001  0.000  0.044  0.045
   16  0.001  0.001  0.065  0.066
   17  0.001  0.000  0.044  0.045
   18  0.001  0.000  0.045  0.047
   19  0.002  0.000  0.039  0.041
   20  0.001  0.000  0.014  0.015
   21  0.001  0.000  0.014  0.014
   22  0.001  0.001  0.051  0.052
   23  0.001  0.000  0.014  0.014
   24  0.001  0.001  0.049  0.051
   25  0.002  0.000  0.039  0.042
   26  0.002  0.000  0.039  0.041
   27  0.001  0.001  0.051  0.052
   28  0.000  0.000  0.005  0.005
   29  0.000  0.000  0.007  0.008
   30  0.000  0.000  0.008  0.008
   31  0.000  0.000  0.007  0.008
   32  0.000  0.000  0.007  0.008
   33  0.000  0.000  0.008  0.008
   34  0.000  0.000  0.007  0.008
   35  0.002  0.001  0.006  0.009
   36  0.004  0.001  0.000  0.005
   37  0.000  0.000  0.000  0.000
tot    0.028  0.016  0.819  0.862
 
band    19 # energy   -4.84448356 # occ.  2.00000000
 
ion      s      p      d    tot
    1  0.000  0.001  0.019  0.020
    2  0.001  0.001  0.009  0.011
    3  0.000  0.000  0.011  0.011
    4  0.001  0.001  0.009  0.011
    5  0.000  0.000  0.005  0.005
    6  0.001  0.000  0.005  0.007
    7  0.000  0.000  0.011  0.011
    8  0.001  0.000  0.005  0.007
    9  0.000  0.000  0.005  0.006
   10  0.000  0.000  0.070  0.070
   11  0.001  0.001  0.028  0.030
   12  0.002  0.000  0.055  0.057
   13  0.001  0.001  0.029  0.031
   14  0.000  0.000  0.000  0.000
   15  0.000  0.001  0.035  0.036
   16  0.002  0.000  0.055  0.057
   17  0.000  0.001  0.034  0.035
   18  0.000  0.000  0.070  0.071
   19  0.001  0.000  0.040  0.041
   20  0.000  0.000  0.010  0.010
   21  0.000  0.001  0.020  0.021
   22  0.002  0.000  0.041  0.044
   23  0.000  0.001  0.020  0.021
   24  0.000  0.000  0.031  0.031
   25  0.000  0.000  0.075  0.076
   26  0.001  0.000  0.039  0.040
   27  0.002  0.000  0.041  0.044
   28  0.000  0.000  0.009  0.010
   29  0.000  0.000  0.004  0.005
   30  0.000  0.000  0.007  0.008
   31  0.000  0.000  0.004  0.005
   32  0.001  0.001  0.004  0.006
   33  0.000  0.000  0.007  0.008
   34  0.001  0.001  0.004  0.006
   35  0.000  0.001  0.015  0.016
   36  0.000  0.000  0.000  0.000
   37  0.000  0.000  0.000  0.000
tot    0.021  0.014  0.830  0.866
 
band    20 # energy   -4.84445393 # occ.  2.00000000
 
ion      s      p      d    tot
    1  0.000  0.001  0.019  0.020
    2  0.000  0.000  0.008  0.008
    3  0.002  0.001  0.005  0.008
    4  0.000  0.000  0.008  0.008
    5  0.000  0.000  0.005  0.005
    6  0.001  0.001  0.012  0.013
    7  0.002  0.001  0.005  0.008
    8  0.001  0.001  0.012  0.013
    9  0.000  0.000  0.006  0.006
   10  0.002  0.000  0.051  0.053
   11  0.000  0.000  0.010  0.010
   12  0.001  0.000  0.065  0.065
   13  0.000  0.000  0.009  0.009
   14  0.001  0.001  0.039  0.041
   15  0.000  0.000  0.059  0.059
   16  0.001  0.000  0.064  0.065
   17  0.000  0.000  0.060  0.061
   18  0.000  0.001  0.022  0.023
   19  0.000  0.000  0.063  0.063
   20  0.000  0.001  0.024  0.025
   21  0.000  0.000  0.013  0.013
   22  0.001  0.000  0.035  0.036
   23  0.000  0.000  0.013  0.014
   24  0.003  0.001  0.046  0.049
   25  0.001  0.000  0.026  0.027
   26  0.000  0.000  0.064  0.065
   27  0.001  0.000  0.035  0.036
   28  0.000  0.000  0.009  0.009
   29  0.001  0.001  0.006  0.008
   30  0.001  0.000  0.003  0.004
   31  0.001  0.001  0.006  0.008
   32  0.000  0.000  0.006  0.006
   33  0.001  0.000  0.003  0.004
   34  0.000  0.000  0.006  0.006
   35  0.000  0.001  0.015  0.016
   36  0.000  0.000  0.000  0.000
   37  0.000  0.000  0.000  0.000
tot    0.021  0.014  0.830  0.866
 
band    21 # energy   -4.84049092 # occ.  2.00000000
 
ion      s      p      d    tot
    1  0.000  0.000  0.001  0.001
    2  0.002  0.001  0.009  0.011
    3  0.000  0.000  0.011  0.011
    4  0.002  0.001  0.009  0.011
    5  0.000  0.001  0.014  0.015
    6  0.001  0.000  0.005  0.007
    7  0.000  0.000  0.011  0.011
    8  0.001  0.000  0.005  0.007
    9  0.000  0.001  0.016  0.017
   10  0.000  0.001  0.025  0.026
   11  0.000  0.000  0.081  0.082
   12  0.000  0.000  0.025  0.025
   13  0.000  0.000  0.082  0.082
   14  0.001  0.000  0.035  0.037
   15  0.001  0.000  0.032  0.032
   16  0.000  0.000  0.025  0.025
   17  0.001  0.000  0.031  0.032
   18  0.003  0.001  0.051  0.055
   19  0.001  0.000  0.011  0.012
   20  0.003  0.000  0.036  0.039
   21  0.001  0.000  0.059  0.060
   22  0.000  0.000  0.041  0.042
   23  0.001  0.000  0.059  0.060
   24  0.000  0.001  0.019  0.020
   25  0.002  0.001  0.037  0.040
   26  0.001  0.000  0.011  0.012
   27  0.000  0.000  0.041  0.041
   28  0.000  0.000  0.008  0.008
   29  0.000  0.000  0.004  0.005
   30  0.000  0.000  0.007  0.007
   31  0.000  0.000  0.004  0.005
   32  0.001  0.001  0.004  0.006
   33  0.000  0.000  0.007  0.007
   34  0.001  0.001  0.004  0.006
   35  0.000  0.000  0.002  0.002
   36  0.000  0.001  0.004  0.005