PROCAR new format
# of k-points:   10         # of bands:  252         # of ions:   38

 k-point     1 :    0.00000000 0.00000000 0.00000000     weight = 0.01562500

band     1 # energy  -25.51613477 # occ.  2.00000000
 
ion      s      p      d    tot
    1  0.000  0.000  0.000  0.000
    2  0.000  0.000  0.000  0.000
    3  0.000  0.000  0.000  0.000
    4  0.000  0.000  0.000  0.000
    5  0.000  0.000  0.000  0.000
    6  0.000  0.000  0.000  0.000
    7  0.000  0.000  0.000  0.000
    8  0.000  0.000  0.000  0.000
    9  0.000  0.000  0.000  0.000
   10  0.000  0.000  0.000  0.000
   11  0.000  0.000  0.000  0.000
   12  0.000  0.000  0.000  0.000
   13  0.000  0.000  0.000  0.000
   14  0.000  0.000  0.000  0.000
   15  0.000  0.000  0.000  0.000
   16  0.000  0.000  0.000  0.000
   17  0.000  0.000  0.000  0.000
   18  0.000  0.000  0.000  0.000
   19  0.000  0.000  0.000  0.000
   20  0.000  0.000  0.000  0.000
   21  0.000  0.000  0.000  0.000
   22  0.000  0.000  0.000  0.000
   23  0.000  0.000  0.000  0.000
   24  0.000  0.000  0.000  0.000
   25  0.000  0.000  0.000  0.000
   26  0.000  0.000  0.000  0.000
   27  0.000  0.000  0.000  0.000
   28  0.000  0.000  0.000  0.000
   29  0.000  0.000  0.000  0.000
   30  0.000  0.000  0.000  0.000
   31  0.000  0.000  0.000  0.000
   32  0.000  0.000  0.000  0.000
   33  0.000  0.000  0.000  0.000
   34  0.000  0.000  0.000  0.000
   35  0.000  0.000  0.000  0.000
   36  0.000  0.001  0.001  0.002
   37  0.149  0.118  0.000  0.267
   38  0.664  0.083  0.000  0.746
tot    0.813  0.201  0.001  1.015
 
band     2 # energy  -11.46993680 # occ.  2.00000000
 
ion      s      p      d    tot
    1  0.000  0.000  0.000  0.000
    2  0.000  0.000  0.000  0.000
    3  0.000  0.000  0.000  0.000
    4  0.000  0.000  0.000  0.000
    5  0.000  0.000  0.000  0.000
    6  0.000  0.000  0.000  0.000
    7  0.000  0.000  0.000  0.000
    8  0.000  0.000  0.000  0.000
    9  0.000  0.000  0.000  0.000
   10  0.000  0.000  0.000  0.000
   11  0.000  0.000  0.000  0.000
   12  0.000  0.000  0.000  0.000
   13  0.000  0.000  0.000  0.000
   14  0.000  0.000  0.000  0.000
   15  0.000  0.000  0.000  0.000
   16  0.000  0.000  0.000  0.000
   17  0.000  0.000  0.000  0.000
   18  0.000  0.000  0.000  0.000
   19  0.000  0.000  0.000  0.000
   20  0.000  0.000  0.000  0.000
   21  0.000  0.000  0.000  0.000
   22  0.000  0.000  0.000  0.000
   23  0.000  0.000  0.000  0.000
   24  0.000  0.000  0.000  0.000
   25  0.000  0.000  0.000  0.000
   26  0.000  0.000  0.000  0.000
   27  0.000  0.000  0.000  0.000
   28  0.000  0.000  0.000  0.000
   29  0.000  0.000  0.000  0.000
   30  0.000  0.000  0.000  0.000
   31  0.000  0.000  0.000  0.000
   32  0.000  0.000  0.000  0.000
   33  0.000  0.000  0.000  0.000
   34  0.000  0.000  0.000  0.000
   35  0.000  0.000  0.000  0.000
   36  0.015  0.012  0.022  0.049
   37  0.159  0.031  0.000  0.190
   38  0.133  0.483  0.000  0.616
tot    0.308  0.526  0.022  0.856
 
band     3 # energy   -8.33223108 # occ.  2.00000000
 
ion      s      p      d    tot
    1  0.006  0.001  0.000  0.007
    2  0.006  0.001  0.000  0.007
    3  0.006  0.001  0.000  0.007
    4  0.006  0.001  0.000  0.007
    5  0.006  0.001  0.000  0.007
    6  0.006  0.001  0.000  0.007
    7  0.006  0.001  0.000  0.007
    8  0.006  0.001  0.000  0.007
    9  0.006  0.001  0.000  0.007
   10  0.024  0.000  0.000  0.024
   11  0.023  0.000  0.000  0.024
   12  0.024  0.000  0.000  0.024
   13  0.023  0.000  0.000  0.024
   14  0.023  0.000  0.000  0.024
   15  0.024  0.000  0.000  0.024
   16  0.024  0.000  0.000  0.024
   17  0.024  0.000  0.000  0.024
   18  0.024  0.000  0.000  0.024
   19  0.026  0.000  0.000  0.026
   20  0.025  0.000  0.000  0.025
   21  0.025  0.000  0.000  0.025
   22  0.025  0.000  0.000  0.025
   23  0.025  0.000  0.000  0.025
   24  0.025  0.000  0.000  0.025
   25  0.026  0.000  0.000  0.026
   26  0.026  0.000  0.000  0.026
   27  0.025  0.000  0.000  0.025
   28  0.008  0.001  0.000  0.008
   29  0.008  0.001  0.000  0.009
   30  0.008  0.001  0.000  0.009
   31  0.008  0.001  0.000  0.009
   32  0.008  0.001  0.000  0.009
   33  0.008  0.001  0.000  0.009
   34  0.008  0.001  0.000  0.009
   35  0.007  0.001  0.000  0.008
   36  0.010  0.002  0.000  0.012
   37  0.000  0.000  0.000  0.000
   38  0.000  0.000  0.000  0.001
tot    0.566  0.017  0.001  0.584
 
band     4 # energy   -8.08885429 # occ.  2.00000000
 
ion      s      p      d    tot
    1  0.000  0.000  0.000  0.000
    2  0.000  0.000  0.000  0.000
    3  0.000  0.000  0.000  0.000
    4  0.000  0.000  0.000  0.000
    5  0.000  0.000  0.000  0.000
    6  0.000  0.000  0.000  0.000
    7  0.000  0.000  0.000  0.000
    8  0.000  0.000  0.000  0.000
    9  0.000  0.000  0.000  0.000
   10  0.000  0.000  0.000  0.000
   11  0.000  0.000  0.000  0.000
   12  0.000  0.000  0.000  0.000
   13  0.000  0.000  0.000  0.000
   14  0.000  0.000  0.000  0.000
   15  0.000  0.000  0.000  0.000
   16  0.000  0.000  0.000  0.000
   17  0.000  0.000  0.000  0.000
   18  0.000  0.000  0.000  0.000
   19  0.000  0.000  0.000  0.000
   20  0.000  0.000  0.000  0.000
   21  0.000  0.000  0.000  0.000
   22  0.000  0.000  0.000  0.000
   23  0.000  0.000  0.000  0.000
   24  0.000  0.000  0.000  0.000
   25  0.000  0.000  0.000  0.000
   26  0.000  0.000  0.000  0.000
   27  0.000  0.000  0.000  0.000
   28  0.000  0.000  0.000  0.000
   29  0.000  0.000  0.000  0.000
   30  0.000  0.000  0.000  0.000
   31  0.000  0.000  0.000  0.000
   32  0.000  0.000  0.000  0.000
   33  0.000  0.000  0.000  0.000
   34  0.000  0.000  0.000  0.000
   35  0.000  0.000  0.000  0.000
   36  0.000  0.001  0.003  0.004
   37  0.000  0.138  0.000  0.138
   38  0.000  0.561  0.000  0.561
tot    0.000  0.700  0.004  0.704
 
band     5 # energy   -8.08865761 # occ.  2.00000000
 
ion      s      p      d    tot
    1  0.000  0.000  0.000  0.000
    2  0.000  0.000  0.000  0.000
    3  0.000  0.000  0.000  0.000
    4  0.000  0.000  0.000  0.000
    5  0.000  0.000  0.000  0.000
    6  0.000  0.000  0.000  0.000
    7  0.000  0.000  0.000  0.000
    8  0.000  0.000  0.000  0.000
    9  0.000  0.000  0.000  0.000
   10  0.000  0.000  0.000  0.000
   11  0.000  0.000  0.000  0.000
   12  0.000  0.000  0.000  0.000
   13  0.000  0.000  0.000  0.000
   14  0.000  0.000  0.000  0.000
   15  0.000  0.000  0.000  0.000
   16  0.000  0.000  0.000  0.000
   17  0.000  0.000  0.000  0.000
   18  0.000  0.000  0.000  0.000
   19  0.000  0.000  0.000  0.000
   20  0.000  0.000  0.000  0.000
   21  0.000  0.000  0.000  0.000
   22  0.000  0.000  0.000  0.000
   23  0.000  0.000  0.000  0.000
   24  0.000  0.000  0.000  0.000
   25  0.000  0.000  0.000  0.000
   26  0.000  0.000  0.000  0.000
   27  0.000  0.000  0.000  0.000
   28  0.000  0.000  0.000  0.000
   29  0.000  0.000  0.000  0.000
   30  0.000  0.000  0.000  0.000
   31  0.000  0.000  0.000  0.000
   32  0.000  0.000  0.000  0.000
   33  0.000  0.000  0.000  0.000
   34  0.000  0.000  0.000  0.000
   35  0.000  0.000  0.000  0.000
   36  0.000  0.001  0.003  0.004
   37  0.000  0.138  0.000  0.138
   38  0.000  0.561  0.000  0.561
tot    0.000  0.700  0.004  0.704
 
band     6 # energy   -7.07918506 # occ.  2.00000000
 
ion      s      p      d    tot
    1  0.017  0.001  0.000  0.019
    2  0.017  0.001  0.000  0.019
    3  0.017  0.001  0.000  0.019
    4  0.017  0.001  0.000  0.019
    5  0.017  0.001  0.000  0.019
    6  0.017  0.001  0.000  0.019
    7  0.017  0.001  0.000  0.019
    8  0.017  0.001  0.000  0.019
    9  0.017  0.001  0.000  0.018
   10  0.011  0.002  0.001  0.014
   11  0.011  0.002  0.001  0.014
   12  0.011  0.002  0.001  0.014
   13  0.011  0.002  0.001  0.014
   14  0.011  0.002  0.001  0.014
   15  0.011  0.002  0.001  0.013
   16  0.011  0.002  0.001  0.014
   17  0.011  0.002  0.001  0.013
   18  0.011  0.002  0.001  0.013
   19  0.009  0.003  0.000  0.011
   20  0.008  0.002  0.000  0.010
   21  0.008  0.002  0.000  0.010
   22  0.008  0.002  0.000  0.011
   23  0.008  0.002  0.000  0.010
   24  0.008  0.002  0.000  0.011
   25  0.009  0.003  0.000  0.011
   26  0.009  0.003  0.000  0.011
   27  0.008  0.002  0.000  0.011
   28  0.020  0.001  0.001  0.021
   29  0.020  0.001  0.001  0.022
   30  0.020  0.001  0.001  0.022
   31  0.020  0.001  0.001  0.022
   32  0.020  0.001  0.001  0.022
   33  0.020  0.001  0.001  0.022
   34  0.020  0.001  0.001  0.022
   35  0.019  0.001  0.001  0.021
   36  0.026  0.002  0.002  0.031
   37  0.001  0.000  0.000  0.001
   38  0.000  0.000  0.000  0.001
tot    0.517  0.054  0.021  0.591
 
band     7 # energy   -5.49736455 # occ.  2.00000000
 
ion      s      p      d    tot
    1  0.016  0.000  0.005  0.021
    2  0.016  0.000  0.005  0.021
    3  0.016  0.000  0.005  0.021
    4  0.016  0.000  0.005  0.021
    5  0.014  0.000  0.005  0.019
    6  0.016  0.000  0.005  0.021
    7  0.016  0.000  0.005  0.021
    8  0.016  0.000  0.005  0.021
    9  0.019  0.000  0.005  0.024
   10  0.003  0.004  0.001  0.008
   11  0.004  0.004  0.001  0.009
   12  0.003  0.004  0.001  0.008
   13  0.004  0.004  0.001  0.009
   14  0.004  0.004  0.001  0.009
   15  0.001  0.003  0.002  0.006
   16  0.003  0.004  0.001  0.008
   17  0.001  0.003  0.002  0.006
   18  0.001  0.003  0.002  0.006
   19  0.006  0.003  0.004  0.013
   20  0.010  0.003  0.004  0.017
   21  0.010  0.003  0.004  0.017
   22  0.004  0.003  0.004  0.010
   23  0.010  0.003  0.004  0.017
   24  0.004  0.003  0.004  0.010
   25  0.006  0.003  0.004  0.013
   26  0.006  0.003  0.004  0.013
   27  0.004  0.003  0.004  0.010
   28  0.016  0.000  0.007  0.023
   29  0.018  0.000  0.009  0.027
   30  0.018  0.000  0.009  0.027
   31  0.018  0.000  0.009  0.027
   32  0.018  0.000  0.009  0.027
   33  0.018  0.000  0.009  0.027
   34  0.018  0.000  0.009  0.027
   35  0.020  0.000  0.007  0.027
   36  0.024  0.000  0.013  0.037
   37  0.003  0.002  0.000  0.005
   38  0.000  0.000  0.000  0.001
tot    0.400  0.064  0.176  0.639
 
band     8 # energy   -5.36397898 # occ.  2.00000000
 
ion      s      p      d    tot
    1  0.000  0.003  0.004  0.007
    2  0.005  0.002  0.002  0.009
    3  0.007  0.002  0.002  0.010
    4  0.006  0.002  0.002  0.009
    5  0.000  0.000  0.002  0.002
    6  0.000  0.001  0.002  0.002
    7  0.007  0.002  0.002  0.011
    8  0.000  0.001  0.002  0.002
    9  0.000  0.001  0.004  0.005
   10  0.042  0.001  0.006  0.049
   11  0.000  0.007  0.004  0.011
   12  0.010  0.008  0.006  0.024
   13  0.000  0.007  0.004  0.011
   14  0.000  0.001  0.004  0.005
   15  0.010  0.001  0.011  0.023
   16  0.011  0.007  0.006  0.025
   17  0.010  0.001  0.011  0.022
   18  0.040  0.005  0.002  0.047
   19  0.017  0.005  0.011  0.033
   20  0.024  0.004  0.003  0.031
   21  0.006  0.002  0.012  0.020
   22  0.002  0.011  0.002  0.015
   23  0.006  0.002  0.012  0.021
   24  0.010  0.000  0.006  0.016
   25  0.066  0.003  0.005  0.074
   26  0.016  0.005  0.011  0.032
   27  0.003  0.010  0.002  0.015
   28  0.000  0.005  0.007  0.011
   29  0.007  0.002  0.003  0.012
   30  0.016  0.003  0.005  0.023
   31  0.007  0.002  0.003  0.013
   32  0.002  0.001  0.004  0.007
   33  0.016  0.003  0.005  0.023
   34  0.002  0.001  0.004  0.007
   35  0.000  0.002  0.004  0.006
   36  0.000  0.001  0.009  0.009
   37  0.000  0.000  0.000  0.000
   38  0.000  0.000  0.000  0.000
tot    0.347  0.113  0.183  0.643
 
band     9 # energy   -5.36386726 # occ.  2.00000000
 
ion      s      p      d    tot
    1  0.000  0.003  0.004  0.007
    2  0.003  0.001  0.002  0.006
    3  0.001  0.001  0.002  0.004
    4  0.003  0.001  0.002  0.005
    5  0.000  0.000  0.002  0.002
    6  0.008  0.002  0.002  0.012
    7  0.001  0.001  0.002  0.004
    8  0.008  0.002  0.002  0.012
    9  0.000  0.001  0.004  0.005
   10  0.000  0.009  0.006  0.016
   11  0.000  0.003  0.004  0.007
   12  0.032  0.003  0.006  0.041
   13  0.000  0.003  0.004  0.007
   14  0.000  0.009  0.004  0.012
   15  0.030  0.003  0.005  0.038
   16  0.031  0.004  0.006  0.040
   17  0.031  0.003  0.005  0.039
   18  0.000  0.000  0.014  0.014
   19  0.049  0.004  0.007  0.060
   20  0.000  0.002  0.015  0.017
   21  0.018  0.004  0.006  0.027
   22  0.008  0.003  0.005  0.016
   23  0.018  0.004  0.006  0.027
   24  0.000  0.014  0.001  0.014
   25  0.000  0.006  0.012  0.018
   26  0.050  0.004  0.007  0.061
   27  0.007  0.004  0.005  0.016
   28  0.000  0.005  0.007  0.011
   29  0.009  0.002  0.005  0.016
   30  0.001  0.001  0.003  0.005
   31  0.009  0.002  0.005  0.016
   32  0.014  0.003  0.004  0.021
   33  0.001  0.001  0.003  0.005
   34  0.015  0.003  0.004  0.022
   35  0.000  0.002  0.004  0.006
   36  0.000  0.001  0.009  0.009
   37  0.000  0.000  0.000  0.000
   38  0.000  0.000  0.000  0.000
tot    0.347  0.113  0.183  0.643
 
band    10 # energy   -5.33526004 # occ.  2.00000000
 
ion      s      p      d    tot
    1  0.020  0.003  0.001  0.024
    2  0.000  0.002  0.004  0.005
    3  0.000  0.002  0.004  0.005
    4  0.000  0.002  0.004  0.005
    5  0.004  0.001  0.001  0.006
    6  0.000  0.002  0.004  0.005
    7  0.000  0.002  0.004  0.005
    8  0.000  0.002  0.004  0.005
    9  0.005  0.001  0.000  0.005
   10  0.029  0.008  0.004  0.040
   11  0.011  0.000  0.011  0.022
   12  0.030  0.007  0.004  0.041
   13  0.011  0.000  0.011  0.022
   14  0.010  0.000  0.011  0.022
   15  0.005  0.006  0.005  0.017
   16  0.030  0.007  0.004  0.041
   17  0.005  0.006  0.005  0.016
   18  0.005  0.006  0.005  0.017
   19  0.028  0.009  0.003  0.040
   20  0.002  0.004  0.008  0.015
   21  0.002  0.004  0.008  0.014
   22  0.019  0.001  0.010  0.030
   23  0.002  0.004  0.008  0.014
   24  0.018  0.001  0.010  0.029
   25  0.028  0.009  0.003  0.040
   26  0.028  0.009  0.003  0.040
   27  0.018  0.001  0.011  0.030
   28  0.022  0.003  0.001  0.026
   29  0.000  0.002  0.005  0.007
   30  0.000  0.002  0.005  0.007
   31  0.000  0.002  0.005  0.007
   32  0.000  0.002  0.005  0.007
   33  0.000  0.002  0.005  0.007
   34  0.000  0.002  0.005  0.007
   35  0.010  0.002  0.001  0.012
   36  0.002  0.001  0.000  0.003
   37  0.001  0.001  0.000  0.002
   38  0.000  0.000  0.000  0.000
tot    0.345  0.115  0.182  0.642
 
band    11 # energy   -5.32422453 # occ.  2.00000000
 
ion      s      p      d    tot
    1  0.000  0.000  0.003  0.003
    2  0.004  0.002  0.002  0.008
    3  0.007  0.002  0.002  0.010
    4  0.007  0.002  0.002  0.012
    5  0.000  0.003  0.005  0.008
    6  0.001  0.001  0.002  0.004
    7  0.009  0.002  0.002  0.013
    8  0.000  0.001  0.002  0.003
    9  0.000  0.002  0.003  0.004
   10  0.000  0.003  0.011  0.015
   11  0.034  0.004  0.008  0.046
   12  0.013  0.003  0.004  0.020
   13  0.052  0.004  0.005  0.061
   14  0.002  0.004  0.013  0.018
   15  0.008  0.005  0.004  0.018
   16  0.009  0.003  0.006  0.019
   17  0.013  0.002  0.006  0.020
   18  0.000  0.012  0.002  0.015
   19  0.001  0.005  0.005  0.010
   20  0.001  0.012  0.004  0.018
   21  0.037  0.002  0.007  0.047
   22  0.049  0.004  0.004  0.057
   23  0.024  0.006  0.006  0.036
   24  0.002  0.000  0.017  0.019
   25  0.000  0.008  0.006  0.015
   26  0.001  0.003  0.004  0.008
   27  0.032  0.003  0.009  0.044
   28  0.000  0.000  0.003  0.003
   29  0.004  0.002  0.003  0.008
   30  0.009  0.003  0.004  0.016
   31  0.008  0.002  0.003  0.013
   32  0.002  0.001  0.004  0.007
   33  0.011  0.003  0.004  0.018
   34  0.000  0.001  0.003  0.004
   35  0.000  0.002  0.006  0.008
   36  0.000  0.005  0.007  0.013
   37  0.000  0.000  0.000  0.000
   38  0.000  0.000  0.000  0.000
tot    0.342  0.117  0.182  0.642
 
band    12 # energy   -5.32411152 # occ.  2.00000000
 
ion      s      p      d    tot
    1  0.000  0.000  0.003  0.003
    2  0.005  0.002  0.002  0.009
    3  0.003  0.001  0.002  0.006
    4  0.002  0.001  0.002  0.005
    5  0.000  0.003  0.005  0.008
    6  0.008  0.002  0.002  0.013
    7  0.000  0.001  0.002  0.003
    8  0.009  0.002  0.002  0.014
    9  0.000  0.002  0.003  0.004
   10  0.015  0.003  0.003  0.021
   11  0.024  0.004  0.009  0.037
   12  0.002  0.003  0.011  0.015
   13  0.007  0.004  0.012  0.022
   14  0.057  0.004  0.004  0.065
   15  0.006  0.008  0.004  0.017
   16  0.006  0.003  0.008  0.017
   17  0.002  0.011  0.002  0.015
   18  0.014  0.001  0.006  0.020
   19  0.000  0.006  0.006  0.012
   20  0.040  0.001  0.007  0.049
   21  0.005  0.011  0.005  0.021
   22  0.006  0.001  0.016  0.023
   23  0.018  0.008  0.006  0.031
   24  0.054  0.005  0.003  0.061
   25  0.001  0.002  0.004  0.007
   26  0.000  0.008  0.006  0.014
   27  0.023  0.002  0.011  0.036
   28  0.000  0.000  0.003  0.003
   29  0.007  0.002  0.004  0.014
   30  0.002  0.001  0.003  0.006
   31  0.003  0.002  0.004  0.009
   32  0.010  0.003  0.003  0.015
   33  0.000  0.001  0.003  0.004
   34  0.012  0.003  0.003  0.018
   35  0.000  0.002  0.006  0.008
   36  0.000  0.005  0.007  0.013
   37  0.000  0.000  0.000  0.000
   38  0.000  0.000  0.000  0.000
tot    0.342  0.117  0.182  0.642
 
band    13 # energy   -5.29580955 # occ.  2.00000000
 
ion      s      p      d    tot
    1  0.000  0.000  0.000  0.000
    2  0.000  0.002  0.004  0.006
    3  0.000  0.002  0.004  0.006
    4  0.000  0.002  0.004  0.006
    5  0.017  0.002  0.000  0.020
    6  0.000  0.002  0.004  0.006
    7  0.000  0.002  0.004  0.006
    8  0.000  0.002  0.004  0.006
    9  0.011  0.002  0.001  0.015
   10  0.000  0.002  0.010  0.011
   11  0.017  0.008  0.002  0.028
   12  0.000  0.002  0.010  0.011
   13  0.017  0.008  0.002  0.028
   14  0.017  0.008  0.002  0.028
   15  0.026  0.003  0.008  0.036
   16  0.000  0.002  0.010  0.011
   17  0.026  0.003  0.008  0.036
   18  0.026  0.003  0.008  0.036
   19  0.003  0.001  0.011  0.014
   20  0.026  0.004  0.007  0.037
   21  0.026  0.004  0.007  0.037
   22  0.015  0.008  0.002  0.025
   23  0.026  0.004  0.007  0.037
   24  0.015  0.008  0.002  0.025
   25  0.003  0.001  0.011  0.014
   26  0.003  0.001  0.011  0.014
   27  0.015  0.008  0.002  0.025
   28  0.000  0.000  0.001  0.001
   29  0.000  0.002  0.004  0.006
   30  0.000  0.002  0.004  0.006
   31  0.000  0.002  0.004  0.006
   32  0.000  0.002  0.004  0.006
   33  0.000  0.002  0.004  0.006
   34  0.000  0.002  0.004  0.006
   35  0.009  0.002  0.001  0.011
   36  0.023  0.004  0.002  0.029
   37  0.020  0.017  0.000  0.037
   38  0.001  0.004  0.000  0.006
tot    0.344  0.128  0.171  0.643
 
band    14 # energy   -5.09587881 # occ.  2.00000000
 
ion      s      p      d    tot
    1  0.000  0.000  0.000  0.000
    2  0.000  0.000  0.001  0.001
    3  0.000  0.000  0.001  0.001
    4  0.000  0.000  0.001  0.001
    5  0.006  0.000  0.000  0.006
    6  0.000  0.000  0.001  0.001
    7  0.000  0.000  0.001  0.001
    8  0.000  0.000  0.001  0.001
    9  0.001  0.000  0.001  0.001
   10  0.000  0.000  0.001  0.002
   11  0.002  0.001  0.001  0.004
   12  0.000  0.000  0.001  0.002
   13  0.002  0.001  0.001  0.004
   14  0.002  0.001  0.001  0.004
   15  0.004  0.000  0.002  0.005
   16  0.000  0.000  0.001  0.002
   17  0.004  0.000  0.002  0.005
   18  0.004  0.000  0.002  0.005
   19  0.000  0.000  0.001  0.001
   20  0.001  0.000  0.002  0.003
   21  0.001  0.000  0.002  0.003
   22  0.000  0.001  0.001  0.002
   23  0.001  0.000  0.002  0.003
   24  0.000  0.001  0.001  0.002
   25  0.000  0.000  0.001  0.001
   26  0.000  0.000  0.001  0.001
   27  0.000  0.001  0.001  0.002
   28  0.001  0.000  0.000  0.001
   29  0.000  0.000  0.000  0.001
   30  0.000  0.000  0.000  0.001
   31  0.000  0.000  0.000  0.001
   32  0.000  0.000  0.000  0.001
   33  0.000  0.000  0.000  0.001
   34  0.000  0.000  0.000  0.001
   35  0.000  0.000  0.000  0.001
   36  0.000  0.003  0.006  0.009
   37  0.186  0.212  0.000  0.397
   38  0.005  0.085  0.000  0.090
tot    0.228  0.311  0.034  0.573
 
band    15 # energy   -4.64395321 # occ.  2.00000000
 
ion      s      p      d    tot
    1  0.000  0.004  0.009  0.013
    2  0.003  0.002  0.005  0.010
    3  0.020  0.004  0.005  0.029
    4  0.005  0.002  0.005  0.012
    5  0.000  0.000  0.010  0.010
    6  0.007  0.002  0.005  0.014
    7  0.020  0.004  0.005  0.028
    8  0.005  0.002  0.005  0.011
    9  0.000  0.005  0.008  0.013
   10  0.013  0.001  0.006  0.020
   11  0.001  0.002  0.012  0.015
   12  0.002  0.004  0.014  0.020
   13  0.001  0.003  0.013  0.016
   14  0.004  0.001  0.007  0.012
   15  0.010  0.002  0.016  0.027
   16  0.004  0.004  0.012  0.020
   17  0.005  0.001  0.018  0.024
   18  0.029  0.004  0.004  0.038
   19  0.003  0.002  0.011  0.017
   20  0.000  0.001  0.010  0.011
   21  0.000  0.002  0.013  0.015
   22  0.001  0.002  0.025  0.028
   23  0.000  0.001  0.013  0.014
   24  0.006  0.003  0.002  0.011
   25  0.010  0.007  0.010  0.026
   26  0.002  0.001  0.012  0.015
   27  0.002  0.002  0.021  0.025
   28  0.000  0.005  0.008  0.012
   29  0.005  0.002  0.009  0.016
   30  0.028  0.003  0.012  0.043
   31  0.008  0.002  0.010  0.020
   32  0.010  0.002  0.009  0.021
   33  0.028  0.003  0.012  0.043
   34  0.006  0.002  0.009  0.017
   35  0.000  0.005  0.010  0.016
   36  0.000  0.000  0.021  0.021
   37  0.000  0.000  0.000  0.000
   38  0.000  0.000  0.000  0.000
tot    0.237  0.092  0.377  0.706
 
band    16 # energy   -4.64388224 # occ.  2.00000000
 
ion      s      p      d    tot
    1  0.000  0.004  0.009  0.013
    2  0.017  0.003  0.005  0.025
    3  0.000  0.001  0.005  0.006
    4  0.015  0.003  0.005  0.022
    5  0.000  0.000  0.010  0.010
    6  0.012  0.003  0.005  0.020
    7  0.000  0.002  0.005  0.006
    8  0.015  0.003  0.005  0.024
    9  0.000  0.005  0.008  0.013
   10  0.000  0.005  0.015  0.020
   11  0.002  0.002  0.009  0.013
   12  0.010  0.002  0.008  0.020
   13  0.003  0.002  0.008  0.013
   14  0.000  0.003  0.014  0.017
   15  0.020  0.003  0.010  0.033
   16  0.009  0.002  0.009  0.020
   17  0.024  0.004  0.007  0.035
   18  0.000  0.000  0.021  0.021
   19  0.006  0.005  0.010  0.022
   20  0.000  0.002  0.014  0.016
   21  0.000  0.001  0.011  0.012
   22  0.005  0.003  0.007  0.015
   23  0.000  0.001  0.011  0.013
   24  0.000  0.001  0.030  0.032
   25  0.000  0.000  0.012  0.012
   26  0.008  0.006  0.010  0.024
   27  0.004  0.002  0.011  0.018
   28  0.000  0.005  0.008  0.012
   29  0.023  0.003  0.011  0.037
   30  0.000  0.002  0.008  0.010
   31  0.020  0.003  0.011  0.033
   32  0.018  0.003  0.011  0.032
   33  0.000  0.002  0.008  0.011
   34  0.022  0.003  0.011  0.036
   35  0.000  0.005  0.010  0.016
   36  0.000  0.000  0.021  0.021
   37  0.000  0.000  0.000  0.000
   38  0.000  0.000  0.000  0.000
tot    0.237  0.092  0.377  0.706
 
band    17 # energy   -4.61401182 # occ.  2.00000000
 
ion      s      p      d    tot
    1  0.005  0.001  0.011  0.016
    2  0.006  0.001  0.010  0.017
    3  0.006  0.001  0.010  0.017
    4  0.006  0.001  0.010  0.017
    5  0.003  0.001  0.010  0.014
    6  0.006  0.001  0.010  0.017
    7  0.006  0.001  0.010  0.017
    8  0.006  0.001  0.010  0.017
    9  0.013  0.000  0.009  0.022
   10  0.009  0.000  0.025  0.034
   11  0.009  0.000  0.022  0.031
   12  0.009  0.000  0.025  0.034
   13  0.009  0.000  0.022  0.031
   14  0.009  0.000  0.022  0.031
   15  0.004  0.000  0.023  0.028
   16  0.009  0.000  0.025  0.034
   17  0.004  0.000  0.023  0.028
   18  0.004  0.000  0.023  0.028
   19  0.006  0.000  0.020  0.026
   20  0.008  0.000  0.024  0.032
   21  0.008  0.000  0.024  0.032
   22  0.003  0.000  0.018  0.022
   23  0.008  0.000  0.024  0.032
   24  0.003  0.000  0.018  0.022
   25  0.006  0.000  0.020  0.026
   26  0.006  0.000  0.020  0.026
   27  0.003  0.000  0.018  0.022
   28  0.001  0.001  0.006  0.008
   29  0.003  0.001  0.009  0.012
   30  0.003  0.001  0.009  0.012
   31  0.003  0.001  0.009  0.012
   32  0.003  0.001  0.009  0.012
   33  0.003  0.001  0.009  0.012
   34  0.003  0.001  0.009  0.012
   35  0.006  0.000  0.006  0.012
   36  0.004  0.001  0.010  0.014
   37  0.000  0.000  0.000  0.000
   38  0.000  0.000  0.000  0.000
tot    0.206  0.013  0.562  0.780
 
band    18 # energy   -4.58025007 # occ.  2.00000000
 
ion      s      p      d    tot
    1  0.033  0.003  0.000  0.036
    2  0.000  0.003  0.010  0.012
    3  0.000  0.003  0.009  0.013
    4  0.000  0.003  0.010  0.012
    5  0.000  0.000  0.001  0.001
    6  0.000  0.003  0.009  0.012
    7  0.000  0.003  0.009  0.013
    8  0.000  0.003  0.009  0.012
    9  0.027  0.004  0.001  0.031
   10  0.009  0.003  0.010  0.022
   11  0.001  0.000  0.015  0.016
   12  0.009  0.003  0.010  0.022
   13  0.001  0.000  0.015  0.016
   14  0.001  0.000  0.015  0.016
   15  0.009  0.003  0.014  0.026
   16  0.009  0.003  0.010  0.022
   17  0.009  0.003  0.014  0.026
   18  0.009  0.003  0.014  0.026
   19  0.003  0.003  0.021  0.027
   20  0.000  0.000  0.013  0.013
   21  0.000  0.000  0.013  0.014
   22  0.010  0.004  0.008  0.022
   23  0.000  0.000  0.013  0.014
   24  0.010  0.004  0.008  0.022
   25  0.003  0.003  0.021  0.027
   26  0.003  0.003  0.021  0.027
   27  0.010  0.004  0.008  0.022
   28  0.038  0.003  0.000  0.041
   29  0.000  0.003  0.015  0.018
   30  0.000  0.003  0.015  0.018
   31  0.000  0.003  0.015  0.018
   32  0.000  0.003  0.015  0.018
   33  0.000  0.003  0.015  0.018
   34  0.000  0.003  0.015  0.018
   35  0.029  0.003  0.000  0.033
   36  0.000  0.000  0.000  0.000
   37  0.000  0.000  0.000  0.000
   38  0.000  0.000  0.000  0.000
tot    0.223  0.091  0.394  0.707
 
band    19 # energy   -4.57516488 # occ.  2.00000000
 
ion      s      p      d    tot
    1  0.000  0.002  0.009  0.011
    2  0.000  0.002  0.005  0.007
    3  0.020  0.004  0.005  0.029
    4  0.009  0.003  0.005  0.017
    5  0.000  0.006  0.009  0.015
    6  0.013  0.003  0.005  0.021
    7  0.018  0.004  0.005  0.026
    8  0.002  0.002  0.005  0.009
    9  0.000  0.001  0.011  0.012
   10  0.001  0.001  0.017  0.019
   11  0.010  0.003  0.015  0.028
   12  0.015  0.004  0.008  0.027
   13  0.021  0.004  0.006  0.030
   14  0.002  0.002  0.023  0.027
   15  0.000  0.002  0.012  0.015
   16  0.007  0.002  0.013  0.022
   17  0.001  0.000  0.008  0.009
   18  0.000  0.004  0.015  0.019
   19  0.001  0.002  0.016  0.019
   20  0.002  0.001  0.030  0.033
   21  0.017  0.005  0.007  0.029
   22  0.007  0.004  0.011  0.022
   23  0.008  0.003  0.020  0.031
   24  0.001  0.001  0.012  0.013
   25  0.000  0.003  0.023  0.025
   26  0.002  0.000  0.008  0.010
   27  0.004  0.002  0.011  0.017
   28  0.000  0.002  0.014  0.016
   29  0.001  0.001  0.007  0.009
   30  0.019  0.004  0.008  0.030
   31  0.011  0.003  0.007  0.020
   32  0.012  0.003  0.007  0.022
   33  0.018  0.004  0.008  0.030
   34  0.001  0.002  0.007  0.010
   35  0.000  0.001  0.011  0.012
   36  0.000  0.009  0.010  0.020
   37  0.000  0.000  0.000  0.000
   38  0.000  0.000  0.000  0.000
tot    0.222  0.096  0.394  0.712
 
band    20 # energy   -4.57511778 # occ.  2.00000000
 
ion      s      p      d    tot
    1  0.000  0.002  0.009  0.011
    2  0.021  0.004  0.005  0.029
    3  0.001  0.002  0.005  0.007
    4  0.012  0.003  0.005  0.019
    5  0.000  0.006  0.009  0.015
    6  0.007  0.002  0.005  0.015
    7  0.003  0.002  0.005  0.010
    8  0.019  0.004  0.005  0.028
    9  0.000  0.001  0.011  0.012
   10  0.014  0.004  0.009  0.026
   11  0.012  0.003  0.014  0.028
   12  0.001  0.001  0.017  0.019
   13  0.001  0.002  0.024  0.027
   14  0.020  0.004  0.006  0.030
   15  0.000  0.002  0.012  0.014
   16  0.008  0.002  0.012  0.023
   17  0.000  0.004  0.016  0.020
   18  0.001  0.000  0.009  0.010
   19  0.001  0.001  0.015  0.017
   20  0.016  0.005  0.008  0.029
   21  0.001  0.001  0.031  0.033
   22  0.000  0.001  0.012  0.013
   23  0.010  0.003  0.018  0.031
   24  0.007  0.004  0.011  0.022
   25  0.002  0.000  0.008  0.010
   26  0.000  0.003  0.023  0.026
   27  0.004  0.002  0.011  0.018
   28  0.000  0.002  0.014  0.016
   29  0.020  0.004  0.008  0.031
   30  0.002  0.002  0.007  0.010
   31  0.010  0.003  0.007  0.020
   32  0.009  0.002  0.007  0.018
   33  0.002  0.002  0.007  0.011
   34  0.019  0.004  0.008  0.031
   35  0.000  0.001  0.011  0.012
   36  0.000  0.009  0.010  0.020
   37  0.000  0.000  0.000  0.000
   38  0.000  0.000  0.000  0.000
tot    0.222  0.096  0.394  0.712
 
band    21 # energy   -4.47807802 # occ.  2.00000000
 
ion      s      p      d    tot
    1  0.013  0.001  0.000  0.015
    2  0.000  0.003  0.010  0.013
    3  0.000  0.003  0.010  0.013
    4  0.000  0.003  0.010  0.013
    5  0.043  0.004  0.000  0.048
    6  0.000  0.003  0.010  0.013
    7  0.000  0.003  0.010  0.013
    8  0.000  0.003  0.010  0.013
    9  0.006  0.001  0.001  0.008
   10  0.001  0.001  0.022  0.024
   11  0.007  0.004  0.015  0.027
   12  0.001  0.001  0.022  0.024
   13  0.007  0.004  0.015  0.027
   14  0.007  0.004  0.015  0.027
   15  0.004  0.001  0.010  0.015
   16  0.001  0.001  0.022  0.024