PROCAR new format
# of k-points:   10         # of bands:  252         # of ions:   37

 k-point     1 :    0.00000000 0.00000000 0.00000000     weight = 0.01562500

band     1 # energy  -13.13495328 # occ.  2.00000000
 
ion      s      p      d    tot
    1  0.000  0.000  0.000  0.000
    2  0.000  0.000  0.000  0.000
    3  0.000  0.000  0.000  0.000
    4  0.000  0.000  0.000  0.000
    5  0.000  0.000  0.000  0.000
    6  0.000  0.000  0.000  0.000
    7  0.000  0.000  0.000  0.000
    8  0.000  0.000  0.000  0.000
    9  0.000  0.000  0.000  0.000
   10  0.000  0.000  0.000  0.000
   11  0.000  0.000  0.000  0.000
   12  0.000  0.000  0.000  0.000
   13  0.000  0.000  0.000  0.000
   14  0.000  0.000  0.000  0.000
   15  0.000  0.000  0.000  0.000
   16  0.000  0.000  0.000  0.000
   17  0.000  0.000  0.000  0.000
   18  0.000  0.000  0.000  0.000
   19  0.000  0.000  0.000  0.000
   20  0.000  0.000  0.000  0.000
   21  0.000  0.000  0.000  0.000
   22  0.000  0.000  0.000  0.000
   23  0.000  0.000  0.000  0.000
   24  0.000  0.000  0.000  0.000
   25  0.000  0.000  0.000  0.000
   26  0.000  0.000  0.000  0.000
   27  0.000  0.000  0.000  0.000
   28  0.000  0.000  0.000  0.000
   29  0.000  0.000  0.000  0.000
   30  0.000  0.000  0.000  0.000
   31  0.000  0.000  0.000  0.000
   32  0.000  0.000  0.000  0.000
   33  0.000  0.000  0.000  0.000
   34  0.000  0.000  0.000  0.000
   35  0.000  0.000  0.000  0.000
   36  0.055  0.066  0.146  0.267
   37  0.609  0.022  0.000  0.632
tot    0.665  0.088  0.147  0.901
 
band     2 # energy   -8.11819363 # occ.  2.00000000
 
ion      s      p      d    tot
    1  0.007  0.001  0.000  0.007
    2  0.007  0.001  0.000  0.007
    3  0.007  0.001  0.000  0.007
    4  0.007  0.001  0.000  0.007
    5  0.007  0.001  0.000  0.007
    6  0.007  0.001  0.000  0.007
    7  0.007  0.001  0.000  0.007
    8  0.007  0.001  0.000  0.007
    9  0.007  0.001  0.000  0.007
   10  0.027  0.000  0.000  0.027
   11  0.027  0.000  0.000  0.027
   12  0.027  0.000  0.000  0.027
   13  0.027  0.000  0.000  0.027
   14  0.027  0.000  0.000  0.027
   15  0.027  0.000  0.000  0.027
   16  0.027  0.000  0.000  0.027
   17  0.027  0.000  0.000  0.027
   18  0.027  0.000  0.000  0.027
   19  0.025  0.000  0.000  0.025
   20  0.024  0.000  0.000  0.025
   21  0.024  0.000  0.000  0.025
   22  0.024  0.000  0.000  0.025
   23  0.024  0.000  0.000  0.025
   24  0.024  0.000  0.000  0.025
   25  0.025  0.000  0.000  0.025
   26  0.025  0.000  0.000  0.025
   27  0.024  0.000  0.000  0.025
   28  0.005  0.000  0.000  0.005
   29  0.005  0.000  0.000  0.005
   30  0.005  0.000  0.000  0.005
   31  0.005  0.000  0.000  0.005
   32  0.005  0.000  0.000  0.005
   33  0.005  0.000  0.000  0.005
   34  0.005  0.000  0.000  0.005
   35  0.005  0.000  0.000  0.005
   36  0.003  0.001  0.000  0.005
   37  0.001  0.000  0.000  0.001
tot    0.564  0.012  0.003  0.580
 
band     3 # energy   -6.94526355 # occ.  2.00000000
 
ion      s      p      d    tot
    1  0.017  0.000  0.001  0.018
    2  0.017  0.000  0.001  0.018
    3  0.017  0.000  0.001  0.018
    4  0.017  0.000  0.001  0.018
    5  0.017  0.000  0.001  0.018
    6  0.017  0.000  0.001  0.018
    7  0.017  0.000  0.001  0.018
    8  0.017  0.000  0.001  0.018
    9  0.017  0.000  0.001  0.018
   10  0.010  0.002  0.002  0.014
   11  0.010  0.001  0.002  0.014
   12  0.010  0.002  0.002  0.014
   13  0.010  0.001  0.002  0.014
   14  0.010  0.001  0.002  0.014
   15  0.010  0.002  0.002  0.014
   16  0.010  0.002  0.002  0.014
   17  0.010  0.002  0.002  0.014
   18  0.010  0.002  0.002  0.014
   19  0.015  0.001  0.003  0.020
   20  0.014  0.001  0.004  0.018
   21  0.014  0.001  0.004  0.018
   22  0.015  0.001  0.003  0.020
   23  0.014  0.001  0.004  0.018
   24  0.015  0.001  0.003  0.020
   25  0.015  0.001  0.003  0.020
   26  0.015  0.001  0.003  0.020
   27  0.015  0.001  0.003  0.020
   28  0.015  0.001  0.001  0.017
   29  0.014  0.001  0.001  0.015
   30  0.014  0.001  0.001  0.015
   31  0.014  0.001  0.001  0.015
   32  0.014  0.001  0.001  0.015
   33  0.014  0.001  0.001  0.015
   34  0.014  0.001  0.001  0.015
   35  0.016  0.001  0.001  0.017
   36  0.008  0.001  0.002  0.011
   37  0.001  0.000  0.000  0.001
tot    0.495  0.033  0.070  0.598
 
band     4 # energy   -6.01129948 # occ.  2.00000000
 
ion      s      p      d    tot
    1  0.006  0.000  0.018  0.024
    2  0.015  0.000  0.014  0.029
    3  0.015  0.000  0.014  0.029
    4  0.015  0.000  0.014  0.029
    5  0.013  0.000  0.011  0.024
    6  0.015  0.000  0.014  0.029
    7  0.015  0.000  0.014  0.029
    8  0.015  0.000  0.014  0.029
    9  0.030  0.000  0.010  0.041
   10  0.014  0.001  0.012  0.026
   11  0.008  0.001  0.012  0.022
   12  0.014  0.001  0.012  0.026
   13  0.008  0.001  0.012  0.022
   14  0.008  0.001  0.012  0.022
   15  0.000  0.001  0.015  0.016
   16  0.014  0.001  0.012  0.026
   17  0.000  0.001  0.015  0.016
   18  0.000  0.001  0.015  0.016
   19  0.001  0.001  0.006  0.008
   20  0.010  0.001  0.007  0.017
   21  0.010  0.001  0.007  0.017
   22  0.003  0.001  0.002  0.005
   23  0.010  0.001  0.007  0.017
   24  0.002  0.001  0.002  0.005
   25  0.001  0.001  0.006  0.008
   26  0.001  0.001  0.006  0.008
   27  0.003  0.001  0.002  0.005
   28  0.010  0.000  0.003  0.014
   29  0.009  0.000  0.006  0.015
   30  0.009  0.000  0.006  0.015
   31  0.009  0.000  0.006  0.015
   32  0.009  0.000  0.006  0.015
   33  0.009  0.000  0.006  0.015
   34  0.009  0.000  0.006  0.015
   35  0.019  0.000  0.004  0.023
   36  0.000  0.001  0.018  0.019
   37  0.000  0.002  0.000  0.002
tot    0.324  0.025  0.344  0.693
 
band     5 # energy   -5.98410253 # occ.  2.00000000
 
ion      s      p      d    tot
    1  0.023  0.000  0.004  0.027
    2  0.007  0.000  0.010  0.017
    3  0.007  0.000  0.010  0.017
    4  0.007  0.000  0.010  0.017
    5  0.006  0.000  0.011  0.017
    6  0.007  0.000  0.010  0.017
    7  0.007  0.000  0.010  0.017
    8  0.007  0.000  0.010  0.017
    9  0.000  0.001  0.010  0.012
   10  0.001  0.000  0.031  0.032
   11  0.003  0.001  0.022  0.026
   12  0.001  0.000  0.031  0.032
   13  0.003  0.001  0.022  0.026
   14  0.003  0.001  0.022  0.025
   15  0.026  0.001  0.010  0.038
   16  0.001  0.000  0.031  0.032
   17  0.026  0.001  0.010  0.038
   18  0.026  0.001  0.010  0.038
   19  0.005  0.001  0.016  0.022
   20  0.014  0.000  0.019  0.033
   21  0.014  0.000  0.019  0.033
   22  0.004  0.001  0.014  0.019
   23  0.014  0.000  0.019  0.033
   24  0.004  0.001  0.014  0.019
   25  0.005  0.001  0.016  0.022
   26  0.005  0.001  0.016  0.022
   27  0.004  0.001  0.014  0.019
   28  0.001  0.000  0.001  0.002
   29  0.002  0.000  0.004  0.006
   30  0.002  0.000  0.004  0.006
   31  0.002  0.000  0.004  0.006
   32  0.002  0.000  0.004  0.006
   33  0.002  0.000  0.004  0.006
   34  0.002  0.000  0.004  0.006
   35  0.011  0.000  0.001  0.012
   36  0.000  0.002  0.013  0.015
   37  0.001  0.002  0.000  0.003
tot    0.253  0.020  0.461  0.735
 
band     6 # energy   -5.97055645 # occ.  2.00000000
 
ion      s      p      d    tot
    1  0.000  0.001  0.010  0.011
    2  0.006  0.001  0.003  0.010
    3  0.000  0.000  0.003  0.003
    4  0.006  0.001  0.003  0.010
    5  0.000  0.001  0.004  0.005
    6  0.005  0.001  0.004  0.010
    7  0.000  0.000  0.003  0.003
    8  0.005  0.001  0.004  0.010
    9  0.000  0.000  0.003  0.003
   10  0.054  0.002  0.004  0.060
   11  0.008  0.003  0.011  0.023
   12  0.014  0.001  0.032  0.046
   13  0.009  0.003  0.011  0.023
   14  0.035  0.000  0.014  0.049
   15  0.000  0.002  0.013  0.016
   16  0.013  0.001  0.032  0.046
   17  0.000  0.002  0.013  0.016
   18  0.002  0.001  0.010  0.012
   19  0.007  0.003  0.010  0.020
   20  0.054  0.002  0.005  0.061
   21  0.014  0.001  0.031  0.045
   22  0.001  0.001  0.014  0.017
   23  0.013  0.001  0.031  0.045
   24  0.004  0.001  0.008  0.013
   25  0.027  0.000  0.014  0.041
   26  0.007  0.003  0.010  0.020
   27  0.001  0.001  0.014  0.017
   28  0.000  0.001  0.003  0.003
   29  0.005  0.001  0.003  0.008
   30  0.004  0.001  0.003  0.007
   31  0.005  0.001  0.003  0.008
   32  0.000  0.000  0.003  0.003
   33  0.003  0.001  0.003  0.007
   34  0.000  0.000  0.003  0.003
   35  0.000  0.000  0.002  0.002
   36  0.000  0.001  0.014  0.015
   37  0.000  0.000  0.000  0.000
tot    0.302  0.042  0.350  0.695
 
band     7 # energy   -5.97053949 # occ.  2.00000000
 
ion      s      p      d    tot
    1  0.000  0.001  0.010  0.011
    2  0.002  0.001  0.003  0.006
    3  0.007  0.001  0.004  0.012
    4  0.002  0.001  0.003  0.006
    5  0.000  0.001  0.004  0.005
    6  0.002  0.001  0.003  0.005
    7  0.007  0.001  0.004  0.012
    8  0.002  0.001  0.003  0.006
    9  0.000  0.000  0.003  0.003
   10  0.000  0.000  0.041  0.042
   11  0.026  0.001  0.013  0.041
   12  0.040  0.002  0.014  0.055
   13  0.026  0.001  0.013  0.040
   14  0.000  0.004  0.010  0.015
   15  0.001  0.001  0.011  0.014
   16  0.041  0.002  0.013  0.055
   17  0.001  0.001  0.011  0.014
   18  0.000  0.002  0.014  0.017
   19  0.021  0.001  0.013  0.035
   20  0.000  0.001  0.039  0.040
   21  0.041  0.001  0.014  0.056
   22  0.003  0.001  0.010  0.014
   23  0.041  0.001  0.014  0.056
   24  0.000  0.002  0.016  0.018
   25  0.000  0.004  0.009  0.013
   26  0.020  0.001  0.013  0.034
   27  0.003  0.001  0.010  0.014
   28  0.000  0.001  0.003  0.003
   29  0.001  0.000  0.003  0.004
   30  0.002  0.001  0.003  0.005
   31  0.001  0.000  0.003  0.004
   32  0.005  0.001  0.003  0.009
   33  0.002  0.001  0.003  0.005
   34  0.005  0.001  0.003  0.009
   35  0.000  0.000  0.002  0.002
   36  0.000  0.001  0.014  0.015
   37  0.000  0.000  0.000  0.000
tot    0.302  0.042  0.350  0.695
 
band     8 # energy   -5.95591937 # occ.  2.00000000
 
ion      s      p      d    tot
    1  0.005  0.001  0.001  0.006
    2  0.000  0.001  0.006  0.007
    3  0.000  0.001  0.006  0.007
    4  0.000  0.001  0.006  0.007
    5  0.017  0.002  0.001  0.020
    6  0.000  0.001  0.006  0.006
    7  0.000  0.001  0.006  0.007
    8  0.000  0.001  0.006  0.006
    9  0.001  0.000  0.002  0.003
   10  0.021  0.003  0.004  0.027
   11  0.023  0.001  0.019  0.043
   12  0.020  0.003  0.003  0.027
   13  0.023  0.001  0.019  0.043
   14  0.022  0.001  0.019  0.042
   15  0.002  0.001  0.027  0.029
   16  0.020  0.003  0.003  0.027
   17  0.002  0.001  0.027  0.029
   18  0.002  0.001  0.027  0.029
   19  0.021  0.002  0.012  0.035
   20  0.012  0.003  0.009  0.024
   21  0.012  0.003  0.009  0.024
   22  0.007  0.000  0.024  0.032
   23  0.012  0.003  0.009  0.024
   24  0.007  0.000  0.025  0.032
   25  0.020  0.002  0.012  0.034
   26  0.021  0.002  0.012  0.035
   27  0.007  0.000  0.024  0.032
   28  0.016  0.001  0.000  0.018
   29  0.001  0.000  0.005  0.006
   30  0.001  0.000  0.005  0.006
   31  0.001  0.000  0.005  0.006
   32  0.001  0.000  0.005  0.006
   33  0.001  0.000  0.005  0.006
   34  0.001  0.000  0.005  0.006
   35  0.001  0.001  0.004  0.005
   36  0.000  0.000  0.001  0.002
   37  0.000  0.000  0.000  0.000
tot    0.300  0.040  0.355  0.695
 
band     9 # energy   -5.95472657 # occ.  2.00000000
 
ion      s      p      d    tot
    1  0.000  0.000  0.001  0.002
    2  0.006  0.001  0.003  0.010
    3  0.000  0.000  0.003  0.003
    4  0.006  0.001  0.003  0.011
    5  0.000  0.000  0.007  0.007
    6  0.006  0.001  0.004  0.011
    7  0.000  0.000  0.003  0.004
    8  0.006  0.001  0.004  0.011
    9  0.000  0.001  0.009  0.010
   10  0.000  0.004  0.002  0.006
   11  0.019  0.001  0.012  0.032
   12  0.006  0.001  0.012  0.019
   13  0.018  0.001  0.013  0.032
   14  0.000  0.000  0.036  0.036
   15  0.046  0.001  0.014  0.061
   16  0.006  0.001  0.013  0.020
   17  0.044  0.001  0.015  0.060
   18  0.000  0.002  0.031  0.034
   19  0.020  0.001  0.011  0.033
   20  0.000  0.004  0.003  0.007
   21  0.003  0.001  0.011  0.015
   22  0.037  0.002  0.014  0.053
   23  0.003  0.001  0.012  0.016
   24  0.000  0.003  0.027  0.029
   25  0.000  0.000  0.033  0.033
   26  0.020  0.001  0.012  0.033
   27  0.039  0.001  0.013  0.053
   28  0.000  0.000  0.005  0.006
   29  0.005  0.001  0.002  0.008
   30  0.004  0.001  0.003  0.008
   31  0.005  0.001  0.002  0.008
   32  0.000  0.000  0.002  0.002
   33  0.004  0.001  0.003  0.008
   34  0.000  0.000  0.002  0.002
   35  0.000  0.001  0.006  0.007
   36  0.000  0.000  0.001  0.001
   37  0.000  0.000  0.000  0.000
tot    0.302  0.042  0.349  0.693
 
band    10 # energy   -5.95471290 # occ.  2.00000000
 
ion      s      p      d    tot
    1  0.000  0.000  0.001  0.002
    2  0.002  0.001  0.004  0.006
    3  0.008  0.001  0.004  0.013
    4  0.002  0.001  0.004  0.006
    5  0.000  0.000  0.007  0.007
    6  0.002  0.001  0.003  0.006
    7  0.008  0.001  0.004  0.013
    8  0.002  0.001  0.003  0.006
    9  0.000  0.001  0.009  0.010
   10  0.007  0.000  0.016  0.023
   11  0.006  0.001  0.028  0.035
   12  0.002  0.003  0.006  0.011
   13  0.006  0.001  0.027  0.034
   14  0.025  0.002  0.005  0.032
   15  0.014  0.002  0.026  0.042
   16  0.002  0.003  0.005  0.011
   17  0.016  0.002  0.025  0.043
   18  0.060  0.001  0.009  0.070
   19  0.006  0.001  0.026  0.033
   20  0.004  0.000  0.014  0.018
   21  0.001  0.003  0.006  0.010
   22  0.013  0.002  0.022  0.037
   23  0.001  0.003  0.006  0.010
   24  0.051  0.001  0.009  0.061
   25  0.027  0.002  0.004  0.033
   26  0.007  0.001  0.026  0.033
   27  0.012  0.002  0.022  0.037
   28  0.000  0.000  0.006  0.006
   29  0.001  0.000  0.003  0.004
   30  0.002  0.000  0.002  0.004
   31  0.001  0.000  0.003  0.004
   32  0.006  0.001  0.003  0.010
   33  0.002  0.000  0.002  0.004
   34  0.006  0.001  0.003  0.010
   35  0.000  0.001  0.006  0.007
   36  0.000  0.000  0.001  0.001
   37  0.000  0.000  0.000  0.000
tot    0.302  0.042  0.349  0.693
 
band    11 # energy   -5.88759788 # occ.  2.00000000
 
ion      s      p      d    tot
    1  0.003  0.000  0.001  0.004
    2  0.000  0.000  0.003  0.004
    3  0.000  0.000  0.003  0.004
    4  0.000  0.000  0.003  0.004
    5  0.003  0.000  0.000  0.003
    6  0.000  0.000  0.003  0.004
    7  0.000  0.000  0.003  0.004
    8  0.000  0.000  0.003  0.004
    9  0.007  0.001  0.001  0.009
   10  0.004  0.000  0.015  0.019
   11  0.007  0.001  0.005  0.013
   12  0.004  0.000  0.015  0.019
   13  0.007  0.001  0.005  0.013
   14  0.007  0.001  0.005  0.013
   15  0.013  0.001  0.010  0.024
   16  0.004  0.000  0.015  0.019
   17  0.013  0.001  0.010  0.024
   18  0.013  0.001  0.010  0.024
   19  0.004  0.001  0.020  0.025
   20  0.001  0.000  0.026  0.027
   21  0.001  0.000  0.026  0.027
   22  0.018  0.002  0.014  0.035
   23  0.001  0.000  0.026  0.027
   24  0.018  0.002  0.014  0.035
   25  0.004  0.001  0.020  0.025
   26  0.004  0.001  0.020  0.025
   27  0.018  0.002  0.014  0.035
   28  0.013  0.000  0.017  0.031
   29  0.015  0.000  0.013  0.028
   30  0.015  0.000  0.013  0.028
   31  0.015  0.000  0.013  0.028
   32  0.015  0.000  0.013  0.028
   33  0.015  0.000  0.013  0.028
   34  0.015  0.000  0.013  0.028
   35  0.009  0.000  0.015  0.024
   36  0.013  0.000  0.019  0.033
   37  0.000  0.001  0.000  0.001
tot    0.277  0.023  0.420  0.721
 
band    12 # energy   -5.49147977 # occ.  2.00000000
 
ion      s      p      d    tot
    1  0.000  0.001  0.004  0.005
    2  0.001  0.001  0.005  0.007
    3  0.010  0.001  0.005  0.016
    4  0.001  0.001  0.005  0.007
    5  0.000  0.001  0.011  0.012
    6  0.005  0.001  0.004  0.010
    7  0.010  0.001  0.005  0.016
    8  0.005  0.001  0.004  0.010
    9  0.000  0.000  0.010  0.010
   10  0.000  0.001  0.046  0.047
   11  0.016  0.001  0.021  0.038
   12  0.006  0.002  0.019  0.027
   13  0.016  0.001  0.021  0.038
   14  0.000  0.000  0.054  0.054
   15  0.002  0.000  0.020  0.023
   16  0.006  0.002  0.019  0.027
   17  0.002  0.000  0.020  0.023
   18  0.000  0.001  0.012  0.013
   19  0.005  0.000  0.019  0.025
   20  0.000  0.000  0.063  0.063
   21  0.018  0.001  0.020  0.039
   22  0.004  0.001  0.018  0.023
   23  0.018  0.001  0.020  0.039
   24  0.000  0.001  0.037  0.038
   25  0.000  0.001  0.011  0.012
   26  0.005  0.000  0.019  0.025
   27  0.004  0.001  0.018  0.023
   28  0.000  0.000  0.008  0.008
   29  0.002  0.000  0.004  0.006
   30  0.008  0.001  0.004  0.014
   31  0.002  0.000  0.004  0.006
   32  0.002  0.001  0.004  0.007
   33  0.008  0.001  0.004  0.014
   34  0.002  0.001  0.004  0.007
   35  0.000  0.000  0.003  0.003
   36  0.000  0.002  0.017  0.019
   37  0.000  0.001  0.000  0.001
tot    0.155  0.031  0.563  0.750
 
band    13 # energy   -5.49146231 # occ.  2.00000000
 
ion      s      p      d    tot
    1  0.000  0.001  0.004  0.005
    2  0.009  0.001  0.004  0.015
    3  0.001  0.000  0.005  0.006
    4  0.009  0.001  0.004  0.015
    5  0.000  0.001  0.011  0.012
    6  0.005  0.001  0.005  0.012
    7  0.001  0.000  0.005  0.006
    8  0.005  0.001  0.005  0.012
    9  0.000  0.000  0.010  0.010
   10  0.008  0.002  0.010  0.020
   11  0.005  0.000  0.043  0.048
   12  0.002  0.001  0.037  0.040
   13  0.005  0.000  0.043  0.048
   14  0.021  0.001  0.009  0.032
   15  0.001  0.001  0.014  0.016
   16  0.002  0.001  0.037  0.040
   17  0.001  0.001  0.014  0.016
   18  0.003  0.000  0.023  0.026
   19  0.002  0.001  0.014  0.016
   20  0.024  0.001  0.006  0.031
   21  0.006  0.000  0.049  0.055
   22  0.001  0.001  0.031  0.033
   23  0.006  0.000  0.049  0.055
   24  0.005  0.001  0.012  0.018
   25  0.006  0.000  0.022  0.029
   26  0.002  0.001  0.014  0.016
   27  0.001  0.001  0.031  0.033
   28  0.000  0.000  0.008  0.008
   29  0.006  0.001  0.005  0.012
   30  0.000  0.000  0.004  0.004
   31  0.006  0.001  0.005  0.012
   32  0.006  0.001  0.004  0.011
   33  0.000  0.000  0.004  0.004
   34  0.006  0.001  0.004  0.011
   35  0.000  0.000  0.003  0.003
   36  0.000  0.002  0.017  0.019
   37  0.000  0.001  0.000  0.001
tot    0.155  0.031  0.563  0.750
 
band    14 # energy   -5.48415801 # occ.  2.00000000
 
ion      s      p      d    tot
    1  0.006  0.001  0.002  0.010
    2  0.000  0.001  0.008  0.009
    3  0.000  0.001  0.008  0.009
    4  0.000  0.001  0.008  0.009
    5  0.003  0.000  0.001  0.004
    6  0.000  0.001  0.008  0.008
    7  0.000  0.001  0.008  0.009
    8  0.000  0.001  0.008  0.008
    9  0.019  0.002  0.000  0.021
   10  0.009  0.001  0.020  0.030
   11  0.000  0.000  0.042  0.043
   12  0.009  0.001  0.020  0.031
   13  0.000  0.000  0.042  0.043
   14  0.000  0.000  0.042  0.043
   15  0.006  0.002  0.014  0.021
   16  0.009  0.001  0.020  0.031
   17  0.006  0.002  0.014  0.021
   18  0.006  0.002  0.014  0.021
   19  0.001  0.001  0.030  0.031
   20  0.005  0.000  0.043  0.048
   21  0.005  0.000  0.043  0.048
   22  0.012  0.001  0.009  0.023
   23  0.005  0.000  0.043  0.048
   24  0.012  0.001  0.009  0.023
   25  0.001  0.001  0.030  0.031
   26  0.001  0.001  0.030  0.031
   27  0.012  0.001  0.009  0.023
   28  0.012  0.001  0.000  0.013
   29  0.000  0.001  0.007  0.007
   30  0.000  0.001  0.007  0.007
   31  0.000  0.001  0.007  0.007
   32  0.000  0.001  0.007  0.007
   33  0.000  0.001  0.007  0.007
   34  0.000  0.001  0.007  0.007
   35  0.010  0.002  0.003  0.014
   36  0.001  0.001  0.006  0.007
   37  0.001  0.001  0.000  0.002
tot    0.151  0.030  0.571  0.752
 
band    15 # energy   -5.46928504 # occ.  2.00000000
 
ion      s      p      d    tot
    1  0.000  0.001  0.014  0.014
    2  0.001  0.001  0.005  0.006
    3  0.009  0.001  0.005  0.015
    4  0.001  0.001  0.005  0.006
    5  0.000  0.000  0.006  0.006
    6  0.005  0.001  0.004  0.010
    7  0.009  0.001  0.005  0.015
    8  0.005  0.001  0.004  0.010
    9  0.000  0.001  0.006  0.008
   10  0.012  0.000  0.019  0.031
   11  0.000  0.001  0.018  0.020
   12  0.003  0.001  0.028  0.032
   13  0.000  0.001  0.018  0.020
   14  0.000  0.001  0.019  0.021
   15  0.004  0.001  0.049  0.053
   16  0.003  0.001  0.028  0.032
   17  0.004  0.001  0.049  0.053
   18  0.016  0.002  0.006  0.024
   19  0.005  0.001  0.050  0.055
   20  0.000  0.000  0.021  0.021
   21  0.000  0.001  0.018  0.020
   22  0.005  0.001  0.028  0.034
   23  0.000  0.001  0.018  0.020
   24  0.020  0.001  0.017  0.038
   25  0.018  0.002  0.005  0.025
   26  0.005  0.001  0.050  0.056
   27  0.005  0.001  0.028  0.034
   28  0.000  0.001  0.005  0.006
   29  0.002  0.000  0.003  0.005
   30  0.008  0.001  0.003  0.012
   31  0.002  0.000  0.003  0.005
   32  0.002  0.001  0.004  0.007
   33  0.008  0.001  0.003  0.012
   34  0.002  0.001  0.004  0.007
   35  0.000  0.001  0.009  0.010
   36  0.000  0.000  0.003  0.003
   37  0.000  0.000  0.000  0.000
tot    0.154  0.030  0.564  0.749
 
band    16 # energy   -5.46926656 # occ.  2.00000000
 
ion      s      p      d    tot
    1  0.000  0.001  0.014  0.014
    2  0.009  0.001  0.004  0.015
    3  0.001  0.000  0.005  0.006
    4  0.009  0.001  0.004  0.015
    5  0.000  0.000  0.006  0.006
    6  0.005  0.001  0.005  0.011
    7  0.001  0.000  0.005  0.006
    8  0.005  0.001  0.005  0.011
    9  0.000  0.001  0.006  0.008
   10  0.000  0.001  0.031  0.032
   11  0.000  0.001  0.019  0.020
   12  0.009  0.000  0.022  0.032
   13  0.000  0.001  0.019  0.020
   14  0.000  0.001  0.018  0.019
   15  0.012  0.002  0.020  0.034
   16  0.009  0.000  0.022  0.032
   17  0.012  0.002  0.020  0.034
   18  0.000  0.000  0.063  0.063
   19  0.014  0.001  0.020  0.035
   20  0.000  0.002  0.017  0.019
   21  0.000  0.001  0.020  0.021
   22  0.015  0.001  0.021  0.037
   23  0.000  0.001  0.020  0.021
   24  0.000  0.001  0.031  0.032
   25  0.000  0.000  0.066  0.066
   26  0.014  0.001  0.020  0.035
   27  0.015  0.001  0.021  0.037
   28  0.000  0.001  0.005  0.006
   29  0.006  0.001  0.004  0.011
   30  0.000  0.000  0.004  0.004
   31  0.006  0.001  0.004  0.011
   32  0.006  0.001  0.003  0.009
   33  0.000  0.000  0.004  0.004
   34  0.006  0.001  0.003  0.009
   35  0.000  0.001  0.009  0.010
   36  0.000  0.000  0.003  0.003
   37  0.000  0.000  0.000  0.000
tot    0.154  0.030  0.564  0.749
 
band    17 # energy   -5.45415842 # occ.  2.00000000
 
ion      s      p      d    tot
    1  0.017  0.001  0.000  0.018
    2  0.000  0.001  0.009  0.010
    3  0.000  0.001  0.009  0.010
    4  0.000  0.001  0.009  0.010
    5  0.015  0.002  0.002  0.018
    6  0.000  0.001  0.009  0.010
    7  0.000  0.001  0.009  0.010
    8  0.000  0.001  0.009  0.010
    9  0.000  0.000  0.002  0.002
   10  0.001  0.001  0.034  0.036
   11  0.009  0.002  0.008  0.019
   12  0.001  0.001  0.034  0.036
   13  0.009  0.002  0.008  0.019
   14  0.009  0.002  0.008  0.019
   15  0.003  0.000  0.038  0.042
   16  0.001  0.001  0.034  0.036
   17  0.003  0.000  0.038  0.042
   18  0.003  0.000  0.038  0.042
   19  0.013  0.001  0.029  0.044
   20  0.006  0.001  0.009  0.017
   21  0.006  0.001  0.009  0.017
   22  0.000  0.000  0.043  0.044
   23  0.006  0.001  0.009  0.017
   24  0.000  0.000  0.043  0.044
   25  0.013  0.001  0.029  0.044
   26  0.013  0.001  0.029  0.044
   27  0.000  0.000  0.043  0.044
   28  0.003  0.001  0.006  0.010
   29  0.000  0.000  0.005  0.006
   30  0.000  0.000  0.005  0.006
   31  0.000  0.000  0.005  0.006
   32  0.000  0.000  0.005  0.006
   33  0.000  0.000  0.005  0.006
   34  0.000  0.000  0.005  0.006
   35  0.000  0.000  0.000  0.000
   36  0.010  0.003  0.000  0.014
   37  0.001  0.001  0.000  0.002
tot    0.147  0.030  0.583  0.759
 
band    18 # energy   -5.11415234 # occ.  2.00000000
 
ion      s      p      d    tot
    1  0.014  0.000  0.003  0.018
    2  0.000  0.001  0.011  0.012
    3  0.000  0.001  0.011  0.012
    4  0.000  0.001  0.011  0.012
    5  0.002  0.000  0.012  0.014
    6  0.000  0.001  0.011  0.012
    7  0.000  0.001  0.011  0.012
    8  0.000  0.001  0.011  0.012
    9  0.005  0.001  0.002  0.007
   10  0.000  0.000  0.023  0.023
   11  0.000  0.000  0.040  0.041
   12  0.000  0.000  0.023  0.023
   13  0.000  0.000  0.040  0.041
   14  0.000  0.000  0.040  0.041
   15  0.000  0.000  0.028  0.028
   16  0.000  0.000  0.023  0.023
   17  0.000  0.000  0.028  0.028
   18  0.000  0.000  0.028  0.028
   19  0.000  0.000  0.019  0.019
   20  0.001  0.000  0.036  0.037
   21  0.001  0.000  0.036  0.037
   22  0.001  0.000  0.034  0.035
   23  0.001  0.000  0.036  0.037
   24  0.001  0.000  0.034  0.035
   25  0.000  0.000  0.019  0.019
   26  0.000  0.000  0.019  0.019
   27  0.001  0.000  0.034  0.035
   28  0.007  0.001  0.000  0.007
   29  0.000  0.001  0.016  0.017
   30  0.000  0.001  0.016  0.017
   31  0.000  0.001  0.016  0.017
   32  0.000  0.001  0.016  0.017
   33  0.000  0.001  0.016  0.017
   34  0.000  0.001  0.016  0.017
   35  0.020  0.001  0.006  0.027
   36  0.001  0.000  0.028  0.029
   37  0.002  0.004  0.000  0.006
tot    0.056  0.019  0.754  0.829
 
band    19 # energy   -5.10159277 # occ.  2.00000000
 
ion      s      p      d    tot
    1  0.000  0.001  0.009  0.010
    2  0.001  0.000  0.016  0.017
    3  0.012  0.001  0.014  0.027
    4  0.001  0.000  0.016  0.017
    5  0.000  0.000  0.035  0.035
    6  0.005  0.001  0.010  0.017
    7  0.012  0.001  0.014  0.027
    8  0.005  0.001  0.010  0.016
    9  0.000  0.001  0.016  0.018
   10  0.000  0.000  0.025  0.026
   11  0.000  0.000  0.028  0.028
   12  0.000  0.000  0.015  0.015
   13  0.000  0.000  0.028  0.028
   14  0.000  0.000  0.027  0.028
   15  0.000  0.000  0.046  0.046
   16  0.000  0.000  0.015  0.015
   17  0.000  0.000  0.046  0.046
   18  0.000  0.001  0.051  0.052
   19  0.000  0.000  0.016  0.016
   20  0.001  0.000  0.029  0.030
   21  0.000  0.000  0.017  0.017
   22  0.000  0.000  0.035  0.036
   23  0.000  0.000  0.017  0.018
   24  0.000  0.000  0.045  0.045
   25  0.000  0.000  0.015  0.015
   26  0.000  0.000  0.016  0.016
   27  0.000  0.000  0.035  0.036
   28  0.000  0.000  0.018  0.018
   29  0.003  0.000  0.011  0.014
   30  0.001  0.000  0.007  0.009
   31  0.003  0.000  0.011  0.014
   32  0.008  0.001  0.009  0.017
   33  0.001  0.000  0.007  0.009
   34  0.008  0.001  0.009  0.017
   35  0.000  0.001  0.017  0.017
   36  0.000  0.001  0.011  0.012
   37  0.000  0.000  0.000  0.000
tot    0.063  0.015  0.748  0.826
 
band    20 # energy   -5.10159006 # occ.  2.00000000
 
ion      s      p      d    tot
    1  0.000  0.001  0.009  0.010
    2  0.011  0.001  0.011  0.023
    3  0.000  0.001  0.013  0.014
    4  0.011  0.001  0.011  0.023
    5  0.000  0.000  0.035  0.035
    6  0.007  0.000  0.017  0.024
    7  0.001  0.001  0.013  0.014
    8  0.007  0.000  0.017  0.024
    9  0.000  0.001  0.016  0.018
   10  0.000  0.000  0.012  0.012
   11  0.000  0.000  0.027  0.028
   12  0.000  0.000  0.022  0.022
   13  0.000  0.000  0.027  0.028
   14  0.000  0.000  0.028  0.029
   15  0.000  0.000  0.049  0.050
   16  0.000  0.000  0.022  0.022
   17  0.000  0.000  0.049  0.050
   18  0.000  0.000  0.044  0.044
   19  0.000  0.000  0.015  0.016
   20  0.000  0.000  0.013  0.013
   21  0.001  0.000  0.025  0.026
   22  0.000  0.000  0.042  0.042
   23  0.001  0.000  0.025  0.026
   24  0.000  0.000  0.032  0.033
   25  0.000  0.000  0.016  0.016
   26  0.000  0.000  0.015  0.016
   27  0.000  0.000  0.041  0.042
   28  0.000  0.000  0.018  0.018
   29  0.005  0.001  0.007  0.013
   30  0.007  0.000  0.011  0.018
   31  0.005  0.001  0.007  0.013
   32  0.000  0.000  0.009  0.010
   33  0.007  0.000  0.011  0.018
   34  0.000  0.000  0.009  0.010
   35  0.000  0.001  0.017  0.017
   36  0.000  0.001  0.011  0.012
   37  0.000  0.000  0.000  0.000
tot    0.063  0.015  0.748  0.826
 
band    21 # energy   -5.08643258 # occ.  2.00000000
 
ion      s      p      d    tot
    1  0.000  0.001  0.031  0.032
    2  0.001  0.000  0.016  0.017
    3  0.011  0.001  0.015  0.027
    4  0.001  0.000  0.016  0.017
    5  0.000  0.002  0.006  0.007
    6  0.006  0.001  0.010  0.017
    7  0.011  0.001  0.015  0.027
    8  0.006  0.001  0.010  0.018
    9  0.000  0.000  0.025  0.025
   10  0.000  0.000  0.052  0.052
   11  0.000  0.000  0.040  0.040
   12  0.000  0.001  0.049  0.050
   13  0.000  0.000  0.040  0.040
   14  0.000  0.000  0.031  0.031
   15  0.000  0.000  0.016  0.016
   16  0.000  0.001  0.049  0.050
   17  0.000  0.000  0.015  0.016
   18  0.000  0.000  0.010  0.010
   19  0.001  0.000  0.036  0.038
   20  0.000  0.000  0.026  0.026
   21  0.000  0.000  0.034  0.034
   22  0.001  0.000  0.009  0.010
   23  0.000  0.000  0.034  0.034
   24  0.000  0.000  0.008  0.009
   25  0.000  0.000  0.023  0.023
   26  0.001  0.000  0.036  0.037
   27  0.001  0.000  0.009  0.010
   28  0.000  0.001  0.008  0.009
   29  0.002  0.000  0.008  0.011
   30  0.001  0.000  0.007  0.009
   31  0.003  0.000  0.008  0.011
   32  0.008  0.001  0.007  0.016
   33  0.002  0.000  0.007  0.009
   34  0.008  0.001  0.007  0.016
   35  0.000  0.001  0.011  0.011
   36  0.000  0.000  0.015  0.016