PROCAR new format
# of k-points:   10         # of bands:  252         # of ions:   37

 k-point     1 :    0.00000000 0.00000000 0.00000000     weight = 0.01562500

band     1 # energy  -10.97658433 # occ.  2.00000000
 
ion      s      p      d    tot
    1  0.000  0.000  0.000  0.000
    2  0.000  0.000  0.000  0.000
    3  0.000  0.000  0.000  0.000
    4  0.000  0.000  0.000  0.000
    5  0.000  0.000  0.000  0.000
    6  0.000  0.000  0.000  0.000
    7  0.000  0.000  0.000  0.000
    8  0.000  0.000  0.000  0.000
    9  0.000  0.000  0.000  0.000
   10  0.000  0.000  0.000  0.000
   11  0.000  0.000  0.000  0.000
   12  0.000  0.000  0.000  0.000
   13  0.000  0.000  0.000  0.000
   14  0.000  0.000  0.000  0.000
   15  0.000  0.000  0.000  0.000
   16  0.000  0.000  0.000  0.000
   17  0.000  0.000  0.000  0.000
   18  0.000  0.000  0.000  0.000
   19  0.000  0.000  0.000  0.000
   20  0.002  0.001  0.001  0.003
   21  0.002  0.001  0.001  0.003
   22  0.000  0.000  0.000  0.000
   23  0.002  0.001  0.001  0.003
   24  0.000  0.000  0.000  0.000
   25  0.000  0.000  0.000  0.000
   26  0.000  0.000  0.000  0.000
   27  0.000  0.000  0.000  0.000
   28  0.000  0.000  0.000  0.000
   29  0.001  0.000  0.000  0.001
   30  0.001  0.000  0.000  0.001
   31  0.001  0.000  0.000  0.001
   32  0.001  0.000  0.000  0.001
   33  0.001  0.000  0.000  0.001
   34  0.001  0.000  0.000  0.001
   35  0.000  0.000  0.000  0.000
   36  0.132  0.062  0.255  0.449
   37  0.381  0.044  0.000  0.425
tot    0.522  0.108  0.262  0.892
 
band     2 # energy   -8.56139761 # occ.  2.00000000
 
ion      s      p      d    tot
    1  0.007  0.001  0.000  0.007
    2  0.006  0.001  0.000  0.007
    3  0.006  0.001  0.000  0.007
    4  0.006  0.001  0.000  0.007
    5  0.006  0.001  0.000  0.007
    6  0.006  0.001  0.000  0.007
    7  0.006  0.001  0.000  0.007
    8  0.006  0.001  0.000  0.007
    9  0.006  0.001  0.000  0.007
   10  0.026  0.000  0.000  0.026
   11  0.027  0.000  0.000  0.027
   12  0.026  0.000  0.000  0.026
   13  0.027  0.000  0.000  0.027
   14  0.026  0.000  0.000  0.027
   15  0.026  0.000  0.000  0.026
   16  0.026  0.000  0.000  0.026
   17  0.026  0.000  0.000  0.026
   18  0.026  0.000  0.000  0.026
   19  0.024  0.000  0.000  0.024
   20  0.025  0.000  0.000  0.026
   21  0.025  0.000  0.000  0.026
   22  0.024  0.000  0.000  0.025
   23  0.025  0.000  0.000  0.026
   24  0.024  0.000  0.000  0.025
   25  0.024  0.000  0.000  0.024
   26  0.024  0.000  0.000  0.024
   27  0.024  0.000  0.000  0.025
   28  0.005  0.000  0.000  0.005
   29  0.005  0.000  0.000  0.005
   30  0.005  0.000  0.000  0.005
   31  0.005  0.000  0.000  0.005
   32  0.005  0.000  0.000  0.005
   33  0.005  0.000  0.000  0.005
   34  0.005  0.000  0.000  0.005
   35  0.005  0.000  0.000  0.005
   36  0.003  0.004  0.004  0.011
   37  0.005  0.000  0.000  0.005
tot    0.562  0.015  0.007  0.584
 
band     3 # energy   -7.41270720 # occ.  2.00000000
 
ion      s      p      d    tot
    1  0.016  0.000  0.001  0.018
    2  0.016  0.000  0.001  0.018
    3  0.016  0.000  0.001  0.018
    4  0.016  0.000  0.001  0.018
    5  0.016  0.000  0.001  0.018
    6  0.016  0.000  0.001  0.018
    7  0.016  0.000  0.001  0.018
    8  0.016  0.000  0.001  0.018
    9  0.016  0.000  0.001  0.018
   10  0.011  0.001  0.002  0.014
   11  0.010  0.001  0.002  0.014
   12  0.011  0.001  0.002  0.014
   13  0.010  0.001  0.002  0.014
   14  0.010  0.001  0.002  0.014
   15  0.011  0.001  0.002  0.014
   16  0.011  0.001  0.002  0.014
   17  0.011  0.001  0.002  0.014
   18  0.011  0.001  0.002  0.014
   19  0.012  0.001  0.003  0.016
   20  0.013  0.001  0.002  0.016
   21  0.013  0.001  0.002  0.016
   22  0.013  0.001  0.003  0.017
   23  0.013  0.001  0.002  0.016
   24  0.013  0.001  0.003  0.017
   25  0.012  0.001  0.003  0.016
   26  0.012  0.001  0.003  0.016
   27  0.013  0.001  0.003  0.017
   28  0.015  0.000  0.001  0.016
   29  0.016  0.001  0.001  0.017
   30  0.016  0.001  0.001  0.017
   31  0.016  0.001  0.001  0.017
   32  0.016  0.001  0.001  0.017
   33  0.016  0.001  0.001  0.017
   34  0.016  0.001  0.001  0.017
   35  0.015  0.000  0.001  0.016
   36  0.012  0.003  0.015  0.030
   37  0.004  0.000  0.000  0.004
tot    0.493  0.035  0.076  0.604
 
band     4 # energy   -6.51471007 # occ.  2.00000000
 
ion      s      p      d    tot
    1  0.003  0.000  0.005  0.008
    2  0.006  0.000  0.004  0.010
    3  0.006  0.000  0.004  0.010
    4  0.006  0.000  0.004  0.010
    5  0.007  0.000  0.003  0.010
    6  0.006  0.000  0.004  0.010
    7  0.006  0.000  0.004  0.010
    8  0.006  0.000  0.004  0.010
    9  0.010  0.000  0.003  0.014
   10  0.003  0.001  0.001  0.005
   11  0.001  0.001  0.001  0.003
   12  0.003  0.001  0.001  0.005
   13  0.001  0.001  0.001  0.003
   14  0.001  0.001  0.001  0.003
   15  0.000  0.001  0.001  0.002
   16  0.003  0.001  0.001  0.005
   17  0.000  0.001  0.001  0.002
   18  0.000  0.001  0.001  0.002
   19  0.007  0.001  0.014  0.022
   20  0.013  0.001  0.022  0.036
   21  0.013  0.001  0.022  0.036
   22  0.001  0.001  0.013  0.014
   23  0.013  0.001  0.022  0.036
   24  0.001  0.001  0.013  0.014
   25  0.007  0.001  0.014  0.022
   26  0.007  0.001  0.014  0.022
   27  0.001  0.001  0.013  0.014
   28  0.016  0.000  0.012  0.028
   29  0.021  0.000  0.016  0.037
   30  0.021  0.000  0.016  0.037
   31  0.021  0.000  0.016  0.037
   32  0.021  0.000  0.016  0.037
   33  0.021  0.000  0.016  0.037
   34  0.021  0.000  0.016  0.037
   35  0.025  0.000  0.012  0.037
   36  0.014  0.002  0.065  0.081
   37  0.001  0.002  0.000  0.003
tot    0.311  0.021  0.373  0.705
 
band     5 # energy   -6.45969516 # occ.  2.00000000
 
ion      s      p      d    tot
    1  0.000  0.001  0.008  0.009
    2  0.004  0.001  0.002  0.007
    3  0.000  0.000  0.003  0.003
    4  0.004  0.001  0.002  0.007
    5  0.000  0.001  0.004  0.005
    6  0.005  0.001  0.003  0.009
    7  0.000  0.000  0.003  0.003
    8  0.005  0.001  0.003  0.009
    9  0.000  0.000  0.001  0.001
   10  0.042  0.002  0.005  0.049
   11  0.009  0.003  0.015  0.028
   12  0.011  0.001  0.025  0.037
   13  0.010  0.003  0.015  0.028
   14  0.038  0.001  0.011  0.050
   15  0.000  0.002  0.008  0.010
   16  0.010  0.001  0.026  0.036
   17  0.000  0.002  0.008  0.010
   18  0.000  0.001  0.009  0.010
   19  0.005  0.003  0.007  0.015
   20  0.067  0.001  0.010  0.078
   21  0.017  0.001  0.031  0.050
   22  0.002  0.001  0.018  0.021
   23  0.016  0.001  0.032  0.049
   24  0.009  0.001  0.006  0.017
   25  0.019  0.000  0.014  0.033
   26  0.005  0.003  0.007  0.015
   27  0.002  0.001  0.018  0.021
   28  0.000  0.001  0.002  0.002
   29  0.006  0.001  0.004  0.012
   30  0.003  0.001  0.003  0.007
   31  0.006  0.001  0.004  0.012
   32  0.001  0.000  0.004  0.004
   33  0.003  0.001  0.003  0.007
   34  0.001  0.000  0.004  0.004
   35  0.000  0.000  0.003  0.003
   36  0.000  0.002  0.037  0.039
   37  0.000  0.001  0.000  0.001
tot    0.298  0.042  0.359  0.700
 
band     6 # energy   -6.45967153 # occ.  2.00000000
 
ion      s      p      d    tot
    1  0.000  0.001  0.008  0.009
    2  0.002  0.001  0.003  0.006
    3  0.006  0.001  0.003  0.009
    4  0.002  0.001  0.003  0.006
    5  0.000  0.001  0.004  0.005
    6  0.001  0.000  0.002  0.003
    7  0.006  0.001  0.003  0.009
    8  0.001  0.000  0.002  0.003
    9  0.000  0.000  0.001  0.001
   10  0.000  0.000  0.032  0.032
   11  0.028  0.001  0.013  0.043
   12  0.031  0.002  0.012  0.045
   13  0.028  0.001  0.013  0.042
   14  0.000  0.004  0.017  0.021
   15  0.000  0.001  0.009  0.010
   16  0.032  0.002  0.012  0.045
   17  0.000  0.001  0.009  0.010
   18  0.000  0.002  0.007  0.010
   19  0.014  0.001  0.012  0.027
   20  0.000  0.001  0.039  0.040
   21  0.050  0.001  0.017  0.069
   22  0.007  0.001  0.010  0.018
   23  0.051  0.001  0.017  0.069
   24  0.000  0.001  0.022  0.023
   25  0.000  0.004  0.005  0.009
   26  0.014  0.001  0.012  0.027
   27  0.007  0.001  0.010  0.018
   28  0.000  0.001  0.002  0.002
   29  0.000  0.000  0.003  0.004
   30  0.003  0.001  0.004  0.008
   31  0.000  0.000  0.003  0.004
   32  0.006  0.001  0.004  0.011
   33  0.003  0.001  0.004  0.008
   34  0.006  0.001  0.004  0.011
   35  0.000  0.000  0.003  0.003
   36  0.000  0.002  0.037  0.039
   37  0.000  0.001  0.000  0.001
tot    0.298  0.042  0.359  0.700
 
band     7 # energy   -6.42599290 # occ.  2.00000000
 
ion      s      p      d    tot
    1  0.014  0.000  0.000  0.015
    2  0.003  0.000  0.007  0.011
    3  0.003  0.000  0.007  0.011
    4  0.003  0.000  0.007  0.011
    5  0.011  0.000  0.003  0.014
    6  0.003  0.000  0.007  0.011
    7  0.003  0.000  0.007  0.011
    8  0.003  0.000  0.007  0.011
    9  0.002  0.002  0.008  0.012
   10  0.001  0.000  0.029  0.030
   11  0.003  0.002  0.012  0.017
   12  0.001  0.000  0.029  0.030
   13  0.003  0.002  0.012  0.017
   14  0.003  0.002  0.012  0.017
   15  0.035  0.002  0.006  0.043
   16  0.001  0.000  0.029  0.030
   17  0.035  0.002  0.006  0.043
   18  0.035  0.002  0.006  0.043
   19  0.002  0.001  0.022  0.025
   20  0.021  0.001  0.013  0.036
   21  0.022  0.001  0.013  0.036
   22  0.015  0.003  0.004  0.022
   23  0.022  0.001  0.013  0.036
   24  0.015  0.003  0.004  0.022
   25  0.002  0.001  0.022  0.025
   26  0.002  0.001  0.022  0.025
   27  0.015  0.003  0.004  0.022
   28  0.000  0.000  0.002  0.003
   29  0.001  0.000  0.005  0.007
   30  0.001  0.001  0.005  0.007
   31  0.001  0.000  0.005  0.007
   32  0.001  0.001  0.005  0.007
   33  0.001  0.001  0.005  0.007
   34  0.001  0.001  0.005  0.007
   35  0.002  0.001  0.001  0.003
   36  0.017  0.008  0.003  0.028
   37  0.005  0.000  0.000  0.005
tot    0.306  0.043  0.354  0.703
 
band     8 # energy   -6.41938242 # occ.  2.00000000
 
ion      s      p      d    tot
    1  0.014  0.000  0.016  0.030
    2  0.013  0.000  0.015  0.027
    3  0.013  0.000  0.015  0.027
    4  0.013  0.000  0.015  0.027
    5  0.005  0.000  0.016  0.021
    6  0.013  0.000  0.015  0.027
    7  0.013  0.000  0.015  0.027
    8  0.013  0.000  0.015  0.027
    9  0.022  0.000  0.010  0.032
   10  0.004  0.000  0.027  0.032
   11  0.021  0.001  0.019  0.040
   12  0.004  0.000  0.027  0.032
   13  0.021  0.001  0.019  0.040
   14  0.021  0.001  0.019  0.040
   15  0.001  0.000  0.030  0.031
   16  0.004  0.000  0.027  0.032
   17  0.001  0.000  0.030  0.031
   18  0.001  0.000  0.030  0.031
   19  0.009  0.000  0.009  0.018
   20  0.000  0.001  0.017  0.018
   21  0.000  0.001  0.017  0.018
   22  0.003  0.000  0.012  0.015
   23  0.000  0.001  0.017  0.018
   24  0.003  0.000  0.012  0.015
   25  0.009  0.000  0.009  0.018
   26  0.009  0.000  0.009  0.018
   27  0.003  0.000  0.012  0.015
   28  0.000  0.000  0.003  0.003
   29  0.001  0.000  0.003  0.004
   30  0.001  0.000  0.003  0.004
   31  0.001  0.000  0.003  0.004
   32  0.001  0.000  0.003  0.004
   33  0.001  0.000  0.003  0.004
   34  0.001  0.000  0.003  0.004
   35  0.000  0.000  0.001  0.001
   36  0.005  0.000  0.007  0.012
   37  0.000  0.000  0.000  0.000
tot    0.240  0.010  0.497  0.747
 
band     9 # energy   -6.38629261 # occ.  2.00000000
 
ion      s      p      d    tot
    1  0.000  0.001  0.002  0.003
    2  0.002  0.001  0.004  0.007
    3  0.008  0.001  0.004  0.013
    4  0.003  0.001  0.004  0.008
    5  0.000  0.000  0.006  0.006
    6  0.001  0.000  0.002  0.004
    7  0.008  0.001  0.004  0.013
    8  0.001  0.000  0.002  0.004
    9  0.000  0.001  0.010  0.011
   10  0.018  0.000  0.016  0.034
   11  0.006  0.001  0.023  0.030
   12  0.002  0.004  0.005  0.010
   13  0.004  0.001  0.025  0.031
   14  0.014  0.002  0.004  0.019
   15  0.018  0.002  0.026  0.046
   16  0.003  0.003  0.007  0.012
   17  0.012  0.002  0.029  0.043
   18  0.060  0.001  0.009  0.070
   19  0.013  0.000  0.027  0.041
   20  0.001  0.001  0.017  0.018
   21  0.000  0.003  0.007  0.009
   22  0.011  0.003  0.018  0.032
   23  0.000  0.002  0.007  0.010
   24  0.041  0.001  0.013  0.055
   25  0.031  0.002  0.003  0.036
   26  0.009  0.000  0.031  0.040
   27  0.017  0.003  0.017  0.036
   28  0.000  0.000  0.007  0.007
   29  0.001  0.000  0.003  0.004
   30  0.003  0.001  0.002  0.005
   31  0.000  0.000  0.003  0.004
   32  0.006  0.001  0.003  0.010
   33  0.002  0.001  0.002  0.005
   34  0.006  0.001  0.003  0.010
   35  0.000  0.001  0.005  0.006
   36  0.000  0.000  0.001  0.001
   37  0.000  0.000  0.000  0.000
tot    0.302  0.042  0.350  0.693
 
band    10 # energy   -6.38628821 # occ.  2.00000000
 
ion      s      p      d    tot
    1  0.000  0.001  0.002  0.003
    2  0.005  0.001  0.003  0.009
    3  0.000  0.000  0.003  0.004
    4  0.004  0.001  0.003  0.008
    5  0.000  0.000  0.006  0.006
    6  0.006  0.001  0.004  0.011
    7  0.000  0.000  0.003  0.004
    8  0.007  0.001  0.004  0.012
    9  0.000  0.001  0.010  0.011
   10  0.000  0.004  0.002  0.007
   11  0.011  0.001  0.013  0.025
   12  0.011  0.001  0.013  0.026
   13  0.013  0.001  0.010  0.025
   14  0.000  0.001  0.029  0.030
   15  0.042  0.001  0.016  0.059
   16  0.010  0.001  0.012  0.024
   17  0.048  0.001  0.013  0.062
   18  0.000  0.002  0.035  0.037
   19  0.025  0.001  0.013  0.039
   20  0.000  0.003  0.006  0.009
   21  0.000  0.001  0.013  0.014
   22  0.037  0.001  0.013  0.051
   23  0.000  0.001  0.012  0.014
   24  0.000  0.003  0.021  0.025
   25  0.000  0.000  0.038  0.038
   26  0.029  0.002  0.010  0.040
   27  0.032  0.002  0.014  0.048
   28  0.000  0.000  0.007  0.007
   29  0.005  0.001  0.003  0.009
   30  0.003  0.001  0.003  0.007
   31  0.006  0.001  0.003  0.010
   32  0.000  0.000  0.002  0.003
   33  0.004  0.001  0.003  0.008
   34  0.000  0.000  0.002  0.003
   35  0.000  0.001  0.005  0.006
   36  0.000  0.000  0.001  0.001
   37  0.000  0.000  0.000  0.000
tot    0.302  0.042  0.349  0.693
 
band    11 # energy   -6.38577351 # occ.  2.00000000
 
ion      s      p      d    tot
    1  0.008  0.002  0.002  0.012
    2  0.000  0.001  0.006  0.007
    3  0.000  0.001  0.006  0.006
    4  0.000  0.001  0.006  0.007
    5  0.015  0.001  0.001  0.016
    6  0.000  0.001  0.006  0.007
    7  0.000  0.001  0.006  0.006
    8  0.000  0.001  0.006  0.007
    9  0.000  0.000  0.002  0.002
   10  0.027  0.003  0.001  0.031
   11  0.012  0.000  0.026  0.039
   12  0.032  0.003  0.001  0.036
   13  0.012  0.000  0.026  0.039
   14  0.016  0.000  0.029  0.045
   15  0.000  0.001  0.021  0.022
   16  0.032  0.003  0.001  0.036
   17  0.000  0.001  0.021  0.022
   18  0.000  0.002  0.018  0.020
   19  0.016  0.003  0.008  0.026
   20  0.004  0.002  0.016  0.022
   21  0.004  0.002  0.020  0.026
   22  0.015  0.000  0.022  0.037
   23  0.004  0.002  0.020  0.026
   24  0.022  0.000  0.019  0.041
   25  0.022  0.002  0.008  0.032
   26  0.016  0.003  0.008  0.026
   27  0.015  0.000  0.022  0.037
   28  0.015  0.001  0.000  0.016
   29  0.001  0.000  0.004  0.006
   30  0.001  0.000  0.005  0.007
   31  0.001  0.000  0.004  0.006
   32  0.001  0.000  0.005  0.006
   33  0.001  0.000  0.005  0.007
   34  0.001  0.000  0.005  0.006
   35  0.003  0.001  0.005  0.009
   36  0.000  0.000  0.001  0.001
   37  0.000  0.000  0.000  0.000
tot    0.296  0.039  0.362  0.697
 
band    12 # energy   -5.97291047 # occ.  2.00000000
 
ion      s      p      d    tot
    1  0.000  0.000  0.005  0.005
    2  0.002  0.001  0.005  0.008
    3  0.010  0.002  0.004  0.016
    4  0.002  0.001  0.005  0.008
    5  0.000  0.002  0.010  0.011
    6  0.003  0.001  0.004  0.008
    7  0.010  0.002  0.004  0.016
    8  0.003  0.001  0.004  0.008
    9  0.000  0.000  0.009  0.009
   10  0.000  0.001  0.044  0.045
   11  0.020  0.001  0.018  0.040
   12  0.006  0.001  0.019  0.026
   13  0.020  0.001  0.018  0.040
   14  0.000  0.000  0.051  0.051
   15  0.003  0.000  0.018  0.022
   16  0.006  0.001  0.019  0.026
   17  0.003  0.000  0.018  0.022
   18  0.000  0.001  0.012  0.014
   19  0.001  0.000  0.016  0.018
   20  0.000  0.000  0.069  0.069
   21  0.013  0.001  0.021  0.036
   22  0.004  0.001  0.017  0.023
   23  0.013  0.001  0.021  0.036
   24  0.000  0.001  0.031  0.032
   25  0.000  0.001  0.008  0.009
   26  0.001  0.000  0.016  0.018
   27  0.004  0.001  0.017  0.023
   28  0.000  0.000  0.006  0.006
   29  0.004  0.001  0.004  0.009
   30  0.006  0.001  0.006  0.014
   31  0.004  0.001  0.004  0.009
   32  0.000  0.000  0.004  0.005
   33  0.006  0.001  0.006  0.014
   34  0.000  0.000  0.004  0.005
   35  0.000  0.000  0.002  0.002
   36  0.000  0.002  0.050  0.051
   37  0.000  0.002  0.000  0.002
tot    0.149  0.032  0.572  0.754
 
band    13 # energy   -5.97287396 # occ.  2.00000000
 
ion      s      p      d    tot
    1  0.000  0.000  0.005  0.005
    2  0.008  0.001  0.004  0.013
    3  0.000  0.000  0.004  0.005
    4  0.008  0.001  0.004  0.013
    5  0.000  0.002  0.010  0.011
    6  0.007  0.001  0.005  0.014
    7  0.000  0.000  0.004  0.005
    8  0.007  0.001  0.005  0.014
    9  0.000  0.000  0.009  0.009
   10  0.008  0.001  0.010  0.020
   11  0.007  0.000  0.040  0.047
   12  0.002  0.001  0.036  0.038
   13  0.007  0.000  0.040  0.047
   14  0.027  0.001  0.007  0.036
   15  0.001  0.001  0.014  0.016
   16  0.002  0.001  0.036  0.038
   17  0.001  0.001  0.014  0.016
   18  0.004  0.000  0.021  0.025
   19  0.000  0.001  0.011  0.012
   20  0.018  0.001  0.006  0.025
   21  0.004  0.000  0.053  0.058
   22  0.001  0.001  0.027  0.029
   23  0.004  0.000  0.053  0.058
   24  0.006  0.002  0.012  0.019
   25  0.002  0.000  0.019  0.020
   26  0.000  0.001  0.011  0.012
   27  0.001  0.001  0.027  0.029
   28  0.000  0.000  0.006  0.006
   29  0.003  0.001  0.006  0.009
   30  0.001  0.000  0.003  0.005
   31  0.003  0.001  0.006  0.009
   32  0.007  0.001  0.006  0.014
   33  0.001  0.000  0.003  0.005
   34  0.007  0.001  0.006  0.014
   35  0.000  0.000  0.002  0.002
   36  0.000  0.002  0.050  0.051
   37  0.000  0.002  0.000  0.002
tot    0.149  0.032  0.572  0.754
 
band    14 # energy   -5.94092888 # occ.  2.00000000
 
ion      s      p      d    tot
    1  0.010  0.001  0.000  0.011
    2  0.000  0.001  0.007  0.008
    3  0.000  0.001  0.007  0.008
    4  0.000  0.001  0.007  0.008
    5  0.016  0.002  0.001  0.020
    6  0.000  0.001  0.007  0.008
    7  0.000  0.001  0.007  0.008
    8  0.000  0.001  0.007  0.008
    9  0.001  0.000  0.002  0.003
   10  0.001  0.001  0.030  0.031
   11  0.011  0.002  0.006  0.019
   12  0.001  0.001  0.030  0.031
   13  0.011  0.002  0.006  0.019
   14  0.011  0.002  0.006  0.019
   15  0.006  0.000  0.034  0.041
   16  0.001  0.001  0.030  0.031
   17  0.006  0.000  0.034  0.041
   18  0.006  0.000  0.034  0.041
   19  0.011  0.001  0.014  0.027
   20  0.005  0.002  0.019  0.025
   21  0.005  0.002  0.019  0.025
   22  0.001  0.000  0.041  0.043
   23  0.005  0.002  0.019  0.025
   24  0.001  0.000  0.041  0.043
   25  0.011  0.001  0.014  0.027
   26  0.011  0.001  0.014  0.027
   27  0.001  0.000  0.041  0.043
   28  0.010  0.001  0.001  0.012
   29  0.000  0.001  0.009  0.010
   30  0.000  0.001  0.009  0.010
   31  0.000  0.001  0.009  0.010
   32  0.000  0.001  0.009  0.010
   33  0.000  0.001  0.009  0.010
   34  0.000  0.001  0.009  0.010
   35  0.002  0.000  0.001  0.003
   36  0.019  0.007  0.002  0.028
   37  0.003  0.000  0.000  0.003
tot    0.167  0.039  0.539  0.746
 
band    15 # energy   -5.92204925 # occ.  2.00000000
 
ion      s      p      d    tot
    1  0.006  0.001  0.003  0.010
    2  0.000  0.001  0.008  0.009
    3  0.000  0.001  0.008  0.009
    4  0.000  0.001  0.008  0.009
    5  0.003  0.000  0.001  0.004
    6  0.000  0.001  0.008  0.009
    7  0.000  0.001  0.008  0.009
    8  0.000  0.001  0.008  0.009
    9  0.020  0.002  0.000  0.022
   10  0.010  0.001  0.022  0.033
   11  0.000  0.000  0.044  0.044
   12  0.009  0.001  0.022  0.033
   13  0.000  0.000  0.044  0.044
   14  0.000  0.000  0.044  0.044
   15  0.007  0.002  0.012  0.020
   16  0.009  0.001  0.022  0.033
   17  0.007  0.002  0.012  0.020
   18  0.007  0.002  0.012  0.020
   19  0.000  0.001  0.028  0.029
   20  0.004  0.001  0.042  0.047
   21  0.004  0.001  0.042  0.047
   22  0.012  0.001  0.010  0.023
   23  0.004  0.001  0.042  0.047
   24  0.011  0.001  0.010  0.023
   25  0.000  0.001  0.028  0.029
   26  0.000  0.001  0.028  0.029
   27  0.012  0.001  0.010  0.023
   28  0.011  0.001  0.000  0.012
   29  0.000  0.000  0.006  0.007
   30  0.000  0.000  0.006  0.007
   31  0.000  0.000  0.006  0.007
   32  0.000  0.000  0.006  0.007
   33  0.000  0.000  0.006  0.007
   34  0.000  0.000  0.006  0.007
   35  0.009  0.002  0.003  0.014
   36  0.001  0.002  0.002  0.004
   37  0.002  0.000  0.000  0.002
tot    0.152  0.030  0.569  0.752
 
band    16 # energy   -5.90831162 # occ.  2.00000000
 
ion      s      p      d    tot
    1  0.000  0.001  0.013  0.014
    2  0.008  0.001  0.004  0.013
    3  0.000  0.000  0.005  0.005
    4  0.008  0.001  0.004  0.013
    5  0.000  0.000  0.007  0.007
    6  0.007  0.001  0.005  0.013
    7  0.000  0.000  0.005  0.005
    8  0.007  0.001  0.005  0.013
    9  0.000  0.001  0.005  0.006
   10  0.000  0.000  0.037  0.038
   11  0.000  0.001  0.019  0.020
   12  0.012  0.001  0.021  0.034
   13  0.000  0.001  0.019  0.020
   14  0.000  0.001  0.014  0.015
   15  0.011  0.002  0.018  0.031
   16  0.012  0.001  0.021  0.034
   17  0.011  0.002  0.019  0.032
   18  0.000  0.000  0.058  0.059
   19  0.015  0.001  0.019  0.035
   20  0.000  0.002  0.021  0.023
   21  0.000  0.001  0.021  0.022
   22  0.013  0.001  0.020  0.033
   23  0.000  0.001  0.021  0.022
   24  0.000  0.001  0.026  0.027
   25  0.000  0.000  0.064  0.064
   26  0.015  0.001  0.020  0.036
   27  0.013  0.001  0.020  0.033
   28  0.000  0.001  0.006  0.007
   29  0.006  0.001  0.004  0.011
   30  0.000  0.000  0.005  0.005
   31  0.006  0.001  0.004  0.011
   32  0.008  0.001  0.004  0.012
   33  0.000  0.000  0.005  0.005
   34  0.008  0.001  0.004  0.012
   35  0.000  0.001  0.010  0.010
   36  0.000  0.000  0.006  0.006
   37  0.000  0.000  0.000  0.000
tot    0.158  0.031  0.557  0.746
 
band    17 # energy   -5.90830382 # occ.  2.00000000
 
ion      s      p      d    tot
    1  0.000  0.001  0.013  0.014
    2  0.002  0.001  0.005  0.008
    3  0.010  0.001  0.004  0.015
    4  0.002  0.001  0.005  0.008
    5  0.000  0.000  0.007  0.007
    6  0.003  0.001  0.004  0.008
    7  0.010  0.001  0.004  0.015
    8  0.003  0.001  0.004  0.008
    9  0.000  0.001  0.005  0.006
   10  0.016  0.001  0.015  0.032
   11  0.000  0.001  0.015  0.017
   12  0.004  0.001  0.032  0.036
   13  0.000  0.001  0.016  0.017
   14  0.000  0.001  0.021  0.022
   15  0.004  0.001  0.045  0.050
   16  0.004  0.001  0.032  0.036
   17  0.004  0.001  0.045  0.049
   18  0.014  0.002  0.005  0.022
   19  0.005  0.001  0.049  0.055
   20  0.000  0.001  0.021  0.021
   21  0.000  0.001  0.021  0.023
   22  0.004  0.001  0.024  0.029
   23  0.000  0.001  0.021  0.023
   24  0.017  0.000  0.018  0.035
   25  0.020  0.002  0.005  0.026
   26  0.005  0.001  0.049  0.054
   27  0.004  0.001  0.024  0.029
   28  0.000  0.001  0.006  0.007
   29  0.003  0.001  0.004  0.008
   30  0.009  0.001  0.004  0.014
   31  0.003  0.001  0.004  0.008
   32  0.001  0.001  0.005  0.007
   33  0.009  0.001  0.004  0.014
   34  0.001  0.001  0.005  0.007
   35  0.000  0.001  0.010  0.010
   36  0.000  0.000  0.006  0.006
   37  0.000  0.000  0.000  0.000
tot    0.158  0.031  0.557  0.746
 
band    18 # energy   -5.59937912 # occ.  2.00000000
 
ion      s      p      d    tot
    1  0.013  0.000  0.006  0.019
    2  0.000  0.001  0.015  0.016
    3  0.000  0.001  0.015  0.016
    4  0.000  0.001  0.015  0.016
    5  0.001  0.000  0.002  0.003
    6  0.000  0.001  0.015  0.016
    7  0.000  0.001  0.015  0.016
    8  0.000  0.001  0.015  0.016
    9  0.019  0.001  0.001  0.021
   10  0.000  0.000  0.019  0.020
   11  0.000  0.000  0.019  0.019
   12  0.000  0.000  0.019  0.020
   13  0.000  0.000  0.019  0.019
   14  0.000  0.000  0.019  0.019
   15  0.000  0.000  0.026  0.026
   16  0.000  0.000  0.019  0.020
   17  0.000  0.000  0.026  0.026
   18  0.000  0.000  0.026  0.026
   19  0.000  0.000  0.023  0.023
   20  0.000  0.000  0.028  0.028
   21  0.000  0.000  0.028  0.028
   22  0.000  0.000  0.029  0.030
   23  0.000  0.000  0.028  0.028
   24  0.000  0.000  0.029  0.030
   25  0.000  0.000  0.023  0.023
   26  0.000  0.000  0.023  0.023
   27  0.000  0.000  0.029  0.030
   28  0.001  0.000  0.010  0.012
   29  0.000  0.001  0.024  0.025
   30  0.000  0.001  0.024  0.025
   31  0.000  0.001  0.024  0.025
   32  0.000  0.001  0.024  0.025
   33  0.000  0.001  0.024  0.025
   34  0.000  0.001  0.024  0.025
   35  0.024  0.001  0.002  0.026
   36  0.017  0.000  0.034  0.051
   37  0.000  0.001  0.000  0.002
tot    0.081  0.018  0.718  0.817
 
band    19 # energy   -5.58104390 # occ.  2.00000000
 
ion      s      p      d    tot
    1  0.000  0.000  0.018  0.018
    2  0.002  0.001  0.007  0.010
    3  0.003  0.000  0.011  0.014
    4  0.002  0.001  0.007  0.010
    5  0.000  0.001  0.019  0.020
    6  0.008  0.001  0.008  0.017
    7  0.003  0.000  0.011  0.014
    8  0.008  0.001  0.008  0.017
    9  0.000  0.001  0.002  0.003
   10  0.000  0.000  0.021  0.022
   11  0.000  0.000  0.049  0.049
   12  0.000  0.000  0.012  0.013
   13  0.000  0.000  0.049  0.049
   14  0.000  0.000  0.049  0.049
   15  0.000  0.000  0.016  0.016
   16  0.000  0.000  0.012  0.013
   17  0.000  0.000  0.016  0.016
   18  0.000  0.000  0.025  0.025
   19  0.000  0.000  0.005  0.005
   20  0.001  0.000  0.090  0.091
   21  0.000  0.000  0.054  0.054
   22  0.000  0.000  0.032  0.032
   23  0.000  0.000  0.054  0.054
   24  0.001  0.000  0.019  0.020
   25  0.000  0.000  0.016  0.016
   26  0.000  0.000  0.005  0.005
   27  0.000  0.000  0.032  0.032
   28  0.000  0.000  0.001  0.001
   29  0.003  0.000  0.013  0.017
   30  0.001  0.000  0.011  0.012
   31  0.003  0.000  0.013  0.017
   32  0.001  0.000  0.007  0.009
   33  0.001  0.000  0.011  0.012
   34  0.001  0.000  0.007  0.009
   35  0.000  0.000  0.012  0.012
   36  0.000  0.001  0.069  0.070
   37  0.000  0.003  0.000  0.003
tot    0.039  0.013  0.792  0.845
 
band    20 # energy   -5.58101436 # occ.  2.00000000
 
ion      s      p      d    tot
    1  0.000  0.000  0.018  0.018
    2  0.007  0.000  0.010  0.018
    3  0.006  0.001  0.007  0.013
    4  0.007  0.000  0.010  0.018
    5  0.000  0.001  0.019  0.020
    6  0.000  0.000  0.010  0.010
    7  0.006  0.001  0.007  0.013
    8  0.000  0.000  0.010  0.010
    9  0.000  0.001  0.002  0.003
   10  0.000  0.000  0.009  0.009
   11  0.000  0.000  0.049  0.049
   12  0.000  0.000  0.018  0.019
   13  0.000  0.000  0.049  0.049
   14  0.000  0.000  0.049  0.049
   15  0.000  0.000  0.022  0.022
   16  0.000  0.000  0.018  0.019
   17  0.000  0.000  0.022  0.022
   18  0.000  0.000  0.013  0.013
   19  0.000  0.000  0.012  0.012
   20  0.000  0.000  0.042  0.042
   21  0.000  0.000  0.078  0.079
   22  0.001  0.000  0.023  0.024
   23  0.000  0.000  0.078  0.079
   24  0.000  0.000  0.036  0.037
   25  0.000  0.000  0.002  0.002
   26  0.000  0.000  0.012  0.012
   27  0.001  0.000  0.023  0.024
   28  0.000  0.000  0.001  0.001
   29  0.000  0.000  0.008  0.008
   30  0.003  0.000  0.010  0.013
   31  0.000  0.000  0.008  0.008
   32  0.003  0.000  0.013  0.016
   33  0.002  0.000  0.010  0.013
   34  0.003  0.000  0.013  0.016
   35  0.000  0.000  0.012  0.012
   36  0.000  0.001  0.069  0.070
   37  0.000  0.003  0.000  0.003
tot    0.039  0.013  0.792  0.845
 
band    21 # energy   -5.55984063 # occ.  2.00000000
 
ion      s      p      d    tot
    1  0.000  0.001  0.017  0.018
    2  0.011  0.001  0.015  0.027
    3  0.004  0.000  0.009  0.013
    4  0.011  0.001  0.015  0.027
    5  0.000  0.001  0.010  0.011
    6  0.002  0.000  0.013  0.015
    7  0.004  0.000  0.009  0.013
    8  0.002  0.000  0.013  0.015
    9  0.000  0.000  0.034  0.034
   10  0.001  0.000  0.050  0.051
   11  0.000  0.000  0.011  0.012
   12  0.000  0.000  0.027  0.027
   13  0.000  0.000  0.011  0.012
   14  0.001  0.000  0.010  0.011
   15  0.000  0.000  0.028  0.028
   16  0.000  0.000  0.027  0.027
   17  0.000  0.000  0.028  0.028
   18  0.001  0.000  0.024  0.024
   19  0.000  0.000  0.032  0.033
   20  0.000  0.000  0.025  0.025
   21  0.000  0.000  0.019  0.019
   22  0.000  0.000  0.020  0.020
   23  0.000  0.000  0.019  0.019
   24  0.000  0.000  0.022  0.022
   25  0.001  0.001  0.030  0.032
   26  0.000  0.000  0.032  0.033
   27  0.000  0.000  0.020  0.020
   28  0.000  0.001  0.013  0.014
   29  0.004  0.001  0.012  0.016
   30  0.014  0.001  0.008  0.023
   31  0.004  0.001  0.012  0.016
   32  0.003  0.001  0.013  0.016
   33  0.014  0.001  0.008  0.023
   34  0.003  0.001  0.013  0.016
   35  0.000  0.001  0.004  0.005
   36  0.000  0.000  0.063  0.063