 vasp.6.2.0 18Jan21 (build Jun 12 2021 23:27:24) complex                        
  
 executed on             LinuxIFC date 2022.05.28  01:04:54
 running on   28 total cores
 distrk:  each k-point on   28 cores,    1 groups
 distr:  one band on NCORE=   1 cores,   28 groups


--------------------------------------------------------------------------------------------------------


 INCAR:
   ISMEAR = -5
   SIGMA = 0.1
   ISPIN = 1
   EDIFF = 1.d-5
   EDIFFG = -0.01
   NSW = 0
   NELM = 150
   ENCUT = 500
   ISIF = 2
   IBRION = 2
   LREAL = Auto
   ALGO = Fast
   ICHARG = 11
   LORBIT = 10
   LCHARG = .F.
   LWAVE = .F.

 POTCAR:    PAW_PBE Au 04Oct2007                  
 POTCAR:    PAW_PBE Pd 04Jan2005                  
 POTCAR:    PAW_PBE O 08Apr2002                   
 POTCAR:    PAW_PBE H 15Jun2001                   
 -----------------------------------------------------------------------------
|                                                                             |
|           W    W    AA    RRRRR   N    N  II  N    N   GGGG   !!!           |
|           W    W   A  A   R    R  NN   N  II  NN   N  G    G  !!!           |
|           W    W  A    A  R    R  N N  N  II  N N  N  G       !!!           |
|           W WW W  AAAAAA  RRRRR   N  N N  II  N  N N  G  GGG   !            |
|           WW  WW  A    A  R   R   N   NN  II  N   NN  G    G                |
|           W    W  A    A  R    R  N    N  II  N    N   GGGG   !!!           |
|                                                                             |
|     For optimal performance we recommend to set                             |
|       NCORE = 2 up to number-of-cores-per-socket                            |
|     NCORE specifies how many cores store one orbital (NPAR=cpu/NCORE).      |
|     This setting can greatly improve the performance of VASP for DFT.       |
|     The default, NCORE=1 might be grossly inefficient on modern             |
|     multi-core architectures or massively parallel machines. Do your        |
|     own testing! More info at https://www.vasp.at/wiki/index.php/NCORE      |
|     Unfortunately you need to use the default for GW and RPA                |
|     calculations (for HF NCORE is supported but not extensively tested      |
|     yet).                                                                   |
|                                                                             |
 -----------------------------------------------------------------------------

 POTCAR:    PAW_PBE Au 04Oct2007                  
   VRHFIN =Au: s1d10                                                                                
   LEXCH  = PE                                                                                      
   EATOM  =   926.0867 eV,   68.0654 Ry                                                             
                                                                                                    
   TITEL  = PAW_PBE Au 04Oct2007                                                                    
   LULTRA =        F    use ultrasoft PP ?                                                          
   IUNSCR =        1    unscreen: 0-lin 1-nonlin 2-no                                               
   RPACOR =    2.330    partial core radius                                                         
   POMASS =  196.966; ZVAL   =   11.000    mass and valenz                                          
   RCORE  =    2.500    outmost cutoff radius                                                       
   RWIGS  =    2.840; RWIGS  =    1.503    wigner-seitz radius (au A)                               
   ENMAX  =  229.943; ENMIN  =  172.457 eV                                                          
   ICORE  =        3    local potential                                                             
   LCOR   =        T    correct aug charges                                                         
   LPAW   =        T    paw PP                                                                      
   EAUG   =  356.670                                                                                
   DEXC   =    0.000                                                                                
   RMAX   =    2.562    core radius for proj-oper                                                   
   RAUG   =    1.300    factor for augmentation sphere                                              
   RDEP   =    2.598    radius for radial grids                                                     
   RDEPT  =    2.193    core radius for aug-charge                                                  
                                                                                                    
   Atomic configuration                                                                             
   16 entries                                                                                       
     n  l   j            E        occ.                                                              
     1  0  0.50    -80748.5001   2.0000                                                             
     2  0  0.50    -14244.7466   2.0000                                                             
     2  1  1.50    -12310.9591   6.0000                                                             
     3  0  0.50     -3362.1768   2.0000                                                             
     3  1  1.50     -2801.5463   6.0000                                                             
     3  2  2.50     -2203.8206  10.0000                                                             
     4  0  0.50      -729.8168   2.0000                                                             
     4  1  1.50      -546.0527   6.0000                                                             
     4  2  2.50      -325.7302  10.0000                                                             
     4  3  3.50       -81.1472  14.0000                                                             
     5  0  0.50      -108.3201   2.0000                                                             
     5  1  1.50       -59.7479   6.0000                                                             
     5  2  2.50        -6.8783  10.0000                                                             
     6  0  0.50        -5.7602   1.0000                                                             
     6  1  1.50        -6.8029   0.0000                                                             
     5  3  2.50        -1.3606   0.0000                                                             
   Description                                                                                      
     l       E           TYP  RCUT    TYP  RCUT                                                     
     2     -6.8782861     23  2.500                                                                 
     2     -8.2388687     23  2.500                                                                 
     0     -5.7601759     23  2.500                                                                 
     0     -0.8493231     23  2.500                                                                 
     1     -2.7211652     23  2.500                                                                 
     1     27.2116520     23  2.500                                                                 
     3     -1.3605826     23  2.500                                                                 
  local pseudopotential read in
  partial core-charges read in
  partial kinetic energy density read in
  atomic valenz-charges read in
  non local Contribution for L=           2  read in
    real space projection operators read in
  non local Contribution for L=           2  read in
    real space projection operators read in
  non local Contribution for L=           0  read in
    real space projection operators read in
  non local Contribution for L=           0  read in
    real space projection operators read in
  non local Contribution for L=           1  read in
    real space projection operators read in
  non local Contribution for L=           1  read in
    real space projection operators read in
    PAW grid and wavefunctions read in
 
   number of l-projection  operators is LMAX  =           6
   number of lm-projection operators is LMMAX =          18
 
 POTCAR:    PAW_PBE Pd 04Jan2005                  
   VRHFIN =Pd : s1 d9                                                                               
   LEXCH  = PE                                                                                      
   EATOM  =   809.7530 eV,   59.5152 Ry                                                             
                                                                                                    
   TITEL  = PAW_PBE Pd 04Jan2005                                                                    
   LULTRA =        F    use ultrasoft PP ?                                                          
   IUNSCR =        1    unscreen: 0-lin 1-nonlin 2-no                                               
   RPACOR =    2.000    partial core radius                                                         
   POMASS =  106.420; ZVAL   =   10.000    mass and valenz                                          
   RCORE  =    2.600    outmost cutoff radius                                                       
   RWIGS  =    2.710; RWIGS  =    1.434    wigner-seitz radius (au A)                               
   ENMAX  =  250.925; ENMIN  =  188.194 eV                                                          
   ICORE  =        3    local potential                                                             
   LCOR   =        T    correct aug charges                                                         
   LPAW   =        T    paw PP                                                                      
   EAUG   =  416.230                                                                                
   DEXC   =    0.000                                                                                
   RMAX   =    2.653    core radius for proj-oper                                                   
   RAUG   =    1.300    factor for augmentation sphere                                              
   RDEP   =    2.734    radius for radial grids                                                     
   RDEPT  =    2.103    core radius for aug-charge                                                  
                                                                                                    
   Atomic configuration                                                                             
   12 entries                                                                                       
     n  l   j            E        occ.                                                              
     1  0  0.50    -24164.6631   2.0000                                                             
     2  0  0.50     -3530.9218   2.0000                                                             
     2  1  1.50     -3165.6822   6.0000                                                             
     3  0  0.50      -639.4577   2.0000                                                             
     3  1  1.50      -519.4532   6.0000                                                             
     3  2  2.50      -328.9757  10.0000                                                             
     4  0  0.50       -88.7014   2.0000                                                             
     4  1  1.50       -54.4540   6.0000                                                             
     4  2  2.50        -6.6878   9.0000                                                             
     5  0  0.50        -4.3543   1.0000                                                             
     5  1  0.50        -1.3606   0.0000                                                             
     4  3  2.50        -1.3606   0.0000                                                             
   Description                                                                                      
     l       E           TYP  RCUT    TYP  RCUT                                                     
     2     -6.6878251     23  2.400                                                                 
     2     -8.0484077     23  2.400                                                                 
     0     -4.3542939     23  2.400                                                                 
     0      4.3406793     23  2.400                                                                 
     1     -4.0817478     23  2.600                                                                 
     1     15.8380318     23  2.600                                                                 
     3     -4.0817478     23  2.400                                                                 
  local pseudopotential read in
  partial core-charges read in
  partial kinetic energy density read in
  atomic valenz-charges read in
  non local Contribution for L=           2  read in
    real space projection operators read in
  non local Contribution for L=           2  read in
    real space projection operators read in
  non local Contribution for L=           0  read in
    real space projection operators read in
  non local Contribution for L=           0  read in
    real space projection operators read in
  non local Contribution for L=           1  read in
    real space projection operators read in
  non local Contribution for L=           1  read in
    real space projection operators read in
    PAW grid and wavefunctions read in
 
   number of l-projection  operators is LMAX  =           6
   number of lm-projection operators is LMMAX =          18
 
 POTCAR:    PAW_PBE O 08Apr2002                   
   VRHFIN =O: s2p4                                                                                  
   LEXCH  = PE                                                                                      
   EATOM  =   432.3788 eV,   31.7789 Ry                                                             
                                                                                                    
   TITEL  = PAW_PBE O 08Apr2002                                                                     
   LULTRA =        F    use ultrasoft PP ?                                                          
   IUNSCR =        1    unscreen: 0-lin 1-nonlin 2-no                                               
   RPACOR =    1.200    partial core radius                                                         
   POMASS =   16.000; ZVAL   =    6.000    mass and valenz                                          
   RCORE  =    1.520    outmost cutoff radius                                                       
   RWIGS  =    1.550; RWIGS  =    0.820    wigner-seitz radius (au A)                               
   ENMAX  =  400.000; ENMIN  =  300.000 eV                                                          
   ICORE  =        2    local potential                                                             
   LCOR   =        T    correct aug charges                                                         
   LPAW   =        T    paw PP                                                                      
   EAUG   =  605.392                                                                                
   DEXC   =    0.000                                                                                
   RMAX   =    1.553    core radius for proj-oper                                                   
   RAUG   =    1.300    factor for augmentation sphere                                              
   RDEP   =    1.550    radius for radial grids                                                     
   RDEPT  =    1.329    core radius for aug-charge                                                  
                                                                                                    
   Atomic configuration                                                                             
    4 entries                                                                                       
     n  l   j            E        occ.                                                              
     1  0  0.50      -514.6923   2.0000                                                             
     2  0  0.50       -23.9615   2.0000                                                             
     2  1  0.50        -9.0305   4.0000                                                             
     3  2  1.50        -9.5241   0.0000                                                             
   Description                                                                                      
     l       E           TYP  RCUT    TYP  RCUT                                                     
     0    -23.9615318     23  1.200                                                                 
     0     -9.5240782     23  1.200                                                                 
     1     -9.0304911     23  1.520                                                                 
     1      8.1634956     23  1.520                                                                 
     2     -9.5240782      7  1.500                                                                 
  local pseudopotential read in
  partial core-charges read in
  partial kinetic energy density read in
  kinetic energy density of atom read in
  atomic valenz-charges read in
  non local Contribution for L=           0  read in
    real space projection operators read in
  non local Contribution for L=           0  read in
    real space projection operators read in
  non local Contribution for L=           1  read in
    real space projection operators read in
  non local Contribution for L=           1  read in
    real space projection operators read in
    PAW grid and wavefunctions read in
 
   number of l-projection  operators is LMAX  =           4
   number of lm-projection operators is LMMAX =           8
 
 POTCAR:    PAW_PBE H 15Jun2001                   
   VRHFIN =H: ultrasoft test                                                                        
   LEXCH  = PE                                                                                      
   EATOM  =    12.4884 eV,    0.9179 Ry                                                             
                                                                                                    
   TITEL  = PAW_PBE H 15Jun2001                                                                     
   LULTRA =        F    use ultrasoft PP ?                                                          
   IUNSCR =        0    unscreen: 0-lin 1-nonlin 2-no                                               
   RPACOR =    0.000    partial core radius                                                         
   POMASS =    1.000; ZVAL   =    1.000    mass and valenz                                          
   RCORE  =    1.100    outmost cutoff radius                                                       
   RWIGS  =    0.700; RWIGS  =    0.370    wigner-seitz radius (au A)                               
   ENMAX  =  250.000; ENMIN  =  200.000 eV                                                          
   RCLOC  =    0.701    cutoff for local pot                                                        
   LCOR   =        T    correct aug charges                                                         
   LPAW   =        T    paw PP                                                                      
   EAUG   =  400.000                                                                                
   RMAX   =    1.123    core radius for proj-oper                                                   
   RAUG   =    1.200    factor for augmentation sphere                                              
   RDEP   =    1.112    radius for radial grids                                                     
   RDEPT  =    0.926    core radius for aug-charge                                                  
                                                                                                    
   Atomic configuration                                                                             
    2 entries                                                                                       
     n  l   j            E        occ.                                                              
     1  0  0.50        -6.4927   1.0000                                                             
     2  1  0.50        -3.4015   0.0000                                                             
   Description                                                                                      
     l       E           TYP  RCUT    TYP  RCUT                                                     
     0     -6.4927494     23  1.100                                                                 
     0      6.8029130     23  1.100                                                                 
     1     -4.0817478     23  1.100                                                                 
  local pseudopotential read in
  atomic valenz-charges read in
  non local Contribution for L=           0  read in
    real space projection operators read in
  non local Contribution for L=           0  read in
    real space projection operators read in
  non local Contribution for L=           1  read in
    real space projection operators read in
    PAW grid and wavefunctions read in
 
   number of l-projection  operators is LMAX  =           3
   number of lm-projection operators is LMMAX =           5
 
 Optimization of the real space projectors (new method)

 maximal supplied QI-value         = 15.12
 optimisation between [QCUT,QGAM] = [ 11.34, 22.83] = [ 36.00,145.93] Ry 
 Optimized for a Real-space Cutoff    1.39 Angstroem

   l    n(q)    QCUT    max X(q) W(low)/X(q) W(high)/X(q)  e(spline) 
   2      9    11.338    60.898    0.39E-03    0.42E-03    0.21E-06
   2      9    11.338    58.894    0.40E-03    0.42E-03    0.22E-06
   0      9    11.338   109.617    0.13E-03    0.20E-04    0.13E-06
   0      9    11.338    75.026    0.13E-03    0.20E-04    0.13E-06
   1      9    11.338    16.344    0.33E-04    0.24E-03    0.18E-06
   1      9    11.338    10.160    0.26E-04    0.19E-03    0.15E-06
 Optimization of the real space projectors (new method)

 maximal supplied QI-value         = 14.36
 optimisation between [QCUT,QGAM] = [ 11.35, 22.84] = [ 36.05,146.02] Ry 
 Optimized for a Real-space Cutoff    1.47 Angstroem

   l    n(q)    QCUT    max X(q) W(low)/X(q) W(high)/X(q)  e(spline) 
   2      9    11.346    59.108    0.74E-04    0.81E-04    0.26E-06
   2      9    11.346    58.101    0.74E-04    0.83E-04    0.27E-06
   0     10    11.346   102.235    0.26E-04    0.31E-04    0.16E-06
   0     10    11.346    58.388    0.23E-04    0.29E-04    0.15E-06
   1     10    11.346    22.191    0.23E-03    0.26E-03    0.14E-06
   1     10    11.346    15.590    0.19E-03    0.22E-03    0.12E-06
 Optimization of the real space projectors (new method)

 maximal supplied QI-value         = 24.76
 optimisation between [QCUT,QGAM] = [ 11.39, 22.77] = [ 36.31,145.25] Ry 
 Optimized for a Real-space Cutoff    1.00 Angstroem

   l    n(q)    QCUT    max X(q) W(low)/X(q) W(high)/X(q)  e(spline) 
   0      7    11.387    20.381    0.39E-03    0.13E-02    0.15E-06
   0      7    11.387    15.268    0.42E-03    0.14E-02    0.17E-06
   1      6    11.387     5.964    0.41E-03    0.11E-02    0.17E-06
   1      6    11.387     5.382    0.39E-03    0.87E-03    0.15E-06
 Optimization of the real space projectors (new method)

 maximal supplied QI-value         = 34.20
 optimisation between [QCUT,QGAM] = [ 11.29, 22.57] = [ 35.68,142.71] Ry 
 Optimized for a Real-space Cutoff    1.16 Angstroem

   l    n(q)    QCUT    max X(q) W(low)/X(q) W(high)/X(q)  e(spline) 
   0      8    11.287    19.460    0.40E-03    0.73E-03    0.16E-06
   0      8    11.287    12.209    0.38E-03    0.70E-03    0.15E-06
   1      7    11.287     4.655    0.22E-03    0.25E-04    0.22E-06
  PAW_PBE Au 04Oct2007                  :
 energy of atom  1       EATOM= -926.0867
 kinetic energy error for atom=    0.0042 (will be added to EATOM!!)
  PAW_PBE Pd 04Jan2005                  :
 energy of atom  2       EATOM= -809.7530
 kinetic energy error for atom=    0.0049 (will be added to EATOM!!)
  PAW_PBE O 08Apr2002                   :
 energy of atom  3       EATOM= -432.3788
 kinetic energy error for atom=    0.0224 (will be added to EATOM!!)
  PAW_PBE H 15Jun2001                   :
 energy of atom  4       EATOM=  -12.4884
 kinetic energy error for atom=    0.0020 (will be added to EATOM!!)
 
 
 POSCAR: Au-Pd-OOH
  positions in direct lattice
  velocities in cartesian coordinates
 exchange correlation table for  LEXCH =        8
   RHO(1)=    0.500       N(1)  =     2000
   RHO(2)=  100.500       N(2)  =     4000

 VTST: version 3.2, (02/03/18)

 CHAIN: initializing optimizer
 
 OPT: Using VASP Conjugate-Gradient optimizer
 CHAIN: Read ICHAIN            0
 
 POSCAR: Au-Pd-OOH
  positions in direct lattice
  velocities in cartesian coordinates
 


--------------------------------------------------------------------------------------------------------


 ion  position               nearest neighbor table
   1  0.000  0.000  0.204-  16 2.94  12 2.94   6 2.94   8 2.94   7 2.94   3 2.94  10 2.94   4 2.94
                             2 2.94
   2  0.333  0.000  0.204-   9 2.94  11 2.94  17 2.94  10 2.94   8 2.94   4 2.94   5 2.94   1 2.94
                             3 2.94
   3  0.667  0.000  0.204-   7 2.94  18 2.94  12 2.94   1 2.94  11 2.94   5 2.94   6 2.94   9 2.94
                             2 2.94
   4  0.000  0.333  0.204-  10 2.94   6 2.94   5 2.94  13 2.94   2 2.94  15 2.94   9 2.94   1 2.94
                             7 2.94
   5  0.333  0.333  0.204-  13 2.94   7 2.94  11 2.94   4 2.94   2 2.94  14 2.94   3 2.94   8 2.94
                             6 2.94
   6  0.667  0.333  0.204-  15 2.94  14 2.94   1 2.94  12 2.94   4 2.94   9 2.94   8 2.94   3 2.94
                             5 2.94
   7  0.000  0.667  0.204-  18 2.94   3 2.94  16 2.94   5 2.94   1 2.94  13 2.94   8 2.94   4 2.94
                             9 2.94
   8  0.333  0.667  0.204-   9 2.94  17 2.94   1 2.94   2 2.94  14 2.94  16 2.94   6 2.94   7 2.94
                             5 2.94
   9  0.667  0.667  0.204-   2 2.94   8 2.94  17 2.94   6 2.94  15 2.94   4 2.94   3 2.94  18 2.94
                             7 2.94
  10  0.111  0.111  0.296-  26 2.92  19 2.92  20 2.93  11 2.94  17 2.94   2 2.94   4 2.94   1 2.94
                            12 2.94  16 2.94  13 2.94  15 2.94
  11  0.444  0.111  0.296-  27 2.93  20 2.93  21 2.93  13 2.94   2 2.94  10 2.94  17 2.94   5 2.94
                             3 2.94  18 2.94  14 2.94  12 2.94
  12  0.778  0.111  0.296-  25 2.92  19 2.92  21 2.93  16 2.94  18 2.94   1 2.94  14 2.94  15 2.94
                             3 2.94   6 2.94  10 2.94  11 2.94
  13  0.111  0.444  0.296-  22 2.93  23 2.93  20 2.93   5 2.94  18 2.94  11 2.94   7 2.94   4 2.94
                            16 2.94  10 2.94  14 2.94  15 2.94
  14  0.444  0.444  0.296-  24 2.93  21 2.93  23 2.93  15 2.94   6 2.94  12 2.94   8 2.94  17 2.94
                             5 2.94  16 2.94  13 2.94  11 2.94
  15  0.778  0.444  0.296-  19 2.93  24 2.93  22 2.93  14 2.94   6 2.94  17 2.94  12 2.94   9 2.94
                             4 2.94  10 2.94  13 2.94  18 2.94
  16  0.111  0.778  0.296-  25 2.92  26 2.92  23 2.93  18 2.94  12 2.94   7 2.94   1 2.94   8 2.94
                            13 2.94  10 2.94  14 2.94  17 2.94
  17  0.444  0.778  0.296-  26 2.93  27 2.93  24 2.93   9 2.94  15 2.94   2 2.94  10 2.94  11 2.94
                             8 2.94  14 2.94  16 2.94  18 2.94
  18  0.778  0.778  0.296-  25 2.93  22 2.93  27 2.93  16 2.94   7 2.94  13 2.94  12 2.94   3 2.94
                            11 2.94   9 2.94  15 2.94  17 2.94
  19  0.889  0.222  0.388-  10 2.92  12 2.92  15 2.93  26 2.93  25 2.93  21 2.94  20 2.94  24 2.94
                            22 2.94  28 2.96  32 2.97  31 2.97
  20  0.222  0.222  0.388-  36 2.83  10 2.93  11 2.93  13 2.93  26 2.94  19 2.94  27 2.94  22 2.94
                            23 2.94  21 2.94  29 2.95  31 2.95
  21  0.556  0.222  0.388-  36 2.83  12 2.93  14 2.93  11 2.93  25 2.94  19 2.94  24 2.94  27 2.94
                            20 2.94  23 2.94  30 2.95  32 2.95
  22  0.889  0.556  0.388-  18 2.93  15 2.93  13 2.93  24 2.94  27 2.94  23 2.94  20 2.94  25 2.94
                            19 2.94  33 2.96  31 2.96  35 2.96
  23  0.222  0.556  0.388-  36 2.83  16 2.93  13 2.93  14 2.93  25 2.94  26 2.94  22 2.94  24 2.94
                            20 2.94  21 2.94  33 2.95  34 2.95
  24  0.556  0.556  0.388-  15 2.93  17 2.93  14 2.93  27 2.94  22 2.94  21 2.94  23 2.94  26 2.94
                            19 2.94  32 2.96  34 2.96  35 2.96
  25  0.889  0.889  0.388-  16 2.92  12 2.92  18 2.93  19 2.93  26 2.93  23 2.94  21 2.94  22 2.94
                            27 2.94  28 2.96  33 2.97  30 2.97
  26  0.222  0.889  0.388-  10 2.92  16 2.92  17 2.93  19 2.93  25 2.93  20 2.94  23 2.94  27 2.94
                            24 2.94  28 2.96  29 2.97  34 2.97
  27  0.556  0.889  0.388-  17 2.93  18 2.93  11 2.93  24 2.94  22 2.94  20 2.94  21 2.94  26 2.94
                            25 2.94  29 2.96  30 2.96  35 2.96
  28  0.000  0.000  0.482-  34 2.94  32 2.94  33 2.94  30 2.94  31 2.94  29 2.94  25 2.96  19 2.96
                            26 2.96
  29  0.333  0.001  0.482-  30 2.93  31 2.93  36 2.93  35 2.94  28 2.94  20 2.95  34 2.95  27 2.96
                            26 2.97
  30  0.666  0.001  0.482-  29 2.93  32 2.93  36 2.93  35 2.94  28 2.94  21 2.95  33 2.95  27 2.96
                            25 2.97
  31  0.001  0.333  0.482-  33 2.93  29 2.93  36 2.93  35 2.94  28 2.94  20 2.95  32 2.95  22 2.96
                            19 2.97
  32  0.666  0.333  0.482-  34 2.93  30 2.93  36 2.93  35 2.94  28 2.94  21 2.95  31 2.95  24 2.96
                            19 2.97
  33  0.001  0.666  0.482-  31 2.93  34 2.93  36 2.93  35 2.94  28 2.94  23 2.95  30 2.95  22 2.96
                            25 2.97
  34  0.333  0.666  0.482-  32 2.93  33 2.93  36 2.93  35 2.94  28 2.94  23 2.95  29 2.95  24 2.96
                            26 2.97
  35  0.667  0.667  0.482-  29 2.94  34 2.94  32 2.94  31 2.94  30 2.94  33 2.94  24 2.96  27 2.96
                            22 2.96
  36  0.333  0.333  0.476-  37 2.05  20 2.83  23 2.83  21 2.83  33 2.93  31 2.93  29 2.93  30 2.93
                            34 2.93  32 2.93
  37  0.300  0.352  0.554-  38 1.43  36 2.05
  38  0.439  0.209  0.582-  39 0.98  37 1.43
  39  0.517  0.256  0.589-  38 0.98
 
  LATTYP: Found a hexagonal cell.
 ALAT       =     8.8135128021
 C/A-ratio  =     2.9412617888
  
  Lattice vectors:
  
 A1 = (  -4.4067569092,  -7.6327256898,   0.0000000000)
 A2 = (   8.8135128021,   0.0000000000,   0.0000000000)
 A3 = (   0.0000000000,   0.0000000000,  25.9228484302)


Analysis of symmetry for initial positions (statically):
=====================================================================
 Subroutine PRICEL returns:
 Original cell was already a primitive cell.
 

 Routine SETGRP: Setting up the symmetry group for a 
 hexagonal supercell.


 Subroutine GETGRP returns: Found  1 space group operations
 (whereof  1 operations were pure point group operations)
 out of a pool of 24 trial point group operations.


The static configuration has the point symmetry C_1 .


Analysis of symmetry for dynamics (positions and initial velocities):
=====================================================================
 Subroutine PRICEL returns:
 Original cell was already a primitive cell.
 

 Routine SETGRP: Setting up the symmetry group for a 
 hexagonal supercell.


 Subroutine GETGRP returns: Found  1 space group operations
 (whereof  1 operations were pure point group operations)
 out of a pool of 24 trial point group operations.


The dynamic configuration has the point symmetry C_1 .


Analysis of constrained symmetry for selective dynamics:
=====================================================================
 Subroutine PRICEL returns:
 Original cell was already a primitive cell.
 

 Routine SETGRP: Setting up the symmetry group for a 
 hexagonal supercell.


 Subroutine GETGRP returns: Found  1 space group operations
 (whereof  1 operations were pure point group operations)
 out of a pool of 24 trial point group operations.


The constrained configuration has the point symmetry C_1 .


 Subroutine INISYM returns: Found  1 space group operations
 (whereof  1 operations are pure point group operations),
 and found     1 'primitive' translations


----------------------------------------------------------------------------------------

                                     Primitive cell                                     

  volume of cell :    1743.8592

  direct lattice vectors                    reciprocal lattice vectors
     8.813512802  0.000000000  0.000000000     0.113462137 -0.065507406  0.000000000
     4.406756909  7.632725690  0.000000000     0.000000000  0.131014796  0.000000000
     0.000000000  0.000000000 25.922848430     0.000000000  0.000000000  0.038576008

  length of vectors
     8.813512802  8.813512802 25.922848430     0.131014796  0.131014796  0.038576008

  position of ions in fractional coordinates (direct lattice)
     0.000000000  0.000000000  0.203695977
     0.333333343  0.000000000  0.203695977
     0.666666687  0.000000000  0.203695977
     1.000000000  0.333333343  0.203695977
     0.333333313  0.333333343  0.203695977
     0.666666687  0.333333343  0.203695977
     1.000000000  0.666666687  0.203695977
     0.333333343  0.666666687  0.203695977
     0.666666627  0.666666687  0.203695977
     0.111111119  0.111111112  0.296229562
     0.444444418  0.111111112  0.296229562
     0.777777791  0.111111112  0.296229562
     0.111111127  0.444444448  0.296229562
     0.444444478  0.444444448  0.296229562
     0.777777731  0.444444448  0.296229562
     0.111111090  0.777777791  0.296229562
     0.444444448  0.777777791  0.296229562
     0.777777851  0.777777791  0.296229562
     0.889096781  0.221806453  0.388182975
     0.222138768  0.222138753  0.388488949
     0.555722525  0.222138753  0.388488949
     0.888823131  0.555588464  0.388484993
     0.222138723  0.555722525  0.388488949
     0.555588464  0.555588464  0.388484993
     0.889096781  0.889096781  0.388182975
     0.221806483  0.889096781  0.388182975
     0.555588404  0.888823131  0.388484993
     0.000000000  0.000000000  0.481952657
     0.333446929  0.000866645  0.481874835
     0.665686455  0.000866645  0.481874835
     0.000866645  0.333446929  0.481874835
     0.665686455  0.333446929  0.481874835
     0.000866645  0.665686455  0.481874835
     0.333446929  0.665686455  0.481874835
     0.666666627  0.666666687  0.482114549
     0.333333313  0.333333343  0.476063215
     0.299581442  0.351628006  0.554355424
     0.438644775  0.209348024  0.581978800
     0.517475526  0.255589348  0.589356156

  ion indices of the primitive-cell ions
   primitive index   ion index
                 1           1
                 2           2
                 3           3
                 4           4
                 5           5
                 6           6
                 7           7
                 8           8
                 9           9
                10          10
                11          11
                12          12
                13          13
                14          14
                15          15
                16          16
                17          17
                18          18
                19          19
                20          20
                21          21
                22          22
                23          23
                24          24
                25          25
                26          26
                27          27
                28          28
                29          29
                30          30
                31          31
                32          32
                33          33
                34          34
                35          35
                36          36
                37          37
                38          38
                39          39

----------------------------------------------------------------------------------------

 
 
 KPOINTS: Automatic mesh                          

Automatic generation of k-mesh.
 Grid dimensions read from file:
 generate k-points for:    8    8    1

 Generating k-lattice:

  Cartesian coordinates                     Fractional coordinates (reciprocal lattice)
     0.014182767 -0.008188426  0.000000000     0.125000000 -0.000000000  0.000000000
     0.000000000  0.016376850  0.000000000     0.000000000  0.125000000  0.000000000
     0.000000000  0.000000000  0.038576008     0.000000000  0.000000000  1.000000000

  Length of vectors
     0.016376850  0.016376850  0.038576008

  Shift w.r.t. Gamma in fractional coordinates (k-lattice)
     0.000000000  0.000000000  0.000000000

 TETIRR: Found    192 inequivalent tetrahedra from      384
 
 Subroutine IBZKPT returns following result:
 ===========================================
 
 Found     34 irreducible k-points:
 
 Following reciprocal coordinates:
            Coordinates               Weight
  0.000000  0.000000  0.000000      1.000000
  0.125000  0.000000  0.000000      2.000000
  0.125000  0.125000  0.000000      2.000000
  0.000000  0.125000  0.000000      2.000000
  0.250000  0.000000  0.000000      2.000000
  0.250000  0.250000  0.000000      2.000000
  0.000000  0.250000  0.000000      2.000000
  0.375000 -0.000000  0.000000      2.000000
  0.375000  0.375000  0.000000      2.000000
  0.000000  0.375000  0.000000      2.000000
  0.500000  0.000000  0.000000      1.000000
  0.500000  0.500000  0.000000      1.000000
  0.000000  0.500000  0.000000      1.000000
  0.250000  0.125000  0.000000      2.000000
  0.125000  0.250000  0.000000      2.000000
 -0.125000  0.125000  0.000000      2.000000
  0.375000  0.125000  0.000000      2.000000
  0.250000  0.375000  0.000000      2.000000
 -0.125000  0.250000  0.000000      2.000000
  0.250000 -0.125000  0.000000      2.000000
 -0.125000 -0.375000  0.000000      2.000000
 -0.375000 -0.250000  0.000000      2.000000
  0.500000  0.125000  0.000000      2.000000
  0.375000  0.500000  0.000000      2.000000
 -0.125000  0.375000  0.000000      2.000000
  0.375000 -0.125000  0.000000      2.000000
 -0.125000  0.500000  0.000000      2.000000
  0.500000 -0.375000  0.000000      2.000000
  0.500000  0.250000  0.000000      2.000000
  0.250000  0.500000  0.000000      2.000000
 -0.250000  0.250000  0.000000      2.000000
 -0.375000  0.250000  0.000000      2.000000
  0.375000 -0.375000  0.000000      2.000000
 -0.250000  0.375000  0.000000      2.000000
 
 Following cartesian coordinates:
            Coordinates               Weight
  0.000000  0.000000  0.000000      1.000000
  0.014183 -0.008188  0.000000      2.000000
  0.014183  0.008188  0.000000      2.000000
  0.000000  0.016377  0.000000      2.000000
  0.028366 -0.016377  0.000000      2.000000
  0.028366  0.016377  0.000000      2.000000
  0.000000  0.032754  0.000000      2.000000
  0.042548 -0.024565  0.000000      2.000000
  0.042548  0.024565  0.000000      2.000000
  0.000000  0.049131  0.000000      2.000000
  0.056731 -0.032754  0.000000      1.000000
  0.056731  0.032754  0.000000      1.000000
  0.000000  0.065507  0.000000      1.000000
  0.028366 -0.000000  0.000000      2.000000
  0.014183  0.024565  0.000000      2.000000
 -0.014183  0.024565  0.000000      2.000000
  0.042548 -0.008188  0.000000      2.000000
  0.028366  0.032754  0.000000      2.000000
 -0.014183  0.040942  0.000000      2.000000
  0.028366 -0.032754  0.000000      2.000000
 -0.014183 -0.040942  0.000000      2.000000
 -0.042548 -0.008188  0.000000      2.000000
  0.056731 -0.016377  0.000000      2.000000
  0.042548  0.040942  0.000000      2.000000
 -0.014183  0.057319  0.000000      2.000000
  0.042548 -0.040942  0.000000      2.000000
 -0.014183  0.073696  0.000000      2.000000
  0.056731 -0.081884  0.000000      2.000000
  0.056731 -0.000000  0.000000      2.000000
  0.028366  0.049131  0.000000      2.000000
 -0.028366  0.049131  0.000000      2.000000
 -0.042548  0.057319  0.000000      2.000000
  0.042548 -0.073696  0.000000      2.000000
 -0.028366  0.065507  0.000000      2.000000
 


--------------------------------------------------------------------------------------------------------




 Dimension of arrays:
   k-points           NKPTS =     34   k-points in BZ     NKDIM =     34   number of bands    NBANDS=    252
   number of dos      NEDOS =    301   number of ions     NIONS =     39
   non local maximal  LDIM  =      6   non local SUM 2l+1 LMDIM =     18
   total plane-waves  NPLWV = 331776
   max r-space proj   IRMAX =   2604   max aug-charges    IRDMAX=  11833
   dimension x,y,z NGX =    48 NGY =   48 NGZ =  144
   dimension x,y,z NGXF=    96 NGYF=   96 NGZF=  288
   support grid    NGXF=    96 NGYF=   96 NGZF=  288
   ions per type =              35   1   2   1
   NGX,Y,Z   is equivalent  to a cutoff of   9.05,  9.05,  9.23 a.u.
   NGXF,Y,Z  is equivalent  to a cutoff of  18.11, 18.11, 18.47 a.u.

 SYSTEM =  unknown system                          
 POSCAR =  Au-Pd-OOH                               

 Startparameter for this run:
   NWRITE =      2    write-flag & timer
   PREC   = normal    normal or accurate (medium, high low for compatibility)
   ISTART =      0    job   : 0-new  1-cont  2-samecut
   ICHARG =     11    charge: 1-file 2-atom 10-const
   ISPIN  =      1    spin polarized calculation?
   LNONCOLLINEAR =      F non collinear calculations
   LSORBIT =      F    spin-orbit coupling
   INIWAV =      1    electr: 0-lowe 1-rand  2-diag
   LASPH  =      F    aspherical Exc in radial PAW
   METAGGA=      F    non-selfconsistent MetaGGA calc.

 Electronic Relaxation 1
   ENCUT  =  500.0 eV  36.75 Ry    6.06 a.u.  16.07 16.07 47.26*2*pi/ulx,y,z
   ENINI  =  500.0     initial cutoff
   ENAUG  =  605.4 eV  augmentation charge cutoff
   NELM   =    150;   NELMIN=  2; NELMDL= -5     # of ELM steps 
   EDIFF  = 0.1E-04   stopping-criterion for ELM
   LREAL  =      T    real-space projection
   NLSPLINE    = F    spline interpolate recip. space projectors
   LCOMPAT=      F    compatible to vasp.4.4
   GGA_COMPAT  = T    GGA compatible to vasp.4.4-vasp.4.6
   LMAXPAW     = -100 max onsite density
   LMAXMIX     =    2 max onsite mixed and CHGCAR
   VOSKOWN=      0    Vosko Wilk Nusair interpolation
   ROPT   =   -0.00050  -0.00050  -0.00050  -0.00050
 Ionic relaxation
   EDIFFG = -.1E-01   stopping-criterion for IOM
   NSW    =      0    number of steps for IOM
   NBLOCK =      1;   KBLOCK =      1    inner block; outer block 
   IBRION =     -1    ionic relax: 0-MD 1-quasi-New 2-CG
   NFREE  =      1    steps in history (QN), initial steepest desc. (CG)
   ISIF   =      2    stress and relaxation
   IWAVPR =     10    prediction:  0-non 1-charg 2-wave 3-comb
   ISYM   =      2    0-nonsym 1-usesym 2-fastsym
   LCORR  =      T    Harris-Foulkes like correction to forces

   POTIM  = 0.5000    time-step for ionic-motion
   TEIN   =    0.0    initial temperature
   TEBEG  =    0.0;   TEEND  =   0.0 temperature during run
   SMASS  =  -3.00    Nose mass-parameter (am)
   estimated Nose-frequenzy (Omega)   =  0.10E-29 period in steps = 0.13E+47 mass=  -0.178E-26a.u.
   SCALEE = 1.0000    scale energy and forces
   NPACO  =    256;   APACO  = 16.0  distance and # of slots for P.C.
   PSTRESS=    0.0 pullay stress

  Mass of Ions in am
   POMASS = 196.97106.42 16.00  1.00
  Ionic Valenz
   ZVAL   =  11.00 10.00  6.00  1.00
  Atomic Wigner-Seitz radii
   RWIGS  =  -1.00 -1.00 -1.00 -1.00
  virtual crystal weights 
   VCA    =   1.00  1.00  1.00  1.00
   NELECT =     408.0000    total number of electrons
   NUPDOWN=      -1.0000    fix difference up-down

 DOS related values:
   EMIN   =  10.00;   EMAX   =-10.00  energy-range for DOS
   EFERMI =   0.00
   ISMEAR =    -5;   SIGMA  =   0.10  broadening in eV -4-tet -1-fermi 0-gaus

 Electronic relaxation 2 (details)
   IALGO  =     68    algorithm
   LDIAG  =      T    sub-space diagonalisation (order eigenvalues)
   LSUBROT=      F    optimize rotation matrix (better conditioning)
   TURBO    =      0    0=normal 1=particle mesh
   IRESTART =      0    0=no restart 2=restart with 2 vectors
   NREBOOT  =      0    no. of reboots
   NMIN     =      0    reboot dimension
   EREF     =   0.00    reference energy to select bands
   IMIX   =      4    mixing-type and parameters
     AMIX     =   0.40;   BMIX     =  1.00
     AMIX_MAG =   1.60;   BMIX_MAG =  1.00
     AMIN     =   0.10
     WC   =   100.;   INIMIX=   1;  MIXPRE=   1;  MAXMIX= -45

 Intra band minimization:
   WEIMIN = 0.0000     energy-eigenvalue tresh-hold
   EBREAK =  0.99E-08  absolut break condition
   DEPER  =   0.30     relativ break condition  

   TIME   =   0.40     timestep for ELM

  volume/ion in A,a.u.               =      44.71       301.75
  Fermi-wavevector in a.u.,A,eV,Ry     =   1.008767  1.906294 13.845450  1.017612
  Thomas-Fermi vector in A             =   2.141655
 
 Write flags
   LWAVE        =      F    write WAVECAR
   LDOWNSAMPLE  =      F    k-point downsampling of WAVECAR
   LCHARG       =      F    write CHGCAR
   LVTOT        =      F    write LOCPOT, total local potential
   LVHAR        =      F    write LOCPOT, Hartree potential only
   LELF         =      F    write electronic localiz. function (ELF)
   LORBIT       =     10    0 simple, 1 ext, 2 COOP (PROOUT), +10 PAW based schemes


 Dipole corrections
   LMONO  =      F    monopole corrections only (constant potential shift)
   LDIPOL =      F    correct potential (dipole corrections)
   IDIPOL =      0    1-x, 2-y, 3-z, 4-all directions 
   EPSILON=  1.0000000 bulk dielectric constant

 Exchange correlation treatment:
   GGA     =    --    GGA type
   LEXCH   =     8    internal setting for exchange type
   VOSKOWN=      0    Vosko Wilk Nusair interpolation
   LHFCALC =     F    Hartree Fock is set to
   LHFONE  =     F    Hartree Fock one center treatment
   AEXX    =    0.0000 exact exchange contribution

 Linear response parameters
   LEPSILON=     F    determine dielectric tensor
   LRPA    =     F    only Hartree local field effects (RPA)
   LNABLA  =     F    use nabla operator in PAW spheres
   LVEL    =     F    velocity operator in full k-point grid
   LINTERFAST=   F  fast interpolation
   KINTER  =     0    interpolate to denser k-point grid
   CSHIFT  =0.1000    complex shift for real part using Kramers Kronig
   OMEGAMAX=  -1.0    maximum frequency
   DEG_THRESHOLD= 0.2000000E-02 threshold for treating states as degnerate
   RTIME   =   -0.100 relaxation time in fs
  (WPLASMAI=    0.000 imaginary part of plasma frequency in eV, 0.658/RTIME)
   DFIELD  = 0.0000000 0.0000000 0.0000000 field for delta impulse in time
 
 Orbital magnetization related:
   ORBITALMAG=     F  switch on orbital magnetization
   LCHIMAG   =     F  perturbation theory with respect to B field
   DQ        =  0.001000  dq finite difference perturbation B field
   LLRAUG    =     F  two centre corrections for induced B field



--------------------------------------------------------------------------------------------------------


 Static calculation
 charge density and potential remain constant during run
 non-spin polarized calculation
 RMM-DIIS sequential band-by-band and
  variant of blocked Davidson during initial phase
 perform sub-space diagonalisation
    before iterative eigenvector-optimisation
 no mixing
 using additional bands           48
 real space projection scheme for non local part
 use partial core corrections
 calculate Harris-corrections to forces 
   (improved forces if not selfconsistent)
 use gradient corrections 
 WARNING: stress and forces are not correct
  (second derivative of E(xc) not defined)
 use of overlap-Matrix (Vanderbilt PP)
 Fermi weights with tetrahedron method with Bloechl corrections


--------------------------------------------------------------------------------------------------------


  energy-cutoff  :      500.00
  volume of cell :     1743.86
      direct lattice vectors                 reciprocal lattice vectors
     8.813512802  0.000000000  0.000000000     0.113462137 -0.065507406  0.000000000
     4.406756909  7.632725690  0.000000000     0.000000000  0.131014796  0.000000000
     0.000000000  0.000000000 25.922848430     0.000000000  0.000000000  0.038576008

  length of vectors
     8.813512802  8.813512802 25.922848430     0.131014796  0.131014796  0.038576008


 
 k-points in units of 2pi/SCALE and weight: Automatic mesh                          
   0.00000000  0.00000000  0.00000000       0.016
   0.01418277 -0.00818843  0.00000000       0.031
   0.01418277  0.00818842  0.00000000       0.031
   0.00000000  0.01637685  0.00000000       0.031
   0.02836553 -0.01637685  0.00000000       0.031
   0.02836553  0.01637685  0.00000000       0.031
   0.00000000  0.03275370  0.00000000       0.031
   0.04254830 -0.02456528  0.00000000       0.031
   0.04254830  0.02456527  0.00000000       0.031
   0.00000000  0.04913055  0.00000000       0.031
   0.05673107 -0.03275370  0.00000000       0.016
   0.05673107  0.03275370  0.00000000       0.016
   0.00000000  0.06550740  0.00000000       0.016
   0.02836553 -0.00000000  0.00000000       0.031
   0.01418277  0.02456527  0.00000000       0.031
  -0.01418277  0.02456528  0.00000000       0.031
   0.04254830 -0.00818843  0.00000000       0.031
   0.02836553  0.03275370  0.00000000       0.031
  -0.01418277  0.04094212  0.00000000       0.031
   0.02836553 -0.03275370  0.00000000       0.031
  -0.01418277 -0.04094212  0.00000000       0.031
  -0.04254830 -0.00818842  0.00000000       0.031
   0.05673107 -0.01637685  0.00000000       0.031
   0.04254830  0.04094212  0.00000000       0.031
  -0.01418277  0.05731897  0.00000000       0.031
   0.04254830 -0.04094213  0.00000000       0.031
  -0.01418277  0.07369582  0.00000000       0.031
   0.05673107 -0.08188425  0.00000000       0.031
   0.05673107 -0.00000000  0.00000000       0.031
   0.02836553  0.04913055  0.00000000       0.031
  -0.02836553  0.04913055  0.00000000       0.031
  -0.04254830  0.05731898  0.00000000       0.031
   0.04254830 -0.07369583  0.00000000       0.031
  -0.02836553  0.06550740  0.00000000       0.031
 
 k-points in reciprocal lattice and weights: Automatic mesh                          
   0.00000000  0.00000000  0.00000000       0.016
   0.12500000  0.00000000  0.00000000       0.031
   0.12500000  0.12500000  0.00000000       0.031
   0.00000000  0.12500000  0.00000000       0.031
   0.25000000  0.00000000  0.00000000       0.031
   0.25000000  0.25000000  0.00000000       0.031
   0.00000000  0.25000000  0.00000000       0.031
   0.37500000 -0.00000000  0.00000000       0.031
   0.37500000  0.37500000  0.00000000       0.031
   0.00000000  0.37500000  0.00000000       0.031
   0.50000000  0.00000000  0.00000000       0.016
   0.50000000  0.50000000  0.00000000       0.016
   0.00000000  0.50000000  0.00000000       0.016
   0.25000000  0.12500000  0.00000000       0.031
   0.12500000  0.25000000  0.00000000       0.031
  -0.12500000  0.12500000  0.00000000       0.031
   0.37500000  0.12500000  0.00000000       0.031
   0.25000000  0.37500000  0.00000000       0.031
  -0.12500000  0.25000000  0.00000000       0.031
   0.25000000 -0.12500000  0.00000000       0.031
  -0.12500000 -0.37500000  0.00000000       0.031
  -0.37500000 -0.25000000  0.00000000       0.031
   0.50000000  0.12500000  0.00000000       0.031
   0.37500000  0.50000000  0.00000000       0.031
  -0.12500000  0.37500000  0.00000000       0.031
   0.37500000 -0.12500000  0.00000000       0.031
  -0.12500000  0.50000000  0.00000000       0.031
   0.50000000 -0.37500000  0.00000000       0.031
   0.50000000  0.25000000  0.00000000       0.031
   0.25000000  0.50000000  0.00000000       0.031
  -0.25000000  0.25000000  0.00000000       0.031
  -0.37500000  0.25000000  0.00000000       0.031
   0.37500000 -0.37500000  0.00000000       0.031
  -0.25000000  0.37500000  0.00000000       0.031
 
 position of ions in fractional coordinates (direct lattice) 
   0.00000000  0.00000000  0.20369598
   0.33333334  0.00000000  0.20369598
   0.66666669  0.00000000  0.20369598
   0.00000000  0.33333334  0.20369598
   0.33333331  0.33333334  0.20369598
   0.66666669  0.33333334  0.20369598
   0.00000000  0.66666669  0.20369598
   0.33333334  0.66666669  0.20369598
   0.66666663  0.66666669  0.20369598
   0.11111112  0.11111111  0.29622956
   0.44444442  0.11111111  0.29622956
   0.77777779  0.11111111  0.29622956
   0.11111113  0.44444445  0.29622956
   0.44444448  0.44444445  0.29622956
   0.77777773  0.44444445  0.29622956
   0.11111109  0.77777779  0.29622956
   0.44444445  0.77777779  0.29622956
   0.77777785  0.77777779  0.29622956
   0.88909678  0.22180645  0.38818298
   0.22213877  0.22213875  0.38848895
   0.55572252  0.22213875  0.38848895
   0.88882313  0.55558846  0.38848499
   0.22213872  0.55572252  0.38848895
   0.55558846  0.55558846  0.38848499
   0.88909678  0.88909678  0.38818298
   0.22180648  0.88909678  0.38818298
   0.55558840  0.88882313  0.38848499
   0.00000000  0.00000000  0.48195266
   0.33344693  0.00086665  0.48187483
   0.66568646  0.00086665  0.48187483
   0.00086665  0.33344693  0.48187483
   0.66568646  0.33344693  0.48187483
   0.00086665  0.66568646  0.48187483
   0.33344693  0.66568646  0.48187483
   0.66666663  0.66666669  0.48211455
   0.33333331  0.33333334  0.47606321
   0.29958144  0.35162801  0.55435542
   0.43864477  0.20934802  0.58197880
   0.51747553  0.25558935  0.58935616
 
 position of ions in cartesian coordinates  (Angst):
   0.00000000  0.00000000  5.28037993
   2.93783769  0.00000000  5.28037993
   5.87567538  0.00000000  5.28037993
   1.46891901  2.54424197  5.28037993
   4.40675643  2.54424197  5.28037993
   7.34459439  2.54424197  5.28037993
   2.93783803  5.08848395  5.28037993
   5.87567571  5.08848395  5.28037993
   8.81351288  5.08848395  5.28037993
   1.46891893  0.84808064  7.67911405
   4.40675623  0.84808064  7.67911405
   7.34459418  0.84808064  7.67911405
   2.93783798  3.39232256  7.67911405
   5.87567574  3.39232256  7.67911405
   8.81351263  3.39232256  7.67911405
   4.40675667  5.93656453  7.67911405
   7.34459449  5.93656453  7.67911405
  10.28243270  5.93656453  7.67911405
   8.81351299  1.69298781 10.06280844
   2.93673436  1.69552416 10.07074015
   5.87677907  1.69552416 10.07074015
  10.28199735  4.24065435 10.07063759
   4.40675655  4.24167759 10.07074015
   7.34502935  4.24065435 10.07063759
  11.75409925  6.78623184 10.06280844
   5.87292766  6.78623184 10.06280844
   8.81351299  6.78414315 10.07063759
   0.00000000  0.00000000 12.49358568
   2.94265787  0.00661487 12.49156830
   5.87085519  0.00661487 12.49156830
   1.47705775  2.54510894 12.49156830
   7.33645566  2.54510894 12.49156830
   2.94115658  5.08100211 12.49156830
   5.87235717  5.08100211 12.49156830
   8.81351288  5.08848395 12.49778238
   4.40675643  2.54424197 12.34091456
   4.18990402  2.68388011 14.37047162
   4.78854719  1.59789604 15.08654822
   5.68709730  1.95084338 15.27779029
 


--------------------------------------------------------------------------------------------------------


 k-point   1 :   0.0000 0.0000 0.0000  plane waves:   44177
 k-point   2 :   0.1250 0.0000 0.0000  plane waves:   44218
 k-point   3 :   0.1250 0.1250 0.0000  plane waves:   44218
 k-point   4 :   0.0000 0.1250 0.0000  plane waves:   44218
 k-point   5 :   0.2500 0.0000 0.0000  plane waves:   44240
 k-point   6 :   0.2500 0.2500 0.0000  plane waves:   44240
 k-point   7 :   0.0000 0.2500 0.0000  plane waves:   44240
 k-point   8 :   0.3750-0.0000 0.0000  plane waves:   44282
 k-point   9 :   0.3750 0.3750 0.0000  plane waves:   44282
 k-point  10 :   0.0000 0.3750 0.0000  plane waves:   44282
 k-point  11 :   0.5000 0.0000 0.0000  plane waves:   44256
 k-point  12 :   0.5000 0.5000 0.0000  plane waves:   44256
 k-point  13 :   0.0000 0.5000 0.0000  plane waves:   44256
 k-point  14 :   0.2500 0.1250 0.0000  plane waves:   44224
 k-point  15 :   0.1250 0.2500 0.0000  plane waves:   44224
 k-point  16 :  -0.1250 0.1250 0.0000  plane waves:   44224
 k-point  17 :   0.3750 0.1250 0.0000  plane waves:   44278
 k-point  18 :   0.2500 0.3750 0.0000  plane waves:   44278
 k-point  19 :  -0.1250 0.2500 0.0000  plane waves:   44278
 k-point  20 :   0.2500-0.1250 0.0000  plane waves:   44278
 k-point  21 :  -0.1250-0.3750 0.0000  plane waves:   44278
 k-point  22 :  -0.3750-0.2500 0.0000  plane waves:   44278
 k-point  23 :   0.5000 0.1250 0.0000  plane waves:   44300
 k-point  24 :   0.3750 0.5000 0.0000  plane waves:   44300
 k-point  25 :  -0.1250 0.3750 0.0000  plane waves:   44300
 k-point  26 :   0.3750-0.1250 0.0000  plane waves:   44300
 k-point  27 :  -0.1250 0.5000 0.0000  plane waves:   44300
 k-point  28 :   0.5000-0.3750 0.0000  plane waves:   44300
 k-point  29 :   0.5000 0.2500 0.0000  plane waves:   44334
 k-point  30 :   0.2500 0.5000 0.0000  plane waves:   44334
 k-point  31 :  -0.2500 0.2500 0.0000  plane waves:   44334
 k-point  32 :  -0.3750 0.2500 0.0000  plane waves:   44304
 k-point  33 :   0.3750-0.3750 0.0000  plane waves:   44304
 k-point  34 :  -0.2500 0.3750 0.0000  plane waves:   44304

 maximum and minimum number of plane-waves per node :     44334    44177

 maximum number of plane-waves:     44334
 maximum index in each direction: 
   IXMAX=   16   IYMAX=   16   IZMAX=   47
   IXMIN=  -16   IYMIN=  -16   IZMIN=  -47


 serial   3D FFT for wavefunctions
 parallel 3D FFT for charge:
    minimum data exchange during FFTs selected (reduces bandwidth)


 total amount of memory used by VASP MPI-rank0   291078. kBytes
=======================================================================

   base      :      30000. kBytes
   nonlr-proj:      13774. kBytes
   fftplans  :       4948. kBytes
   grid      :      21313. kBytes
   one-center:        606. kBytes
   wavefun   :     220437. kBytes
 
     INWAV:  cpu time    0.0000: real time    0.0001
 initial charge density was supplied:
 number of electron     408.0000101 magnetization 
 keeping initial charge density in first step


--------------------------------------------------------------------------------------------------------


 Maximum index for non-local projection operator         2482
 Maximum index for augmentation-charges          838 (set IRDMAX)


--------------------------------------------------------------------------------------------------------


 First call to EWALD:  gamma=   0.147
 Maximum number of real-space cells 4x 4x 2
 Maximum number of reciprocal cells 2x 2x 5

    FEWALD:  cpu time    0.0014: real time    0.0014


--------------------------------------- Iteration      1(   1)  ---------------------------------------


    POTLOK:  cpu time    0.0497: real time    0.0501
    SETDIJ:  cpu time    0.0049: real time    0.0050
     EDDAV:  cpu time   27.1177: real time   27.1200
 BZINTS: Fermi energy:   10.838843;  408.000000 electrons
         Band energy: 0.129327E+04;  BLOECHL correction:   -0.019430
       DOS:  cpu time    0.0618: real time    0.0619
    --------------------------------------------
      LOOP:  cpu time   27.2341: real time   27.2370

 eigenvalue-minimisations  : 17136
 total energy-change (2. order) : 0.2772056E+04  (-0.1812823E+05)
 number of electron     408.0000101 magnetization 
 augmentation part      408.0000101 magnetization 

 Free energy of the ion-electron system (eV)
  ---------------------------------------------------
  alpha Z        PSCENC =       893.76499842
  Ewald energy   TEWEN  =    152991.40574906
  -Hartree energ DENC   =   -187839.58106288
  -exchange      EXHF   =         0.00000000
  -V(xc)+E(xc)   XCENC  =       546.55133503
  PAW double counting   =     36985.36514887   -36198.55292709
  entropy T*S    EENTRO =         0.00000000
  eigenvalues    EBANDS =      1293.26909875
  atomic energy  EATOM  =     34099.83360514
  Solvation  Ediel_sol  =         0.00000000
  ---------------------------------------------------
  free energy    TOTEN  =      2772.05594530 eV

  energy without entropy =     2772.05594530  energy(sigma->0) =     2772.05594530


--------------------------------------------------------------------------------------------------------




--------------------------------------- Iteration      1(   2)  ---------------------------------------


     EDDAV:  cpu time   29.8434: real time   29.8443
 BZINTS: Fermi energy:    0.917838;  408.000000 electrons
         Band energy:-0.144113E+04;  BLOECHL correction:   -0.067752
       DOS:  cpu time    0.0526: real time    0.0526
    --------------------------------------------
      LOOP:  cpu time   29.8960: real time   29.8969

 eigenvalue-minimisations  : 19348
 total energy-change (2. order) :-0.2734394E+04  (-0.2555658E+04)
 number of electron     408.0000101 magnetization 
 augmentation part      408.0000101 magnetization 

 Free energy of the ion-electron system (eV)
  ---------------------------------------------------
  alpha Z        PSCENC =       893.76499842
  Ewald energy   TEWEN  =    152991.40574906
  -Hartree energ DENC   =   -187839.58106288
  -exchange      EXHF   =         0.00000000
  -V(xc)+E(xc)   XCENC  =       546.55133503
  PAW double counting   =     36985.36514887   -36198.55292709
  entropy T*S    EENTRO =         0.00000000
  eigenvalues    EBANDS =     -1441.12520804
  atomic energy  EATOM  =     34099.83360514
  Solvation  Ediel_sol  =         0.00000000
  ---------------------------------------------------
  free energy    TOTEN  =        37.66163851 eV

  energy without entropy =       37.66163851  energy(sigma->0) =       37.66163851


--------------------------------------------------------------------------------------------------------




--------------------------------------- Iteration      1(   3)  ---------------------------------------


     EDDAV:  cpu time   30.9488: real time   30.9496
 BZINTS: Fermi energy:   -0.093523;  408.000000 electrons
         Band energy:-0.160079E+04;  BLOECHL correction:   -0.084455
       DOS:  cpu time    0.0590: real time    0.0590
    --------------------------------------------
      LOOP:  cpu time   31.0078: real time   31.0086

 eigenvalue-minimisations  : 20160
 total energy-change (2. order) :-0.1596621E+03  (-0.1546370E+03)
 number of electron     408.0000101 magnetization 
 augmentation part      408.0000101 magnetization 

 Free energy of the ion-electron system (eV)
  ---------------------------------------------------
  alpha Z        PSCENC =       893.76499842
  Ewald energy   TEWEN  =    152991.40574906
  -Hartree energ DENC   =   -187839.58106288
  -exchange      EXHF   =         0.00000000
  -V(xc)+E(xc)   XCENC  =       546.55133503
  PAW double counting   =     36985.36514887   -36198.55292709
  entropy T*S    EENTRO =         0.00000000
  eigenvalues    EBANDS =     -1600.78729002
  atomic energy  EATOM  =     34099.83360514
  Solvation  Ediel_sol  =         0.00000000
  ---------------------------------------------------
  free energy    TOTEN  =      -122.00044347 eV

  energy without entropy =     -122.00044347  energy(sigma->0) =     -122.00044347


--------------------------------------------------------------------------------------------------------




--------------------------------------- Iteration      1(   4)  ---------------------------------------


     EDDAV:  cpu time   29.5675: real time   29.5683
 BZINTS: Fermi energy:   -0.118254;  408.000000 electrons
         Band energy:-0.160460E+04;  BLOECHL correction:   -0.093111
       DOS:  cpu time    0.0606: real time    0.0606
    --------------------------------------------
      LOOP:  cpu time   29.6281: real time   29.6288

 eigenvalue-minimisations  : 19040
 total energy-change (2. order) :-0.3812275E+01  (-0.3777419E+01)
 number of electron     408.0000101 magnetization 
 augmentation part      408.0000101 magnetization 

 Free energy of the ion-electron system (eV)
  ---------------------------------------------------
  alpha Z        PSCENC =       893.76499842
  Ewald energy   TEWEN  =    152991.40574906
  -Hartree energ DENC   =   -187839.58106288
  -exchange      EXHF   =         0.00000000
  -V(xc)+E(xc)   XCENC  =       546.55133503
  PAW double counting   =     36985.36514887   -36198.55292709
  entropy T*S    EENTRO =         0.00000000
  eigenvalues    EBANDS =     -1604.59956518
  atomic energy  EATOM  =     34099.83360514
  Solvation  Ediel_sol  =         0.00000000
  ---------------------------------------------------
  free energy    TOTEN  =      -125.81271864 eV

  energy without entropy =     -125.81271864  energy(sigma->0) =     -125.81271864


--------------------------------------------------------------------------------------------------------




--------------------------------------- Iteration      1(   5)  ---------------------------------------


     EDDAV:  cpu time   32.2682: real time   32.2722
 BZINTS: Fermi energy:   -0.118821;  408.000000 electrons
         Band energy:-0.160472E+04;  BLOECHL correction:   -0.093154
       DOS:  cpu time    0.0593: real time    0.0593
    --------------------------------------------
      LOOP:  cpu time   32.3275: real time   32.3315

 eigenvalue-minimisations  : 21196
 total energy-change (2. order) :-0.1250730E+00  (-0.1249543E+00)
 number of electron     408.0000101 magnetization 
 augmentation part      408.0000101 magnetization 

 Free energy of the ion-electron system (eV)
  ---------------------------------------------------
  alpha Z        PSCENC =       893.76499842
  Ewald energy   TEWEN  =    152991.40574906
  -Hartree energ DENC   =   -187839.58106288
  -exchange      EXHF   =         0.00000000
  -V(xc)+E(xc)   XCENC  =       546.55133503
  PAW double counting   =     36985.36514887   -36198.55292709
  entropy T*S    EENTRO =         0.00000000
  eigenvalues    EBANDS =     -1604.72463814
  atomic energy  EATOM  =     34099.83360514
  Solvation  Ediel_sol  =         0.00000000
  ---------------------------------------------------
  free energy    TOTEN  =      -125.93779160 eV

  energy without entropy =     -125.93779160  energy(sigma->0) =     -125.93779160


--------------------------------------------------------------------------------------------------------




--------------------------------------- Iteration      1(   6)  ---------------------------------------


    EDDIAG:  cpu time    5.4111: real time    5.4115
  RMM-DIIS:  cpu time   16.2155: real time   16.2158
    ORTHCH:  cpu time    1.0156: real time    1.0157
 BZINTS: Fermi energy:   -0.118825;  408.000000 electrons
         Band energy:-0.160473E+04;  BLOECHL correction:   -0.093152
       DOS:  cpu time    0.0593: real time    0.0593
    --------------------------------------------
      LOOP:  cpu time   22.7015: real time   22.7023

 eigenvalue-minimisations  : 18024
 total energy-change (2. order) :-0.2632722E-02  (-0.2634470E-02)
 number of electron     408.0000101 magnetization 
 augmentation part      408.0000101 magnetization 

 Free energy of the ion-electron system (eV)
  ---------------------------------------------------
  alpha Z        PSCENC =       893.76499842
  Ewald energy   TEWEN  =    152991.40574906
  -Hartree energ DENC   =   -187839.58106288
  -exchange      EXHF   =         0.00000000
  -V(xc)+E(xc)   XCENC  =       546.55133503
  PAW double counting   =     36985.36514887   -36198.55292709
  entropy T*S    EENTRO =         0.00000000
  eigenvalues    EBANDS =     -1604.72727086
  atomic energy  EATOM  =     34099.83360514
  Solvation  Ediel_sol  =         0.00000000
  ---------------------------------------------------
  free energy    TOTEN  =      -125.94042432 eV

  energy without entropy =     -125.94042432  energy(sigma->0) =     -125.94042432


--------------------------------------------------------------------------------------------------------




--------------------------------------- Iteration      1(   7)  ---------------------------------------


    EDDIAG:  cpu time    5.4171: real time    5.4174
  RMM-DIIS:  cpu time   21.4162: real time   21.4166
    ORTHCH:  cpu time    1.0143: real time    1.0143
 BZINTS: Fermi energy:   -0.118826;  408.000000 electrons
         Band energy:-0.160473E+04;  BLOECHL correction:   -0.093151
       DOS:  cpu time    0.0580: real time    0.0580
    --------------------------------------------
      LOOP:  cpu time   27.9055: real time   27.9063

 eigenvalue-minimisations  : 24410
 total energy-change (2. order) :-0.9239526E-03  (-0.9218430E-03)
 number of electron     408.0000101 magnetization 
 augmentation part      408.0000101 magnetization 

 Free energy of the ion-electron system (eV)
  ---------------------------------------------------
  alpha Z        PSCENC =       893.76499842
  Ewald energy   TEWEN  =    152991.40574906
  -Hartree energ DENC   =   -187839.58106288
  -exchange      EXHF   =         0.00000000
  -V(xc)+E(xc)   XCENC  =       546.55133503
  PAW double counting   =     36985.36514887   -36198.55292709
  entropy T*S    EENTRO =         0.00000000
  eigenvalues    EBANDS =     -1604.72819482
  atomic energy  EATOM  =     34099.83360514
  Solvation  Ediel_sol  =         0.00000000
  ---------------------------------------------------
  free energy    TOTEN  =      -125.94134827 eV

  energy without entropy =     -125.94134827  energy(sigma->0) =     -125.94134827


--------------------------------------------------------------------------------------------------------




--------------------------------------- Iteration      1(   8)  ---------------------------------------


    EDDIAG:  cpu time    5.4151: real time    5.4154
  RMM-DIIS:  cpu time   17.5481: real time   17.5484
    ORTHCH:  cpu time    1.0148: real time    1.0148
 BZINTS: Fermi energy:   -0.118826;  408.000000 electrons
         Band energy:-0.160473E+04;  BLOECHL correction:   -0.093151
       DOS:  cpu time    0.0594: real time    0.0594
    --------------------------------------------
      LOOP:  cpu time   24.0373: real time   24.0379

 eigenvalue-minimisations  : 19321
 total energy-change (2. order) :-0.4961112E-04  (-0.4953965E-04)
 number of electron     408.0000101 magnetization 
 augmentation part      408.0000101 magnetization 

 Free energy of the ion-electron system (eV)
  ---------------------------------------------------
  alpha Z        PSCENC =       893.76499842
  Ewald energy   TEWEN  =    152991.40574906
  -Hartree energ DENC   =   -187839.58106288
  -exchange      EXHF   =         0.00000000
  -V(xc)+E(xc)   XCENC  =       546.55133503
  PAW double counting   =     36985.36514887   -36198.55292709
  entropy T*S    EENTRO =         0.00000000
  eigenvalues    EBANDS =     -1604.72824443
  atomic energy  EATOM  =     34099.83360514
  Solvation  Ediel_sol  =         0.00000000
  ---------------------------------------------------
  free energy    TOTEN  =      -125.94139788 eV

  energy without entropy =     -125.94139788  energy(sigma->0) =     -125.94139788


--------------------------------------------------------------------------------------------------------




--------------------------------------- Iteration      1(   9)  ---------------------------------------


    EDDIAG:  cpu time    5.4147: real time    5.4157
  RMM-DIIS:  cpu time   14.3793: real time   14.3795
    ORTHCH:  cpu time    1.0138: real time    1.0139
 BZINTS: Fermi energy:   -0.118826;  408.000000 electrons
         Band energy:-0.160473E+04;  BLOECHL correction:   -0.093151
       DOS:  cpu time    0.0593: real time    0.0593
    --------------------------------------------
      LOOP:  cpu time   20.8672: real time   20.8684

 eigenvalue-minimisations  : 14406
 total energy-change (2. order) :-0.9061536E-05  (-0.9171426E-05)
 number of electron     408.0000101 magnetization 
 augmentation part      408.0000101 magnetization 

 Free energy of the ion-electron system (eV)
  ---------------------------------------------------
  alpha Z        PSCENC =       893.76499842
  Ewald energy   TEWEN  =    152991.40574906
  -Hartree energ DENC   =   -187839.58106288
  -exchange      EXHF   =         0.00000000
  -V(xc)+E(xc)   XCENC  =       546.55133503
  PAW double counting   =     36985.36514887   -36198.55292709
  entropy T*S    EENTRO =         0.00000000
  eigenvalues    EBANDS =     -1604.72825349
  atomic energy  EATOM  =     34099.83360514
  Solvation  Ediel_sol  =         0.00000000
  ---------------------------------------------------
  free energy    TOTEN  =      -125.94140694 eV

  energy without entropy =     -125.94140694  energy(sigma->0) =     -125.94140694


--------------------------------------------------------------------------------------------------------




 average (electrostatic) potential at core
  the test charge radii are     1.2098  1.1199  0.7215  0.5201
  (the norm of the test charge is              1.0000)
       1 -73.1286       2 -73.0970       3 -73.0984       4 -73.0980       5 -73.1134
       6 -73.0967       7 -73.0974       8 -73.0984       9 -73.1099      10 -73.4698
      11 -73.4364      12 -73.4726      13 -73.4356      14 -73.4351      15 -73.4620
      16 -73.4652      17 -73.4637      18 -73.4669      19 -73.4190      20 -73.4298
      21 -73.4512      22 -73.4317      23 -73.4295      24 -73.4236      25 -73.4148
      26 -73.4227      27 -73.4346      28 -73.0541      29 -72.9942      30 -73.0184
      31 -73.0040      32 -73.0325      33 -73.0010      34 -73.0082      35 -73.0484
      36 -80.4978      37 -76.3893      38 -77.1282      39 -40.2749
 
 
 
 E-fermi :  -0.1188     XC(G=0):  -5.3675     alpha+bet : -5.0087

 Fermi energy:        -0.1188259880

 k-point     1 :       0.0000    0.0000    0.0000
  band No.  band energies     occupation 
      1     -22.9241      2.00000
      2     -16.2473      2.00000
      3      -8.8820      2.00000
      4      -8.0968      2.00000
      5      -7.6862      2.00000
      6      -6.7667      2.00000
      7      -6.7301      2.00000
      8      -6.7236      2.00000
      9      -6.7219      2.00000
     10      -6.7141      2.00000
     11      -6.7127      2.00000
     12      -6.7096      2.00000
     13      -6.6178      2.00000
     14      -6.2471      2.00000
     15      -6.2342      2.00000
     16      -6.2335      2.00000
     17      -6.2314      2.00000
     18      -6.2274      2.00000
     19      -6.2202      2.00000
     20      -6.0886      2.00000
     21      -5.8573      2.00000
     22      -5.8535      2.00000
     23      -5.8527      2.00000
     24      -5.8364      2.00000
     25      -5.8350      2.00000
     26      -5.8263      2.00000
     27      -5.7007      2.00000
     28      -5.6853      2.00000
     29      -5.6807      2.00000
     30      -5.6604      2.00000
     31      -5.6578      2.00000
     32      -5.6215      2.00000
     33      -5.5197      2.00000
     34      -5.5154      2.00000
     35      -5.5130      2.00000
     36      -5.5023      2.00000
     37      -5.4994      2.00000
     38      -5.4910      2.00000
     39      -5.4895      2.00000
     40      -5.4782      2.00000
     41      -5.4761      2.00000
     42      -5.3912      2.00000
     43      -5.3903      2.00000
     44      -5.3599      2.00000
     45      -5.2547      2.00000
     46      -5.0164      2.00000
     47      -5.0160      2.00000
     48      -4.9623      2.00000
     49      -4.9617      2.00000
     50      -4.9494      2.00000
     51      -4.9379      2.00000
     52      -4.9335      2.00000
     53      -4.9312      2.00000
     54      -4.9064      2.00000
     55      -4.8938      2.00000
     56      -4.8650      2.00000
     57      -4.8585      2.00000
     58      -4.7853      2.00000
     59      -4.7383      2.00000
     60      -4.4395      2.00000
     61      -4.4287      2.00000
     62      -4.4209      2.00000
     63      -4.4165      2.00000
     64      -4.3995      2.00000
     65      -4.3985      2.00000
     66      -4.3931      2.00000
     67      -4.3653      2.00000
     68      -4.3652      2.00000
     69      -4.2908      2.00000
     70      -4.2906      2.00000
     71      -4.2571      2.00000
     72      -4.2440      2.00000
     73      -4.2428      2.00000
     74      -4.1837      2.00000
     75      -4.1825      2.00000
     76      -4.1665      2.00000
     77      -4.1660      2.00000
     78      -4.1645      2.00000
     79      -4.1524      2.00000
     80      -4.1509      2.00000
     81      -4.1490      2.00000
     82      -4.1439      2.00000
     83      -4.1256      2.00000
     84      -4.1243      2.00000
     85      -4.0816      2.00000
     86      -4.0758      2.00000
     87      -4.0374      2.00000
     88      -4.0362      2.00000
     89      -4.0353      2.00000
     90      -4.0261      2.00000
     91      -4.0226      2.00000
     92      -4.0199      2.00000
     93      -4.0143      2.00000
     94      -3.9337      2.00000
     95      -3.9336      2.00000
     96      -3.7784      2.00000
     97      -3.7773      2.00000
     98      -3.7455      2.00000
     99      -3.7452      2.00000
    100      -3.7358      2.00000
[...]
  0.000   0.000   0.000   0.000   0.000   0.000   0.000   0.000   0.000   0.000   1.000   0.000   0.000   0.000   0.000   0.000
  0.000   0.000   0.000   0.000   0.000   0.000   0.000   0.000   0.000   0.000   0.000   0.000   0.000   0.000   0.000   0.000
  0.000   0.000   0.000   0.000   0.000   0.000   0.000   0.000   0.000   0.000   0.000   0.000   0.000   0.000   0.000   0.000
  0.000   0.000   0.000   0.000   0.000   0.000   0.000   0.000   0.000   0.000   0.000   0.000   0.000   0.000   0.000   0.000
  0.000   0.000   0.000   0.000   0.000   0.000   0.000   0.000   0.000   0.000   0.000   0.000   0.000   0.000   0.000   0.000
  0.000   0.000   0.000   0.000   0.000   0.000   0.000   0.000   0.000   0.000   0.000   0.000   0.000   0.000   0.000   0.000
  0.000   0.000   0.000   0.000   0.000   0.000   0.000   0.000   0.000   0.000   0.000   0.000   0.000   0.000   0.000   0.000
  0.000   0.000   0.000   0.000   0.000   0.000   0.000   0.000   0.000   0.000   0.000   0.000   0.000   0.000   0.000   0.000


------------------------ aborting loop because EDIFF is reached ----------------------------------------





 total charge

# of ion       s       p       d       tot
------------------------------------------
    1        0.543   0.240   8.769   9.552
    2        0.545   0.240   8.766   9.551
    3        0.545   0.240   8.765   9.550
    4        0.544   0.240   8.765   9.550
    5        0.543   0.241   8.762   9.546
    6        0.545   0.241   8.765   9.550
    7        0.545   0.241   8.765   9.550
    8        0.545   0.241   8.764   9.550
    9        0.542   0.240   8.767   9.549
   10        0.518   0.308   8.770   9.596
   11        0.519   0.305   8.777   9.601
   12        0.518   0.309   8.770   9.596
   13        0.519   0.305   8.777   9.601
   14        0.518   0.305   8.777   9.600
   15        0.515   0.307   8.775   9.598
   16        0.519   0.308   8.770   9.597
   17        0.515   0.307   8.775   9.597
   18        0.515   0.307   8.775   9.598
   19        0.517   0.303   8.774   9.594
   20        0.528   0.313   8.763   9.604
   21        0.530   0.314   8.760   9.604
   22        0.513   0.304   8.771   9.588
   23        0.529   0.312   8.764   9.606
   24        0.514   0.303   8.774   9.591
   25        0.516   0.303   8.775   9.594
   26        0.516   0.304   8.773   9.593
   27        0.512   0.305   8.772   9.588
   28        0.544   0.233   8.768   9.545
   29        0.541   0.227   8.775   9.543
   30        0.541   0.231   8.771   9.542
   31        0.538   0.229   8.774   9.540
   32        0.550   0.233   8.769   9.552
   33        0.543   0.229   8.773   9.544
   34        0.541   0.230   8.771   9.543
   35        0.542   0.234   8.767   9.543
   36        0.411   0.403   8.437   9.250
   37        1.600   3.239   0.000   4.838
   38        1.589   3.396   0.000   4.985
   39        0.617   0.111   0.000   0.729
--------------------------------------------------
tot         22.785  16.683 315.384 354.851
 
    CHARGE:  cpu time    1.3011: real time    1.3012
    FORLOC:  cpu time    0.0128: real time    0.0128
    FORNL :  cpu time    5.4577: real time    5.4581
    STRESS:  cpu time   16.3858: real time   16.3864
    FORCOR:  cpu time    0.0621: real time    0.0622
    FORHAR:  cpu time    0.0203: real time    0.0204
    OFIELD:  cpu time    0.0003: real time    0.0003

  FORCE on cell =-STRESS in cart. coord.  units (eV):
  Direction    XX          YY          ZZ          XY          YZ          ZX
  --------------------------------------------------------------------------------------
  Alpha Z   893.76500   893.76500   893.76500
  Ewald  175785.12141175846.74447************  -101.21845  -120.19700    88.67955
  Hartree184344.39557184400.05938************   -63.59749   -66.43502    42.11713
  E(xc)   -1842.47365 -1842.52531 -1848.79563    -0.09030    -0.20579     0.15776
  Local  ************************372314.71772   156.02435   172.74051  -118.35697
  n-local  -116.15939  -112.88703   -88.53125    -3.66449    -2.06911     0.95009
  augment  2455.94384  2454.92477  2465.87871     1.58071     1.45503    -0.80588
  Kinetic  5755.00928  5752.88835  5801.66468    10.77381    14.64930   -12.57667
  Fock        0.00000     0.00000     0.00000     0.00000     0.00000     0.00000
  -------------------------------------------------------------------------------------
  Total     -20.96591   -20.78665    -0.23748    -0.19186    -0.06208     0.16501
  in kB     -19.26251   -19.09781    -0.21819    -0.17627    -0.05704     0.15160
  external pressure =      -12.86 kB  Pullay stress =        0.00 kB


 VOLUME and BASIS-vectors are now :
 -----------------------------------------------------------------------------
  energy-cutoff  :      500.00
  volume of cell :     1743.86
      direct lattice vectors                 reciprocal lattice vectors
     8.813512802  0.000000000  0.000000000     0.113462137 -0.065507406  0.000000000
     4.406756909  7.632725690  0.000000000     0.000000000  0.131014796  0.000000000
     0.000000000  0.000000000 25.922848430     0.000000000  0.000000000  0.038576008

  length of vectors
     8.813512802  8.813512802 25.922848430     0.131014796  0.131014796  0.038576008


 FORCES acting on ions
    electron-ion (+dipol)            ewald-force                    non-local-force                 convergence-correction
 -----------------------------------------------------------------------------------------------
   -.678E-01 0.904E-02 0.280E+04   0.162E-01 -.174E-01 -.280E+04   0.288E-01 0.133E-02 -.784E+00   0.217E-01 0.792E-02 -.734E-01
   -.464E-01 0.198E+00 0.280E+04   -.184E-01 -.239E+00 -.280E+04   0.193E-01 0.268E-01 -.341E+00   0.385E-01 0.199E-01 -.997E-01
   0.883E-01 0.185E+00 0.280E+04   0.219E-02 -.239E+00 -.280E+04   -.338E-01 0.432E-01 -.361E+00   -.468E-01 0.215E-01 -.118E+00
   0.131E+00 -.168E+00 0.280E+04   -.193E+00 0.142E+00 -.280E+04   0.318E-01 0.228E-03 -.339E+00   0.350E-01 0.216E-01 -.111E+00
   0.858E-03 -.302E-01 0.280E+04   -.775E-02 0.474E-01 -.280E+04   0.930E-02 -.848E-02 -.336E+00   -.660E-02 -.499E-02 -.754E-01
   -.114E+00 -.231E+00 0.280E+04   0.200E+00 0.156E+00 -.280E+04   -.565E-01 0.289E-01 -.290E+00   -.346E-01 0.368E-01 -.113E+00
   0.168E+00 0.696E-02 0.280E+04   -.182E+00 0.828E-01 -.280E+04   0.296E-01 -.440E-01 -.330E+00   -.122E-02 -.508E-01 -.119E+00
   -.207E+00 -.320E-02 0.280E+04   0.190E+00 0.965E-01 -.280E+04   -.922E-02 -.497E-01 -.282E+00   0.134E-01 -.444E-01 -.114E+00
   0.364E-01 0.371E-01 0.280E+04   -.794E-02 -.296E-01 -.280E+04   -.147E-01 -.533E-02 -.535E+00   -.163E-01 -.634E-02 -.114E+00
   0.617E+00 0.289E+00 0.100E+04   -.368E+00 -.155E+00 -.100E+04   -.190E+00 -.108E+00 -.535E+00   -.158E-01 -.671E-02 -.115E-01
   0.173E+00 0.192E+01 0.100E+04   -.109E+00 -.196E+01 -.100E+04   -.454E-01 0.749E-01 -.317E+00   -.209E-01 -.546E-01 -.416E-01
   -.710E+00 0.274E+00 0.100E+04   0.477E+00 -.115E+00 -.100E+04   0.176E+00 -.129E+00 -.586E+00   0.635E-02 0.882E-03 -.260E-01
   0.177E+01 -.116E+01 0.100E+04   -.180E+01 0.120E+01 -.100E+04   0.662E-01 -.542E-01 -.290E+00   -.617E-01 0.196E-01 -.480E-01
   -.176E+01 -.132E+01 0.100E+04   0.178E+01 0.132E+01 -.100E+04   -.448E-01 -.203E-01 -.220E+00   0.529E-01 0.285E-01 -.636E-01
   -.775E-01 -.134E+01 0.100E+04   0.184E-01 0.129E+01 -.999E+03   0.257E-01 0.169E-01 -.389E+00   0.334E-01 0.314E-01 -.170E-01
   -.815E-01 -.397E+00 0.100E+04   0.878E-01 0.151E+00 -.100E+04   -.119E-01 0.187E+00 -.524E+00   0.103E-01 0.516E-02 -.199E-01
   -.973E+00 0.810E+00 0.100E+04   0.883E+00 -.832E+00 -.999E+03   0.490E-01 0.150E-01 -.404E+00   0.438E-01 0.849E-02 -.120E-01
   0.101E+01 0.924E+00 0.100E+04   -.971E+00 -.905E+00 -.999E+03   -.320E-02 0.352E-02 -.440E+00   -.343E-01 -.254E-01 -.159E-01
   -.729E+00 -.108E+01 -.823E+03   0.672E+00 0.964E+00 0.823E+03   0.244E-01 0.820E-01 0.671E+00   0.436E-01 0.437E-01 0.412E-01
   0.176E+02 0.817E+01 -.800E+03   -.171E+02 -.789E+01 0.800E+03   -.530E+00 -.301E+00 -.280E+00   0.107E+00 0.499E-01 0.285E+00
   -.169E+02 0.748E+01 -.798E+03   0.164E+02 -.711E+01 0.798E+03   0.582E+00 -.395E+00 -.414E+00   -.137E+00 0.525E-01 0.297E+00
   0.881E+01 -.481E+01 -.823E+03   -.892E+01 0.485E+01 0.822E+03   0.121E+00 -.618E-01 0.541E+00   0.243E-02 -.513E-02 0.975E-01
   -.214E+00 -.198E+02 -.803E+03   0.266E+00 0.193E+02 0.803E+03   -.198E-01 0.647E+00 -.326E+00   -.229E-01 -.129E+00 0.291E+00
   -.859E+01 -.548E+01 -.823E+03   0.868E+01 0.554E+01 0.823E+03   -.129E+00 -.723E-01 0.537E+00   0.281E-01 0.159E-01 0.918E-01
   -.104E+01 0.188E+01 -.823E+03   0.122E+01 -.176E+01 0.822E+03   -.130E+00 -.737E-01 0.705E+00   -.617E-01 -.442E-01 0.588E-01
   0.329E+00 0.136E+01 -.824E+03   -.459E+00 -.137E+01 0.823E+03   0.828E-01 -.221E-01 0.687E+00   0.515E-01 0.106E-01 0.338E-01
   0.792E+00 0.123E+02 -.820E+03   -.766E+00 -.125E+02 0.819E+03   -.155E-01 0.150E+00 0.572E+00   -.142E-01 0.637E-02 0.896E-01
   -.522E+01 0.446E+01 -.266E+04   0.521E+01 -.447E+01 0.266E+04   -.537E-02 0.892E-02 0.245E+00   0.136E-01 0.266E-02 0.124E+00
   0.448E+02 0.571E+02 -.262E+04   -.450E+02 -.575E+02 0.261E+04   -.298E-01 0.642E-02 0.781E+00   0.138E+00 0.166E+00 0.101E+00
   -.405E+02 0.640E+02 -.260E+04   0.407E+02 -.643E+02 0.260E+04   -.374E-02 -.150E-01 0.875E+00   -.143E+00 0.156E+00 0.117E+00
   0.619E+02 -.300E+01 -.263E+04   -.623E+02 0.301E+01 0.263E+04   0.478E-01 -.446E-01 0.848E+00   0.204E+00 0.476E-01 0.114E+00
   -.642E+02 -.107E+02 -.262E+04   0.643E+02 0.107E+02 0.262E+04   0.220E+00 0.440E-02 0.196E+00   -.194E+00 0.358E-01 0.127E+00
   0.237E+02 -.479E+02 -.263E+04   -.238E+02 0.482E+02 0.263E+04   -.246E-01 0.111E+00 0.670E+00   0.587E-01 -.205E+00 0.124E+00
   -.243E+02 -.480E+02 -.264E+04   0.244E+02 0.482E+02 0.264E+04   0.424E-03 0.916E-01 0.611E+00   -.769E-01 -.185E+00 0.128E+00
   0.148E+01 0.787E+01 -.266E+04   -.145E+01 -.785E+01 0.266E+04   -.381E-01 -.655E-02 0.337E+00   0.679E-02 -.129E-01 0.701E-01
   -.543E+01 -.160E+02 -.211E+04   0.530E+01 0.161E+02 0.211E+04   0.122E+00 -.102E+00 -.986E+00   -.776E-02 -.506E-02 0.126E+00
   0.106E+03 -.170E+03 -.169E+04   -.126E+03 0.199E+03 0.169E+04   0.196E+02 -.292E+02 -.141E+00   0.644E-01 -.340E-01 -.300E+00
   -.437E+02 0.175E+03 -.175E+04   0.205E+02 -.214E+03 0.176E+04   0.233E+02 0.393E+02 -.991E+01   -.414E-01 0.925E-01 -.138E+00
   -.903E+02 -.206E+02 -.295E+03   0.977E+02 0.234E+02 0.297E+03   -.746E+01 -.284E+01 -.166E+01   -.485E-02 0.723E-02 -.113E-01
 -----------------------------------------------------------------------------------------------
   -.359E+02 -.727E+01 0.120E+02   -.284E-13 0.639E-13 0.415E-11   0.358E+02 0.723E+01 -.127E+02   0.316E-01 0.746E-01 0.676E+00
 
 
 POSITION                                       TOTAL-FORCE (eV/Angst)
 -----------------------------------------------------------------------------------
      0.00000      0.00000      5.28038         0.000368      0.000139     -0.058208
      2.93784      0.00000      5.28038        -0.005365      0.005476     -0.041587
      5.87568      0.00000      5.28038         0.011561      0.010681     -0.036825
      1.46892      2.54424      5.28038         0.006385     -0.004781     -0.034104
      4.40676      2.54424      5.28038        -0.002656      0.003021     -0.048559
      7.34459      2.54424      5.28038        -0.003429     -0.010488     -0.034083
      2.93784      5.08848      5.28038         0.015430     -0.005783     -0.033992
      5.87568      5.08848      5.28038        -0.011172     -0.001653     -0.030574
      8.81351      5.08848      5.28038        -0.001024     -0.004870     -0.046159
      1.46892      0.84808      7.67911         0.045889      0.019127      0.093602
      4.40676      0.84808      7.67911        -0.000489     -0.018578      0.088470
      7.34459      0.84808      7.67911        -0.049694      0.030550      0.098666
      2.93784      3.39232      7.67911        -0.016444      0.009556      0.097980
      5.87568      3.39232      7.67911         0.022921      0.007599      0.098555
      8.81351      3.39232      7.67911         0.001537      0.003256      0.107214
      4.40676      5.93656      7.67911         0.006234     -0.054222      0.095137
      7.34459      5.93656      7.67911         0.004781      0.001094      0.106988
     10.28243      5.93656      7.67911        -0.001589     -0.004321      0.105719
      8.81351      1.69299     10.06281         0.012825      0.013506     -0.003093
      2.93673      1.69552     10.07074         0.057631      0.023244     -0.058088
      5.87678      1.69552     10.07074        -0.070671      0.034892     -0.044897
     10.28200      4.24065     10.07064         0.012213     -0.018709      0.009967
      4.40676      4.24168     10.07074         0.010314     -0.049253     -0.086926
      7.34503      4.24065     10.07064        -0.009636     -0.001012     -0.012078
     11.75410      6.78623     10.06281        -0.009420     -0.003490      0.000270
      5.87293      6.78623     10.06281         0.006093     -0.013910      0.011036
      8.81351      6.78414     10.07064        -0.002058      0.018521      0.015902
      0.00000      0.00000     12.49359        -0.001216      0.003529     -0.078306
      2.94266      0.00661     12.49157        -0.073299     -0.151919     -0.168451
      5.87086      0.00661     12.49157         0.077764     -0.120857     -0.133584
      1.47706      2.54511     12.49157        -0.147549      0.012588     -0.139812
      7.33646      2.54511     12.49157         0.152032      0.001516     -0.124225
      2.94116      5.08100     12.49157        -0.075195      0.139517     -0.175226
      5.87236      5.08100     12.49157         0.069603      0.104794     -0.117526
      8.81351      5.08848     12.49778        -0.002392     -0.003981     -0.048938
      4.40676      2.54424     12.34091        -0.017960      0.017646      0.661829
      4.18990      2.68388     14.37047        -0.006394      0.006730     -0.040694
      4.78855      1.59790     15.08655        -0.001248      0.002869     -0.000041
      5.68710      1.95084     15.27779        -0.004683     -0.002026      0.004642
 -----------------------------------------------------------------------------------
    total drift:                               -0.059967      0.028582     -0.036321


--------------------------------------------------------------------------------------------------------



  FREE ENERGIE OF THE ION-ELECTRON SYSTEM (eV)
  ---------------------------------------------------
  free  energy   TOTEN  =      -125.94140694 eV

  energy  without entropy=     -125.94140694  energy(sigma->0) =     -125.94140694
 


--------------------------------------------------------------------------------------------------------


    POTLOK:  cpu time    0.0614: real time    0.0614


--------------------------------------------------------------------------------------------------------


 stress matrix after NEB project (eV)
    -20.96591     -0.19186      0.16501
     -0.19186    -20.78665     -0.06208
      0.16501     -0.06208     -0.23748
  FORCES: max atom, RMS     0.041740    0.006793
  FORCE total and by dimension    0.042422    0.040694
  Stress total and by dimension   29.527043   20.965909
     LOOP+:  cpu time  269.0239: real time  269.0420
 -----------------------------------------------------------------------------
|                                                                             |
|           W    W    AA    RRRRR   N    N  II  N    N   GGGG   !!!           |
|           W    W   A  A   R    R  NN   N  II  NN   N  G    G  !!!           |
|           W    W  A    A  R    R  N N  N  II  N N  N  G       !!!           |
|           W WW W  AAAAAA  RRRRR   N  N N  II  N  N N  G  GGG   !            |
|           WW  WW  A    A  R   R   N   NN  II  N   NN  G    G                |
|           W    W  A    A  R    R  N    N  II  N    N   GGGG   !!!           |
|                                                                             |
|     Tetrahedron method does not include variations of the Fermi             |
|     occupations, so forces and stress will be inaccurate. We suggest        |
|     using a different smearing scheme ISMEAR = 1 or 2 for metals in         |
|     relaxations.                                                            |
|                                                                             |
 -----------------------------------------------------------------------------

    4ORBIT:  cpu time    0.0000: real time    0.0000



 total charge

# of ion       s       p       d       tot
------------------------------------------
    1        0.543   0.240   8.769   9.552
    2        0.545   0.240   8.766   9.551
    3        0.545   0.240   8.765   9.550
    4        0.544   0.240   8.765   9.550
    5        0.543   0.241   8.762   9.546
    6        0.545   0.241   8.765   9.550
    7        0.545   0.241   8.765   9.550
    8        0.545   0.241   8.764   9.550
    9        0.542   0.240   8.767   9.549
   10        0.518   0.308   8.770   9.596
   11        0.519   0.305   8.777   9.601
   12        0.518   0.309   8.770   9.596
   13        0.519   0.305   8.777   9.601
   14        0.518   0.305   8.777   9.600
   15        0.515   0.307   8.775   9.598
   16        0.519   0.308   8.770   9.597
   17        0.515   0.307   8.775   9.597
   18        0.515   0.307   8.775   9.598
   19        0.517   0.303   8.774   9.594
   20        0.528   0.313   8.763   9.604
   21        0.530   0.314   8.760   9.604
   22        0.513   0.304   8.771   9.588
   23        0.529   0.312   8.764   9.606
   24        0.514   0.303   8.774   9.591
   25        0.516   0.303   8.775   9.594
   26        0.516   0.304   8.773   9.593
   27        0.512   0.305   8.772   9.588
   28        0.544   0.233   8.768   9.545
   29        0.541   0.227   8.775   9.543
   30        0.541   0.231   8.771   9.542
   31        0.538   0.229   8.774   9.540
   32        0.550   0.233   8.769   9.552
   33        0.543   0.229   8.773   9.544
   34        0.541   0.230   8.771   9.543
   35        0.542   0.234   8.767   9.543
   36        0.411   0.403   8.437   9.250
   37        1.600   3.239   0.000   4.838
   38        1.589   3.396   0.000   4.985
   39        0.617   0.111   0.000   0.729
--------------------------------------------------
tot         22.785  16.683 315.384 354.851
 
 BZINTS: Fermi energy:   -0.118826;  408.000000 electrons
         Band energy:-0.160473E+04;  BLOECHL correction:   -0.093151

 total amount of memory used by VASP MPI-rank0   291078. kBytes
=======================================================================

   base      :      30000. kBytes
   nonlr-proj:      13774. kBytes
   fftplans  :       4948. kBytes
   grid      :      21313. kBytes
   one-center:        606. kBytes
   wavefun   :     220437. kBytes
 
  
  
 General timing and accounting informations for this job:
 ========================================================
  
                  Total CPU time used (sec):      293.142
                            User time (sec):      283.289
                          System time (sec):        9.853
                         Elapsed time (sec):      293.787
  
                   Maximum memory used (kb):      598964.
                   Average memory used (kb):          N/A
  
                          Minor page faults:       108808
                          Major page faults:            0
                 Voluntary context switches:         6970
