 vasp.6.2.0 18Jan21 (build Jun 12 2021 23:27:24) complex                        
  
 executed on             LinuxIFC date 2022.05.27  05:48:33
 running on   16 total cores
 distrk:  each k-point on   16 cores,    1 groups
 distr:  one band on NCORE=   1 cores,   16 groups


--------------------------------------------------------------------------------------------------------


 INCAR:
   ISMEAR = -5
   SIGMA = 0.1
   ISPIN = 1
   EDIFF = 1.d-5
   EDIFFG = -0.01
   NSW = 0
   NELM = 150
   ENCUT = 500
   ISIF = 2
   IBRION = 2
   LREAL = Auto
   ALGO = Fast
   ICHARG = 11
   LORBIT = 10
   LCHARG = .F.
   LWAVE = .F.

 POTCAR:    PAW_PBE Ag 02Apr2005                  
 POTCAR:    PAW_PBE Ta 17Jan2003                  
 POTCAR:    PAW_PBE O 08Apr2002                   
 POTCAR:    PAW_PBE H 15Jun2001                   
 -----------------------------------------------------------------------------
|                                                                             |
|           W    W    AA    RRRRR   N    N  II  N    N   GGGG   !!!           |
|           W    W   A  A   R    R  NN   N  II  NN   N  G    G  !!!           |
|           W    W  A    A  R    R  N N  N  II  N N  N  G       !!!           |
|           W WW W  AAAAAA  RRRRR   N  N N  II  N  N N  G  GGG   !            |
|           WW  WW  A    A  R   R   N   NN  II  N   NN  G    G                |
|           W    W  A    A  R    R  N    N  II  N    N   GGGG   !!!           |
|                                                                             |
|     For optimal performance we recommend to set                             |
|       NCORE = 2 up to number-of-cores-per-socket                            |
|     NCORE specifies how many cores store one orbital (NPAR=cpu/NCORE).      |
|     This setting can greatly improve the performance of VASP for DFT.       |
|     The default, NCORE=1 might be grossly inefficient on modern             |
|     multi-core architectures or massively parallel machines. Do your        |
|     own testing! More info at https://www.vasp.at/wiki/index.php/NCORE      |
|     Unfortunately you need to use the default for GW and RPA                |
|     calculations (for HF NCORE is supported but not extensively tested      |
|     yet).                                                                   |
|                                                                             |
 -----------------------------------------------------------------------------

 POTCAR:    PAW_PBE Ag 02Apr2005                  
   VRHFIN =Ag : s1 d10                                                                              
   LEXCH  = PE                                                                                      
   EATOM  =  1037.2675 eV,   76.2370 Ry                                                             
                                                                                                    
   TITEL  = PAW_PBE Ag 02Apr2005                                                                    
   LULTRA =        F    use ultrasoft PP ?                                                          
   IUNSCR =        1    unscreen: 0-lin 1-nonlin 2-no                                               
   RPACOR =    2.000    partial core radius                                                         
   POMASS =  107.868; ZVAL   =   11.000    mass and valenz                                          
   RCORE  =    2.500    outmost cutoff radius                                                       
   RWIGS  =    2.840; RWIGS  =    1.503    wigner-seitz radius (au A)                               
   ENMAX  =  249.844; ENMIN  =  187.383 eV                                                          
   ICORE  =        3    local potential                                                             
   LCOR   =        T    correct aug charges                                                         
   LPAW   =        T    paw PP                                                                      
   EAUG   =  412.496                                                                                
   DEXC   =    0.000                                                                                
   RMAX   =    2.560    core radius for proj-oper                                                   
   RAUG   =    1.300    factor for augmentation sphere                                              
   RDEP   =    2.576    radius for radial grids                                                     
   RDEPT  =    2.072    core radius for aug-charge                                                  
                                                                                                    
   Atomic configuration                                                                             
   12 entries                                                                                       
     n  l   j            E        occ.                                                              
     1  0  0.50    -25324.9161   2.0000                                                             
     2  0  0.50     -3728.5341   2.0000                                                             
     2  1  1.50     -3344.0404   6.0000                                                             
     3  0  0.50      -683.5581   2.0000                                                             
     3  1  1.50      -557.3225   6.0000                                                             
     3  2  2.50      -358.3853  10.0000                                                             
     4  0  0.50       -95.0341   2.0000                                                             
     4  1  1.50       -58.5511   6.0000                                                             
     4  2  2.50        -7.4440  10.0000                                                             
     5  0  0.50        -4.4045   1.0000                                                             
     5  1  0.50        -1.3606   0.0000                                                             
     4  3  2.50        -1.3606   0.0000                                                             
   Description                                                                                      
     l       E           TYP  RCUT    TYP  RCUT                                                     
     2     -7.4439781     23  2.400                                                                 
     2     -8.8045607     23  2.400                                                                 
     0     -4.4044681     23  2.400                                                                 
     0      1.9520038     23  2.400                                                                 
     1     -1.3605826     23  2.500                                                                 
     1     27.2116520     23  2.500                                                                 
     3     -4.0817478     23  2.400                                                                 
  local pseudopotential read in
  partial core-charges read in
  partial kinetic energy density read in
  atomic valenz-charges read in
  non local Contribution for L=           2  read in
    real space projection operators read in
  non local Contribution for L=           2  read in
    real space projection operators read in
  non local Contribution for L=           0  read in
    real space projection operators read in
  non local Contribution for L=           0  read in
    real space projection operators read in
  non local Contribution for L=           1  read in
    real space projection operators read in
  non local Contribution for L=           1  read in
    real space projection operators read in
    PAW grid and wavefunctions read in
 
   number of l-projection  operators is LMAX  =           6
   number of lm-projection operators is LMMAX =          18
 
 POTCAR:    PAW_PBE Ta 17Jan2003                  
   VRHFIN =Ta:  6s5d                                                                                
   LEXCH  = PE                                                                                      
   EATOM  =   130.6506 eV,    9.6025 Ry                                                             
                                                                                                    
   TITEL  = PAW_PBE Ta 17Jan2003                                                                    
   LULTRA =        F    use ultrasoft PP ?                                                          
   IUNSCR =        1    unscreen: 0-lin 1-nonlin 2-no                                               
   RPACOR =    2.330    partial core radius                                                         
   POMASS =  180.948; ZVAL   =    5.000    mass and valenz                                          
   RCORE  =    2.900    outmost cutoff radius                                                       
   RWIGS  =    2.840; RWIGS  =    1.503    wigner-seitz radius (au A)                               
   ENMAX  =  223.667; ENMIN  =  167.750 eV                                                          
   RCLOC  =    2.205    cutoff for local pot                                                        
   LCOR   =        T    correct aug charges                                                         
   LPAW   =        T    paw PP                                                                      
   EAUG   =  332.075                                                                                
   DEXC   =    0.000                                                                                
   RMAX   =    2.970    core radius for proj-oper                                                   
   RAUG   =    1.300    factor for augmentation sphere                                              
   RDEP   =    3.060    radius for radial grids                                                     
   RDEPT  =    2.354    core radius for aug-charge                                                  
                                                                                                    
   Atomic configuration                                                                             
   16 entries                                                                                       
     n  l   j            E        occ.                                                              
     1  0  0.50    -67341.2807   2.0000                                                             
     2  0  0.50    -11566.9376   2.0000                                                             
     2  1  1.50    -10134.1182   6.0000                                                             
     3  0  0.50     -2648.5620   2.0000                                                             
     3  1  1.50     -2222.6012   6.0000                                                             
     3  2  2.50     -1726.3120  10.0000                                                             
     4  0  0.50      -538.6961   2.0000                                                             
     4  1  1.50      -399.0129   6.0000                                                             
     4  2  2.50      -220.3959  10.0000                                                             
     4  3  3.50       -23.0374  14.0000                                                             
     5  0  0.50       -71.2901   2.0000                                                             
     5  1  1.50       -37.8225   6.0000                                                             
     5  2  2.50        -2.6455   4.0000                                                             
     6  0  0.50        -4.9623   1.0000                                                             
     6  1  1.50        -1.3606   0.0000                                                             
     5  3  2.50        -1.3606   0.0000                                                             
   Description                                                                                      
     l       E           TYP  RCUT    TYP  RCUT                                                     
     2     -2.6455043     23  2.500                                                                 
     2     -0.6258895     23  2.500                                                                 
     0     -4.9622780     23  2.500                                                                 
     0      4.7531321     23  2.500                                                                 
     1     -1.3605826     23  2.900                                                                 
     1     27.2116520     23  2.900                                                                 
  local pseudopotential read in
  partial core-charges read in
  partial kinetic energy density read in
  atomic valenz-charges read in
  non local Contribution for L=           2  read in
    real space projection operators read in
  non local Contribution for L=           2  read in
    real space projection operators read in
  non local Contribution for L=           0  read in
    real space projection operators read in
  non local Contribution for L=           0  read in
    real space projection operators read in
  non local Contribution for L=           1  read in
    real space projection operators read in
  non local Contribution for L=           1  read in
    real space projection operators read in
    PAW grid and wavefunctions read in
 
   number of l-projection  operators is LMAX  =           6
   number of lm-projection operators is LMMAX =          18
 
 POTCAR:    PAW_PBE O 08Apr2002                   
   VRHFIN =O: s2p4                                                                                  
   LEXCH  = PE                                                                                      
   EATOM  =   432.3788 eV,   31.7789 Ry                                                             
                                                                                                    
   TITEL  = PAW_PBE O 08Apr2002                                                                     
   LULTRA =        F    use ultrasoft PP ?                                                          
   IUNSCR =        1    unscreen: 0-lin 1-nonlin 2-no                                               
   RPACOR =    1.200    partial core radius                                                         
   POMASS =   16.000; ZVAL   =    6.000    mass and valenz                                          
   RCORE  =    1.520    outmost cutoff radius                                                       
   RWIGS  =    1.550; RWIGS  =    0.820    wigner-seitz radius (au A)                               
   ENMAX  =  400.000; ENMIN  =  300.000 eV                                                          
   ICORE  =        2    local potential                                                             
   LCOR   =        T    correct aug charges                                                         
   LPAW   =        T    paw PP                                                                      
   EAUG   =  605.392                                                                                
   DEXC   =    0.000                                                                                
   RMAX   =    1.553    core radius for proj-oper                                                   
   RAUG   =    1.300    factor for augmentation sphere                                              
   RDEP   =    1.550    radius for radial grids                                                     
   RDEPT  =    1.329    core radius for aug-charge                                                  
                                                                                                    
   Atomic configuration                                                                             
    4 entries                                                                                       
     n  l   j            E        occ.                                                              
     1  0  0.50      -514.6923   2.0000                                                             
     2  0  0.50       -23.9615   2.0000                                                             
     2  1  0.50        -9.0305   4.0000                                                             
     3  2  1.50        -9.5241   0.0000                                                             
   Description                                                                                      
     l       E           TYP  RCUT    TYP  RCUT                                                     
     0    -23.9615318     23  1.200                                                                 
     0     -9.5240782     23  1.200                                                                 
     1     -9.0304911     23  1.520                                                                 
     1      8.1634956     23  1.520                                                                 
     2     -9.5240782      7  1.500                                                                 
  local pseudopotential read in
  partial core-charges read in
  partial kinetic energy density read in
  kinetic energy density of atom read in
  atomic valenz-charges read in
  non local Contribution for L=           0  read in
    real space projection operators read in
  non local Contribution for L=           0  read in
    real space projection operators read in
  non local Contribution for L=           1  read in
    real space projection operators read in
  non local Contribution for L=           1  read in
    real space projection operators read in
    PAW grid and wavefunctions read in
 
   number of l-projection  operators is LMAX  =           4
   number of lm-projection operators is LMMAX =           8
 
 POTCAR:    PAW_PBE H 15Jun2001                   
   VRHFIN =H: ultrasoft test                                                                        
   LEXCH  = PE                                                                                      
   EATOM  =    12.4884 eV,    0.9179 Ry                                                             
                                                                                                    
   TITEL  = PAW_PBE H 15Jun2001                                                                     
   LULTRA =        F    use ultrasoft PP ?                                                          
   IUNSCR =        0    unscreen: 0-lin 1-nonlin 2-no                                               
   RPACOR =    0.000    partial core radius                                                         
   POMASS =    1.000; ZVAL   =    1.000    mass and valenz                                          
   RCORE  =    1.100    outmost cutoff radius                                                       
   RWIGS  =    0.700; RWIGS  =    0.370    wigner-seitz radius (au A)                               
   ENMAX  =  250.000; ENMIN  =  200.000 eV                                                          
   RCLOC  =    0.701    cutoff for local pot                                                        
   LCOR   =        T    correct aug charges                                                         
   LPAW   =        T    paw PP                                                                      
   EAUG   =  400.000                                                                                
   RMAX   =    1.123    core radius for proj-oper                                                   
   RAUG   =    1.200    factor for augmentation sphere                                              
   RDEP   =    1.112    radius for radial grids                                                     
   RDEPT  =    0.926    core radius for aug-charge                                                  
                                                                                                    
   Atomic configuration                                                                             
    2 entries                                                                                       
     n  l   j            E        occ.                                                              
     1  0  0.50        -6.4927   1.0000                                                             
     2  1  0.50        -3.4015   0.0000                                                             
   Description                                                                                      
     l       E           TYP  RCUT    TYP  RCUT                                                     
     0     -6.4927494     23  1.100                                                                 
     0      6.8029130     23  1.100                                                                 
     1     -4.0817478     23  1.100                                                                 
  local pseudopotential read in
  atomic valenz-charges read in
  non local Contribution for L=           0  read in
    real space projection operators read in
  non local Contribution for L=           0  read in
    real space projection operators read in
  non local Contribution for L=           1  read in
    real space projection operators read in
    PAW grid and wavefunctions read in
 
   number of l-projection  operators is LMAX  =           3
   number of lm-projection operators is LMMAX =           5
 
 Optimization of the real space projectors (new method)

 maximal supplied QI-value         = 15.12
 optimisation between [QCUT,QGAM] = [ 11.34, 22.83] = [ 36.00,145.93] Ry 
 Optimized for a Real-space Cutoff    1.43 Angstroem

   l    n(q)    QCUT    max X(q) W(low)/X(q) W(high)/X(q)  e(spline) 
   2      9    11.338    53.897    0.16E-03    0.20E-03    0.28E-06
   2      9    11.338    52.416    0.16E-03    0.20E-03    0.29E-06
   0     10    11.338   122.045    0.31E-04    0.76E-04    0.15E-06
   0     10    11.338    73.629    0.30E-04    0.72E-04    0.15E-06
   1      9    11.338    15.255    0.20E-03    0.19E-04    0.17E-06
   1      9    11.338     9.562    0.16E-03    0.15E-04    0.14E-06
 Optimization of the real space projectors (new method)

 maximal supplied QI-value         = 12.85
 optimisation between [QCUT,QGAM] = [ 11.44, 22.87] = [ 36.63,146.51] Ry 
 Optimized for a Real-space Cutoff    1.61 Angstroem

   l    n(q)    QCUT    max X(q) W(low)/X(q) W(high)/X(q)  e(spline) 
   2     10    11.437    62.315    0.14E-03    0.26E-03    0.80E-06
   2     10    11.437    52.185    0.14E-03    0.26E-03    0.80E-06
   0     11    11.437   103.837    0.25E-04    0.17E-04    0.84E-07
   0     11    11.437    59.728    0.20E-04    0.15E-04    0.73E-07
   1     11    11.437    13.958    0.47E-03    0.12E-03    0.89E-06
   1     11    11.437     8.441    0.33E-03    0.88E-04    0.61E-06
 Optimization of the real space projectors (new method)

 maximal supplied QI-value         = 24.76
 optimisation between [QCUT,QGAM] = [ 11.39, 22.77] = [ 36.31,145.25] Ry 
 Optimized for a Real-space Cutoff    1.00 Angstroem

   l    n(q)    QCUT    max X(q) W(low)/X(q) W(high)/X(q)  e(spline) 
   0      7    11.387    20.381    0.39E-03    0.13E-02    0.15E-06
   0      7    11.387    15.268    0.42E-03    0.14E-02    0.17E-06
   1      6    11.387     5.964    0.41E-03    0.11E-02    0.17E-06
   1      6    11.387     5.382    0.39E-03    0.87E-03    0.15E-06
 Optimization of the real space projectors (new method)

 maximal supplied QI-value         = 34.20
 optimisation between [QCUT,QGAM] = [ 11.29, 22.57] = [ 35.68,142.71] Ry 
 Optimized for a Real-space Cutoff    1.16 Angstroem

   l    n(q)    QCUT    max X(q) W(low)/X(q) W(high)/X(q)  e(spline) 
   0      8    11.287    19.460    0.40E-03    0.73E-03    0.16E-06
   0      8    11.287    12.209    0.38E-03    0.70E-03    0.15E-06
   1      7    11.287     4.655    0.22E-03    0.25E-04    0.22E-06
  PAW_PBE Ag 02Apr2005                  :
 energy of atom  1       EATOM=-1037.2675
 kinetic energy error for atom=    0.0052 (will be added to EATOM!!)
  PAW_PBE Ta 17Jan2003                  :
 energy of atom  2       EATOM= -130.6506
 kinetic energy error for atom=    0.0012 (will be added to EATOM!!)
  PAW_PBE O 08Apr2002                   :
 energy of atom  3       EATOM= -432.3788
 kinetic energy error for atom=    0.0224 (will be added to EATOM!!)
  PAW_PBE H 15Jun2001                   :
 energy of atom  4       EATOM=  -12.4884
 kinetic energy error for atom=    0.0020 (will be added to EATOM!!)
 
 
 POSCAR: Ag-Ta-OH
  positions in direct lattice
  velocities in cartesian coordinates
 exchange correlation table for  LEXCH =        8
   RHO(1)=    0.500       N(1)  =     2000
   RHO(2)=  100.500       N(2)  =     4000

 VTST: version 3.2, (02/03/18)

 CHAIN: initializing optimizer
 
 OPT: Using VASP Conjugate-Gradient optimizer
 CHAIN: Read ICHAIN            0
 
 POSCAR: Ag-Ta-OH
  positions in direct lattice
  velocities in cartesian coordinates
 


--------------------------------------------------------------------------------------------------------


 ion  position               nearest neighbor table
   1  0.000  0.000  0.209-   2 2.93   8 2.93   7 2.93   6 2.93   4 2.93  12 2.93  16 2.93  10 2.93
                             3 2.93
   2  0.333  0.000  0.209-   1 2.93   8 2.93   9 2.93   3 2.93   4 2.93   5 2.93  10 2.93  17 2.93
                            11 2.93
   3  0.667  0.000  0.209-   9 2.93   2 2.93   5 2.93  11 2.93   7 2.93  18 2.93   1 2.93   6 2.93
                            12 2.93
   4  0.000  0.333  0.209-   5 2.93   6 2.93   2 2.93   1 2.93   7 2.93  13 2.93  15 2.93   9 2.93
                            10 2.93
   5  0.333  0.333  0.209-   4 2.93   3 2.93   7 2.93   2 2.93   8 2.93  14 2.93  13 2.93  11 2.93
                             6 2.93
   6  0.667  0.333  0.209-   4 2.93   9 2.93   1 2.93  15 2.93   8 2.93  12 2.93   3 2.93   5 2.93
                            14 2.93
   7  0.000  0.667  0.209-   8 2.93   1 2.93   5 2.93   3 2.93   4 2.93  16 2.93  18 2.93  13 2.93
                             9 2.93
   8  0.333  0.667  0.209-   7 2.93   1 2.93   2 2.93   9 2.93   5 2.93  16 2.93   6 2.93  17 2.93
                            14 2.93
   9  0.667  0.667  0.209-   3 2.93   2 2.93   8 2.93   6 2.93  17 2.93   4 2.93  15 2.93   7 2.93
                            18 2.93
  10  0.111  0.111  0.304-  20 2.89  12 2.93  16 2.93  15 2.93  17 2.93  13 2.93  11 2.93   2 2.93
                             1 2.93   4 2.93  19 2.93  26 2.93
  11  0.444  0.111  0.304-  21 2.90  20 2.90  14 2.93  17 2.93  18 2.93   3 2.93  12 2.93  13 2.93
                            10 2.93   5 2.93   2 2.93  27 2.93
  12  0.778  0.111  0.304-  21 2.89  10 2.93  16 2.93  18 2.93  15 2.93  11 2.93   1 2.93  14 2.93
                             6 2.93   3 2.93  25 2.93  19 2.93
  13  0.111  0.444  0.304-  20 2.90  23 2.90  15 2.93  14 2.93  18 2.93  10 2.93  11 2.93  16 2.93
                             4 2.93   5 2.93   7 2.93  22 2.93
  14  0.444  0.444  0.304-  23 2.90  21 2.90  13 2.93  11 2.93  16 2.93   5 2.93  12 2.93  17 2.93
                             8 2.93  15 2.93   6 2.93  24 2.93
  15  0.778  0.444  0.304-  19 2.93  24 2.93  22 2.93  13 2.93  10 2.93  12 2.93  17 2.93  18 2.93
                             4 2.93   6 2.93   9 2.93  14 2.93
  16  0.111  0.778  0.304-  23 2.89  18 2.93  12 2.93  10 2.93  14 2.93  17 2.93  13 2.93   7 2.93
                             8 2.93   1 2.93  26 2.93  25 2.93
  17  0.444  0.778  0.304-  26 2.93  27 2.93  24 2.93  11 2.93  10 2.93   9 2.93  18 2.93  15 2.93
                            16 2.93   2 2.93  14 2.93   8 2.93
  18  0.778  0.778  0.304-  25 2.93  22 2.93  27 2.93  16 2.93  12 2.93  13 2.93  11 2.93  17 2.93
                            15 2.93   7 2.93   3 2.93   9 2.93
  19  0.889  0.223  0.399-  20 2.92  21 2.92  24 2.93  22 2.93  28 2.93  15 2.93  10 2.93  12 2.93
                            26 2.94  25 2.94  32 2.99  31 2.99
  20  0.222  0.222  0.397-  36 2.78  10 2.89  13 2.90  11 2.90  19 2.92  26 2.92  27 2.93  22 2.93
                            21 2.95  23 2.95  31 2.97  29 2.97
  21  0.557  0.222  0.397-  36 2.78  12 2.89  11 2.90  14 2.90  25 2.92  19 2.92  27 2.93  24 2.93
                            20 2.95  23 2.95  30 2.97  32 2.97
  22  0.888  0.556  0.399-  24 2.92  27 2.92  25 2.93  19 2.93  18 2.93  15 2.93  13 2.93  23 2.93
                            20 2.93  35 2.94  33 2.96  31 2.96
  23  0.222  0.557  0.397-  36 2.78  16 2.89  14 2.90  13 2.90  26 2.92  25 2.92  22 2.93  24 2.93
                            21 2.95  20 2.95  34 2.97  33 2.97
  24  0.556  0.556  0.399-  27 2.92  22 2.92  19 2.93  26 2.93  15 2.93  17 2.93  14 2.93  23 2.93
                            21 2.93  35 2.94  32 2.96  34 2.96
  25  0.889  0.889  0.399-  23 2.92  21 2.92  22 2.93  27 2.93  28 2.93  18 2.93  16 2.93  12 2.93
                            26 2.94  19 2.94  33 2.99  30 2.99
  26  0.223  0.889  0.399-  23 2.92  20 2.92  27 2.93  24 2.93  28 2.93  17 2.93  16 2.93  10 2.93
                            25 2.94  19 2.94  34 2.99  29 2.99
  27  0.556  0.888  0.399-  24 2.92  22 2.92  26 2.93  25 2.93  17 2.93  18 2.93  11 2.93  20 2.93
                            21 2.93  35 2.94  29 2.96  30 2.96
  28  0.000  0.000  0.493-  26 2.93  25 2.93  19 2.93  29 2.96  34 2.96  33 2.96  32 2.96  31 2.96
                            30 2.96
  29  0.334  0.006  0.495-  30 2.88  31 2.88  36 2.89  35 2.96  28 2.96  27 2.96  20 2.97  26 2.99
                            34 3.03
  30  0.661  0.006  0.495-  29 2.88  32 2.88  36 2.89  35 2.96  28 2.96  27 2.96  21 2.97  25 2.99
                            33 3.03
  31  0.006  0.334  0.495-  33 2.88  29 2.88  36 2.89  35 2.96  28 2.96  22 2.96  20 2.97  19 2.99
                            32 3.03
  32  0.661  0.334  0.495-  34 2.88  30 2.88  36 2.89  35 2.96  28 2.96  24 2.96  21 2.97  19 2.99
                            31 3.03
  33  0.006  0.661  0.495-  31 2.88  34 2.88  36 2.89  35 2.96  28 2.96  22 2.96  23 2.97  25 2.99
                            30 3.03
  34  0.334  0.661  0.495-  32 2.88  33 2.88  36 2.89  35 2.96  28 2.96  24 2.96  23 2.97  26 2.99
                            29 3.03
  35  0.667  0.667  0.494-  24 2.94  27 2.94  22 2.94  30 2.96  32 2.96  29 2.96  34 2.96  31 2.96
                            33 2.96
  36  0.333  0.333  0.484-  37 1.87  21 2.78  20 2.78  23 2.78  31 2.89  33 2.89  30 2.89  29 2.89
                            34 2.89  32 2.89
  37  0.333  0.333  0.558-  38 0.97  36 1.87
  38  0.333  0.333  0.596-  37 0.97
 
  LATTYP: Found a hexagonal cell.
 ALAT       =     8.7913665772
 C/A-ratio  =     2.8719070141
  
  Lattice vectors:
  
 A1 = (  -4.3956832886,  -7.6135467898,   0.0000000000)
 A2 = (   8.7913665771,   0.0000000000,   0.0000000000)
 A3 = (   0.0000000000,   0.0000000000,  25.2479873362)


Analysis of symmetry for initial positions (statically):
=====================================================================
 Subroutine PRICEL returns:
 Original cell was already a primitive cell.
 

 Routine SETGRP: Setting up the symmetry group for a 
 hexagonal supercell.


 Subroutine GETGRP returns: Found  6 space group operations
 (whereof  6 operations were pure point group operations)
 out of a pool of 24 trial point group operations.


The static configuration has the point symmetry C_3v.


Analysis of symmetry for dynamics (positions and initial velocities):
=====================================================================
 Subroutine PRICEL returns:
 Original cell was already a primitive cell.
 

 Routine SETGRP: Setting up the symmetry group for a 
 hexagonal supercell.


 Subroutine GETGRP returns: Found  6 space group operations
 (whereof  6 operations were pure point group operations)
 out of a pool of 24 trial point group operations.


The dynamic configuration has the point symmetry C_3v.


Analysis of constrained symmetry for selective dynamics:
=====================================================================
 Subroutine PRICEL returns:
 Original cell was already a primitive cell.
 

 Routine SETGRP: Setting up the symmetry group for a 
 hexagonal supercell.


 Subroutine GETGRP returns: Found  6 space group operations
 (whereof  6 operations were pure point group operations)
 out of a pool of 24 trial point group operations.


The constrained configuration has the point symmetry C_3v.


 Subroutine INISYM returns: Found  6 space group operations
 (whereof  6 operations are pure point group operations),
 and found     1 'primitive' translations


----------------------------------------------------------------------------------------

                                     Primitive cell                                     

  volume of cell :    1689.9357

  direct lattice vectors                    reciprocal lattice vectors
     8.791366577  0.000000000  0.000000000     0.113747958 -0.065672414  0.000000000
     4.395683289  7.613546790  0.000000000     0.000000000  0.131344829  0.000000000
     0.000000000  0.000000000 25.247987336     0.000000000  0.000000000  0.039607117

  length of vectors
     8.791366577  8.791366577 25.247987336     0.131344829  0.131344829  0.039607117

  position of ions in fractional coordinates (direct lattice)
     0.000000000  0.000000000  0.209212246
     0.333333313  0.000000000  0.209212246
     0.666666627  0.000000000  0.209212246
     0.000000000  0.333333343  0.209212246
     0.333333313  0.333333343  0.209212246
     0.666666687  0.333333343  0.209212246
     0.000000000  0.666666687  0.209212246
     0.333333313  0.666666687  0.209212246
     0.666666627  0.666666687  0.209212246
     0.111111104  0.111111112  0.303980481
     0.444444448  0.111111112  0.303980481
     0.777777791  0.111111112  0.303980481
     0.111111097  0.444444448  0.303980481
     0.444444418  0.444444448  0.303980481
     0.777777791  0.444444448  0.303980481
     0.111111104  0.777777791  0.303980481
     0.444444448  0.777777791  0.303980481
     0.777777791  0.777777791  0.303980481
     0.888701275  0.222597467  0.398819564
     0.221552221  0.221552236  0.397016707
     0.556895499  0.221552236  0.397016707
     0.888301432  0.555849314  0.398802248
     0.221552236  0.556895559  0.397016707
     0.555849314  0.555849314  0.398802248
     0.888701275  0.888701275  0.398819564
     0.222597437  0.888701275  0.398819564
     0.555849254  0.888301432  0.398802248
     0.000000000  0.000000000  0.493418823
     0.333507489  0.005743574  0.495073800
     0.660748877  0.005743574  0.495073800
     0.005743574  0.333507519  0.495073800
     0.660748937  0.333507519  0.495073800
     0.005743574  0.660748937  0.495073800
     0.333507489  0.660748937  0.495073800
     0.666666627  0.666666687  0.493942492
     0.333333313  0.333333343  0.484249288
     0.333333313  0.333333343  0.558173890
     0.333333313  0.333333343  0.596423306

  ion indices of the primitive-cell ions
   primitive index   ion index
                 1           1
                 2           2
                 3           3
                 4           4
                 5           5
                 6           6
                 7           7
                 8           8
                 9           9
                10          10
                11          11
                12          12
                13          13
                14          14
                15          15
                16          16
                17          17
                18          18
                19          19
                20          20
                21          21
                22          22
                23          23
                24          24
                25          25
                26          26
                27          27
                28          28
                29          29
                30          30
                31          31
                32          32
                33          33
                34          34
                35          35
                36          36
                37          37
                38          38

----------------------------------------------------------------------------------------

 
 
 KPOINTS: Automatic mesh                          

Automatic generation of k-mesh.
 Grid dimensions read from file:
 generate k-points for:    8    8    1

 Generating k-lattice:

  Cartesian coordinates                     Fractional coordinates (reciprocal lattice)
     0.014218495 -0.008209052  0.000000000     0.125000000  0.000000000  0.000000000
     0.000000000  0.016418104  0.000000000     0.000000000  0.125000000  0.000000000
     0.000000000  0.000000000  0.039607117     0.000000000  0.000000000  1.000000000

  Length of vectors
     0.016418104  0.016418104  0.039607117

  Shift w.r.t. Gamma in fractional coordinates (k-lattice)
     0.000000000  0.000000000  0.000000000

 TETIRR: Found     36 inequivalent tetrahedra from      384
 
 Subroutine IBZKPT returns following result:
 ===========================================
 
 Found     10 irreducible k-points:
 
 Following reciprocal coordinates:
            Coordinates               Weight
  0.000000  0.000000  0.000000      1.000000
  0.125000  0.000000  0.000000      6.000000
  0.250000  0.000000  0.000000      6.000000
  0.375000  0.000000  0.000000      6.000000
  0.500000  0.000000  0.000000      3.000000
  0.250000  0.125000  0.000000      6.000000
  0.375000  0.125000  0.000000     12.000000
  0.500000  0.125000  0.000000     12.000000
  0.500000  0.250000  0.000000      6.000000
 -0.375000  0.250000  0.000000      6.000000
 
 Following cartesian coordinates:
            Coordinates               Weight
  0.000000  0.000000  0.000000      1.000000
  0.014218 -0.008209  0.000000      6.000000
  0.028437 -0.016418  0.000000      6.000000
  0.042655 -0.024627  0.000000      6.000000
  0.056874 -0.032836  0.000000      3.000000
  0.028437 -0.000000  0.000000      6.000000
  0.042655 -0.008209  0.000000     12.000000
  0.056874 -0.016418  0.000000     12.000000
  0.056874 -0.000000  0.000000      6.000000
 -0.042655  0.057463  0.000000      6.000000
 


--------------------------------------------------------------------------------------------------------




 Dimension of arrays:
   k-points           NKPTS =     10   k-points in BZ     NKDIM =     10   number of bands    NBANDS=    240
   number of dos      NEDOS =    301   number of ions     NIONS =     38
   non local maximal  LDIM  =      6   non local SUM 2l+1 LMDIM =     18
   total plane-waves  NPLWV = 322560
   max r-space proj   IRMAX =   3393   max aug-charges    IRDMAX=  13191
   dimension x,y,z NGX =    48 NGY =   48 NGZ =  140
   dimension x,y,z NGXF=    96 NGYF=   96 NGZF=  280
   support grid    NGXF=    96 NGYF=   96 NGZF=  280
   ions per type =              35   1   1   1
   NGX,Y,Z   is equivalent  to a cutoff of   9.08,  9.08,  9.22 a.u.
   NGXF,Y,Z  is equivalent  to a cutoff of  18.15, 18.15, 18.44 a.u.

 SYSTEM =  unknown system                          
 POSCAR =  Ag-Ta-OH                                

 Startparameter for this run:
   NWRITE =      2    write-flag & timer
   PREC   = normal    normal or accurate (medium, high low for compatibility)
   ISTART =      0    job   : 0-new  1-cont  2-samecut
   ICHARG =     11    charge: 1-file 2-atom 10-const
   ISPIN  =      1    spin polarized calculation?
   LNONCOLLINEAR =      F non collinear calculations
   LSORBIT =      F    spin-orbit coupling
   INIWAV =      1    electr: 0-lowe 1-rand  2-diag
   LASPH  =      F    aspherical Exc in radial PAW
   METAGGA=      F    non-selfconsistent MetaGGA calc.

 Electronic Relaxation 1
   ENCUT  =  500.0 eV  36.75 Ry    6.06 a.u.  16.03 16.03 46.03*2*pi/ulx,y,z
   ENINI  =  500.0     initial cutoff
   ENAUG  =  605.4 eV  augmentation charge cutoff
   NELM   =    150;   NELMIN=  2; NELMDL= -5     # of ELM steps 
   EDIFF  = 0.1E-04   stopping-criterion for ELM
   LREAL  =      T    real-space projection
   NLSPLINE    = F    spline interpolate recip. space projectors
   LCOMPAT=      F    compatible to vasp.4.4
   GGA_COMPAT  = T    GGA compatible to vasp.4.4-vasp.4.6
   LMAXPAW     = -100 max onsite density
   LMAXMIX     =    2 max onsite mixed and CHGCAR
   VOSKOWN=      0    Vosko Wilk Nusair interpolation
   ROPT   =   -0.00050  -0.00050  -0.00050  -0.00050
 Ionic relaxation
   EDIFFG = -.1E-01   stopping-criterion for IOM
   NSW    =      0    number of steps for IOM
   NBLOCK =      1;   KBLOCK =      1    inner block; outer block 
   IBRION =     -1    ionic relax: 0-MD 1-quasi-New 2-CG
   NFREE  =      1    steps in history (QN), initial steepest desc. (CG)
   ISIF   =      2    stress and relaxation
   IWAVPR =     10    prediction:  0-non 1-charg 2-wave 3-comb
   ISYM   =      2    0-nonsym 1-usesym 2-fastsym
   LCORR  =      T    Harris-Foulkes like correction to forces

   POTIM  = 0.5000    time-step for ionic-motion
   TEIN   =    0.0    initial temperature
   TEBEG  =    0.0;   TEEND  =   0.0 temperature during run
   SMASS  =  -3.00    Nose mass-parameter (am)
   estimated Nose-frequenzy (Omega)   =  0.10E-29 period in steps = 0.13E+47 mass=  -0.177E-26a.u.
   SCALEE = 1.0000    scale energy and forces
   NPACO  =    256;   APACO  = 16.0  distance and # of slots for P.C.
   PSTRESS=    0.0 pullay stress

  Mass of Ions in am
   POMASS = 107.87180.95 16.00  1.00
  Ionic Valenz
   ZVAL   =  11.00  5.00  6.00  1.00
  Atomic Wigner-Seitz radii
   RWIGS  =  -1.00 -1.00 -1.00 -1.00
  virtual crystal weights 
   VCA    =   1.00  1.00  1.00  1.00
   NELECT =     397.0000    total number of electrons
   NUPDOWN=      -1.0000    fix difference up-down

 DOS related values:
   EMIN   =  10.00;   EMAX   =-10.00  energy-range for DOS
   EFERMI =   0.00
   ISMEAR =    -5;   SIGMA  =   0.10  broadening in eV -4-tet -1-fermi 0-gaus

 Electronic relaxation 2 (details)
   IALGO  =     68    algorithm
   LDIAG  =      T    sub-space diagonalisation (order eigenvalues)
   LSUBROT=      F    optimize rotation matrix (better conditioning)
   TURBO    =      0    0=normal 1=particle mesh
   IRESTART =      0    0=no restart 2=restart with 2 vectors
   NREBOOT  =      0    no. of reboots
   NMIN     =      0    reboot dimension
   EREF     =   0.00    reference energy to select bands
   IMIX   =      4    mixing-type and parameters
     AMIX     =   0.40;   BMIX     =  1.00
     AMIX_MAG =   1.60;   BMIX_MAG =  1.00
     AMIN     =   0.10
     WC   =   100.;   INIMIX=   1;  MIXPRE=   1;  MAXMIX= -45

 Intra band minimization:
   WEIMIN = 0.0000     energy-eigenvalue tresh-hold
   EBREAK =  0.10E-07  absolut break condition
   DEPER  =   0.30     relativ break condition  

   TIME   =   0.40     timestep for ELM

  volume/ion in A,a.u.               =      44.47       300.11
  Fermi-wavevector in a.u.,A,eV,Ry     =   1.010140  1.908888 13.883154  1.020383
  Thomas-Fermi vector in A             =   2.143111
 
 Write flags
   LWAVE        =      F    write WAVECAR
   LDOWNSAMPLE  =      F    k-point downsampling of WAVECAR
   LCHARG       =      F    write CHGCAR
   LVTOT        =      F    write LOCPOT, total local potential
   LVHAR        =      F    write LOCPOT, Hartree potential only
   LELF         =      F    write electronic localiz. function (ELF)
   LORBIT       =     10    0 simple, 1 ext, 2 COOP (PROOUT), +10 PAW based schemes


 Dipole corrections
   LMONO  =      F    monopole corrections only (constant potential shift)
   LDIPOL =      F    correct potential (dipole corrections)
   IDIPOL =      0    1-x, 2-y, 3-z, 4-all directions 
   EPSILON=  1.0000000 bulk dielectric constant

 Exchange correlation treatment:
   GGA     =    --    GGA type
   LEXCH   =     8    internal setting for exchange type
   VOSKOWN=      0    Vosko Wilk Nusair interpolation
   LHFCALC =     F    Hartree Fock is set to
   LHFONE  =     F    Hartree Fock one center treatment
   AEXX    =    0.0000 exact exchange contribution

 Linear response parameters
   LEPSILON=     F    determine dielectric tensor
   LRPA    =     F    only Hartree local field effects (RPA)
   LNABLA  =     F    use nabla operator in PAW spheres
   LVEL    =     F    velocity operator in full k-point grid
   LINTERFAST=   F  fast interpolation
   KINTER  =     0    interpolate to denser k-point grid
   CSHIFT  =0.1000    complex shift for real part using Kramers Kronig
   OMEGAMAX=  -1.0    maximum frequency
   DEG_THRESHOLD= 0.2000000E-02 threshold for treating states as degnerate
   RTIME   =   -0.100 relaxation time in fs
  (WPLASMAI=    0.000 imaginary part of plasma frequency in eV, 0.658/RTIME)
   DFIELD  = 0.0000000 0.0000000 0.0000000 field for delta impulse in time
 
 Orbital magnetization related:
   ORBITALMAG=     F  switch on orbital magnetization
   LCHIMAG   =     F  perturbation theory with respect to B field
   DQ        =  0.001000  dq finite difference perturbation B field
   LLRAUG    =     F  two centre corrections for induced B field



--------------------------------------------------------------------------------------------------------


 Static calculation
 charge density and potential remain constant during run
 non-spin polarized calculation
 RMM-DIIS sequential band-by-band and
  variant of blocked Davidson during initial phase
 perform sub-space diagonalisation
    before iterative eigenvector-optimisation
 no mixing
 using additional bands           41
 real space projection scheme for non local part
 use partial core corrections
 calculate Harris-corrections to forces 
   (improved forces if not selfconsistent)
 use gradient corrections 
 WARNING: stress and forces are not correct
  (second derivative of E(xc) not defined)
 use of overlap-Matrix (Vanderbilt PP)
 Fermi weights with tetrahedron method with Bloechl corrections


--------------------------------------------------------------------------------------------------------


  energy-cutoff  :      500.00
  volume of cell :     1689.94
      direct lattice vectors                 reciprocal lattice vectors
     8.791366577  0.000000000  0.000000000     0.113747958 -0.065672414  0.000000000
     4.395683289  7.613546790  0.000000000     0.000000000  0.131344829  0.000000000
     0.000000000  0.000000000 25.247987336     0.000000000  0.000000000  0.039607117

  length of vectors
     8.791366577  8.791366577 25.247987336     0.131344829  0.131344829  0.039607117


 
 k-points in units of 2pi/SCALE and weight: Automatic mesh                          
   0.00000000  0.00000000  0.00000000       0.016
   0.01421849 -0.00820905  0.00000000       0.094
   0.02843699 -0.01641810  0.00000000       0.094
   0.04265548 -0.02462716  0.00000000       0.094
   0.05687398 -0.03283621  0.00000000       0.047
   0.02843699 -0.00000000  0.00000000       0.094
   0.04265548 -0.00820905  0.00000000       0.188
   0.05687398 -0.01641810  0.00000000       0.188
   0.05687398 -0.00000000  0.00000000       0.094
  -0.04265548  0.05746336  0.00000000       0.094
 
 k-points in reciprocal lattice and weights: Automatic mesh                          
   0.00000000  0.00000000  0.00000000       0.016
   0.12500000  0.00000000  0.00000000       0.094
   0.25000000  0.00000000  0.00000000       0.094
   0.37500000  0.00000000  0.00000000       0.094
   0.50000000  0.00000000  0.00000000       0.047
   0.25000000  0.12500000  0.00000000       0.094
   0.37500000  0.12500000  0.00000000       0.188
   0.50000000  0.12500000  0.00000000       0.188
   0.50000000  0.25000000  0.00000000       0.094
  -0.37500000  0.25000000  0.00000000       0.094
 
 position of ions in fractional coordinates (direct lattice) 
   0.00000000  0.00000000  0.20921225
   0.33333331  0.00000000  0.20921225
   0.66666663  0.00000000  0.20921225
   0.00000000  0.33333334  0.20921225
   0.33333331  0.33333334  0.20921225
   0.66666669  0.33333334  0.20921225
   0.00000000  0.66666669  0.20921225
   0.33333331  0.66666669  0.20921225
   0.66666663  0.66666669  0.20921225
   0.11111110  0.11111111  0.30398048
   0.44444445  0.11111111  0.30398048
   0.77777779  0.11111111  0.30398048
   0.11111110  0.44444445  0.30398048
   0.44444442  0.44444445  0.30398048
   0.77777779  0.44444445  0.30398048
   0.11111110  0.77777779  0.30398048
   0.44444445  0.77777779  0.30398048
   0.77777779  0.77777779  0.30398048
   0.88870127  0.22259747  0.39881956
   0.22155222  0.22155224  0.39701671
   0.55689550  0.22155224  0.39701671
   0.88830143  0.55584931  0.39880225
   0.22155224  0.55689556  0.39701671
   0.55584931  0.55584931  0.39880225
   0.88870127  0.88870127  0.39881956
   0.22259744  0.88870127  0.39881956
   0.55584925  0.88830143  0.39880225
   0.00000000  0.00000000  0.49341882
   0.33350749  0.00574357  0.49507380
   0.66074888  0.00574357  0.49507380
   0.00574357  0.33350752  0.49507380
   0.66074894  0.33350752  0.49507380
   0.00574357  0.66074894  0.49507380
   0.33350749  0.66074894  0.49507380
   0.66666663  0.66666669  0.49394249
   0.33333331  0.33333334  0.48424929
   0.33333331  0.33333334  0.55817389
   0.33333331  0.33333334  0.59642331
 
 position of ions in cartesian coordinates  (Angst):
   0.00000000  0.00000000  5.28218814
   2.93045535  0.00000000  5.28218814
   5.86091070  0.00000000  5.28218814
   1.46522781  2.53784900  5.28218814
   4.39568315  2.53784900  5.28218814
   7.32613904  2.53784900  5.28218814
   2.93045562  5.07569801  5.28218814
   5.86091096  5.07569801  5.28218814
   8.79136632  5.07569801  5.28218814
   1.46522770  0.84594965  7.67489535
   4.39568332  0.84594965  7.67489535
   7.32613893  0.84594965  7.67489535
   2.93045542  3.38379860  7.67489535
   5.86091083  3.38379860  7.67489535
   8.79136671  3.38379860  7.67489535
   4.39568328  5.92164760  7.67489535
   7.32613890  5.92164760  7.67489535
  10.25659451  5.92164760  7.67489535
   8.79136665  1.69475623 10.06939130
   2.92162025  1.68679831 10.02387278
   5.86974594  1.68679831 10.02387278
  10.25272106  4.23198476 10.06895410
   4.39568342  4.23995040 10.02387278
   7.33001262  4.23198476 10.06895410
  11.71934803  6.76616874 10.06939130
   5.86338501  6.76616874 10.06939130
   8.79136631  6.76312452 10.06895410
   0.00000000  0.00000000 12.45783220
   2.95723353  0.04372897 12.49961703
   5.83413252  0.04372897 12.49961703
   1.51648729  2.53917510 12.49961703
   7.27487955  2.53917510 12.49961703
   2.95493692  5.03064295 12.49961703
   5.83642965  5.03064295 12.49961703
   8.79136632  5.07569801 12.47105378
   4.39568315  2.53784900 12.22631990
   4.39568315  2.53784900 14.09276731
   4.39568315  2.53784900 15.05848809
 


--------------------------------------------------------------------------------------------------------


 k-point   1 :   0.0000 0.0000 0.0000  plane waves:   42843
 k-point   2 :   0.1250 0.0000 0.0000  plane waves:   42824
 k-point   3 :   0.2500 0.0000 0.0000  plane waves:   42872
 k-point   4 :   0.3750 0.0000 0.0000  plane waves:   42884
 k-point   5 :   0.5000 0.0000 0.0000  plane waves:   42900
 k-point   6 :   0.2500 0.1250 0.0000  plane waves:   42896
 k-point   7 :   0.3750 0.1250 0.0000  plane waves:   42940
 k-point   8 :   0.5000 0.1250 0.0000  plane waves:   42932
 k-point   9 :   0.5000 0.2500 0.0000  plane waves:   42910
 k-point  10 :  -0.3750 0.2500 0.0000  plane waves:   42928

 maximum and minimum number of plane-waves per node :     42940    42824

 maximum number of plane-waves:     42940
 maximum index in each direction: 
   IXMAX=   16   IYMAX=   16   IZMAX=   46
   IXMIN=  -16   IYMIN=  -16   IZMIN=  -46


 serial   3D FFT for wavefunctions
 parallel 3D FFT for charge:
    minimum data exchange during FFTs selected (reduces bandwidth)


 total amount of memory used by VASP MPI-rank0   182073. kBytes
=======================================================================

   base      :      30000. kBytes
   nonlr-proj:      15435. kBytes
   fftplans  :       6755. kBytes
   grid      :      24615. kBytes
   one-center:        590. kBytes
   wavefun   :     104678. kBytes
 
     INWAV:  cpu time    0.0000: real time    0.0000
 initial charge density was supplied:
 number of electron     397.0000060 magnetization 
 keeping initial charge density in first step


--------------------------------------------------------------------------------------------------------


 Maximum index for non-local projection operator         3240
 Maximum index for augmentation-charges          632 (set IRDMAX)


--------------------------------------------------------------------------------------------------------


 First call to EWALD:  gamma=   0.149
 Maximum number of real-space cells 4x 4x 2
 Maximum number of reciprocal cells 2x 2x 5

    FEWALD:  cpu time    0.0014: real time    0.0014


--------------------------------------- Iteration      1(   1)  ---------------------------------------


    POTLOK:  cpu time    0.0645: real time    0.0647
    SETDIJ:  cpu time    0.0061: real time    0.0061
     EDDAV:  cpu time    9.8458: real time    9.8469
 BZINTS: Fermi energy:    9.308895;  397.000000 electrons
         Band energy: 0.105285E+04;  BLOECHL correction:   -0.023510
       DOS:  cpu time    0.0101: real time    0.0101
    --------------------------------------------
      LOOP:  cpu time    9.9264: real time    9.9279

 eigenvalue-minimisations  :  4800
 total energy-change (2. order) : 0.2437345E+04  (-0.1786600E+05)
 number of electron     397.0000060 magnetization 
 augmentation part      397.0000060 magnetization 

 Free energy of the ion-electron system (eV)
  ---------------------------------------------------
  alpha Z        PSCENC =       667.85272824
  Ewald energy   TEWEN  =    141208.57962324
  -Hartree energ DENC   =   -178552.68975631
  -exchange      EXHF   =         0.00000000
  -V(xc)+E(xc)   XCENC  =      -424.11215047
  PAW double counting   =     39362.72268204   -37757.53512691
  entropy T*S    EENTRO =         0.00000000
  eigenvalues    EBANDS =      1052.85367823
  atomic energy  EATOM  =     36879.67305363
  Solvation  Ediel_sol  =         0.00000000
  ---------------------------------------------------
  free energy    TOTEN  =      2437.34473170 eV

  energy without entropy =     2437.34473170  energy(sigma->0) =     2437.34473170


--------------------------------------------------------------------------------------------------------




--------------------------------------- Iteration      1(   2)  ---------------------------------------


     EDDAV:  cpu time   10.3830: real time   10.3837
 BZINTS: Fermi energy:    1.222610;  397.000000 electrons
         Band energy:-0.138137E+04;  BLOECHL correction:   -0.045710
       DOS:  cpu time    0.0091: real time    0.0091
    --------------------------------------------
      LOOP:  cpu time   10.3922: real time   10.3928

 eigenvalue-minimisations  :  5152
 total energy-change (2. order) :-0.2434224E+04  (-0.2310732E+04)
 number of electron     397.0000060 magnetization 
 augmentation part      397.0000060 magnetization 

 Free energy of the ion-electron system (eV)
  ---------------------------------------------------
  alpha Z        PSCENC =       667.85272824
  Ewald energy   TEWEN  =    141208.57962324
  -Hartree energ DENC   =   -178552.68975631
  -exchange      EXHF   =         0.00000000
  -V(xc)+E(xc)   XCENC  =      -424.11215047
  PAW double counting   =     39362.72268204   -37757.53512691
  entropy T*S    EENTRO =         0.00000000
  eigenvalues    EBANDS =     -1381.37066174
  atomic energy  EATOM  =     36879.67305363
  Solvation  Ediel_sol  =         0.00000000
  ---------------------------------------------------
  free energy    TOTEN  =         3.12039173 eV

  energy without entropy =        3.12039173  energy(sigma->0) =        3.12039173


--------------------------------------------------------------------------------------------------------




--------------------------------------- Iteration      1(   3)  ---------------------------------------


     EDDAV:  cpu time   11.0176: real time   11.0183
 BZINTS: Fermi energy:    0.529615;  397.000000 electrons
         Band energy:-0.149230E+04;  BLOECHL correction:   -0.030610
       DOS:  cpu time    0.0088: real time    0.0088
    --------------------------------------------
      LOOP:  cpu time   11.0264: real time   11.0271

 eigenvalue-minimisations  :  5552
 total energy-change (2. order) :-0.1109270E+03  (-0.1080751E+03)
 number of electron     397.0000060 magnetization 
 augmentation part      397.0000060 magnetization 

 Free energy of the ion-electron system (eV)
  ---------------------------------------------------
  alpha Z        PSCENC =       667.85272824
  Ewald energy   TEWEN  =    141208.57962324
  -Hartree energ DENC   =   -178552.68975631
  -exchange      EXHF   =         0.00000000
  -V(xc)+E(xc)   XCENC  =      -424.11215047
  PAW double counting   =     39362.72268204   -37757.53512691
  entropy T*S    EENTRO =         0.00000000
  eigenvalues    EBANDS =     -1492.29762066
  atomic energy  EATOM  =     36879.67305363
  Solvation  Ediel_sol  =         0.00000000
  ---------------------------------------------------
  free energy    TOTEN  =      -107.80656719 eV

  energy without entropy =     -107.80656719  energy(sigma->0) =     -107.80656719


--------------------------------------------------------------------------------------------------------




--------------------------------------- Iteration      1(   4)  ---------------------------------------


     EDDAV:  cpu time   10.6121: real time   10.6127
 BZINTS: Fermi energy:    0.483256;  397.000000 electrons
         Band energy:-0.149474E+04;  BLOECHL correction:   -0.028085
       DOS:  cpu time    0.0096: real time    0.0096
    --------------------------------------------
      LOOP:  cpu time   10.6216: real time   10.6223

 eigenvalue-minimisations  :  5296
 total energy-change (2. order) :-0.2444981E+01  (-0.2419907E+01)
 number of electron     397.0000060 magnetization 
 augmentation part      397.0000060 magnetization 

 Free energy of the ion-electron system (eV)
  ---------------------------------------------------
  alpha Z        PSCENC =       667.85272824
  Ewald energy   TEWEN  =    141208.57962324
  -Hartree energ DENC   =   -178552.68975631
  -exchange      EXHF   =         0.00000000
  -V(xc)+E(xc)   XCENC  =      -424.11215047
  PAW double counting   =     39362.72268204   -37757.53512691
  entropy T*S    EENTRO =         0.00000000
  eigenvalues    EBANDS =     -1494.74260180
  atomic energy  EATOM  =     36879.67305363
  Solvation  Ediel_sol  =         0.00000000
  ---------------------------------------------------
  free energy    TOTEN  =      -110.25154833 eV

  energy without entropy =     -110.25154833  energy(sigma->0) =     -110.25154833


--------------------------------------------------------------------------------------------------------




--------------------------------------- Iteration      1(   5)  ---------------------------------------


     EDDAV:  cpu time   11.0445: real time   11.0452
 BZINTS: Fermi energy:    0.482139;  397.000000 electrons
         Band energy:-0.149480E+04;  BLOECHL correction:   -0.028061
       DOS:  cpu time    0.0096: real time    0.0096
    --------------------------------------------
      LOOP:  cpu time   11.0541: real time   11.0548

 eigenvalue-minimisations  :  5568
 total energy-change (2. order) :-0.6182110E-01  (-0.6180149E-01)
 number of electron     397.0000060 magnetization 
 augmentation part      397.0000060 magnetization 

 Free energy of the ion-electron system (eV)
  ---------------------------------------------------
  alpha Z        PSCENC =       667.85272824
  Ewald energy   TEWEN  =    141208.57962324
  -Hartree energ DENC   =   -178552.68975631
  -exchange      EXHF   =         0.00000000
  -V(xc)+E(xc)   XCENC  =      -424.11215047
  PAW double counting   =     39362.72268204   -37757.53512691
  entropy T*S    EENTRO =         0.00000000
  eigenvalues    EBANDS =     -1494.80442290
  atomic energy  EATOM  =     36879.67305363
  Solvation  Ediel_sol  =         0.00000000
  ---------------------------------------------------
  free energy    TOTEN  =      -110.31336943 eV

  energy without entropy =     -110.31336943  energy(sigma->0) =     -110.31336943


--------------------------------------------------------------------------------------------------------




--------------------------------------- Iteration      1(   6)  ---------------------------------------


    EDDIAG:  cpu time    1.8156: real time    1.8158
  RMM-DIIS:  cpu time    5.2510: real time    5.2513
    ORTHCH:  cpu time    0.3975: real time    0.3975
 BZINTS: Fermi energy:    0.482105;  397.000000 electrons
         Band energy:-0.149481E+04;  BLOECHL correction:   -0.028062
       DOS:  cpu time    0.0094: real time    0.0094
    --------------------------------------------
      LOOP:  cpu time    7.4735: real time    7.4740

 eigenvalue-minimisations  :  5008
 total energy-change (2. order) :-0.1548143E-02  (-0.1547673E-02)
 number of electron     397.0000060 magnetization 
 augmentation part      397.0000060 magnetization 

 Free energy of the ion-electron system (eV)
  ---------------------------------------------------
  alpha Z        PSCENC =       667.85272824
  Ewald energy   TEWEN  =    141208.57962324
  -Hartree energ DENC   =   -178552.68975631
  -exchange      EXHF   =         0.00000000
  -V(xc)+E(xc)   XCENC  =      -424.11215047
  PAW double counting   =     39362.72268204   -37757.53512691
  entropy T*S    EENTRO =         0.00000000
  eigenvalues    EBANDS =     -1494.80597105
  atomic energy  EATOM  =     36879.67305363
  Solvation  Ediel_sol  =         0.00000000
  ---------------------------------------------------
  free energy    TOTEN  =      -110.31491758 eV

  energy without entropy =     -110.31491758  energy(sigma->0) =     -110.31491758


--------------------------------------------------------------------------------------------------------




--------------------------------------- Iteration      1(   7)  ---------------------------------------


    EDDIAG:  cpu time    1.8163: real time    1.8165
  RMM-DIIS:  cpu time    7.3071: real time    7.3076
    ORTHCH:  cpu time    0.3971: real time    0.3971
 BZINTS: Fermi energy:    0.482092;  397.000000 electrons
         Band energy:-0.149481E+04;  BLOECHL correction:   -0.028062
       DOS:  cpu time    0.0090: real time    0.0090
    --------------------------------------------
      LOOP:  cpu time    9.5295: real time    9.5302

 eigenvalue-minimisations  :  7136
 total energy-change (2. order) :-0.5769713E-03  (-0.5765254E-03)
 number of electron     397.0000060 magnetization 
 augmentation part      397.0000060 magnetization 

 Free energy of the ion-electron system (eV)
  ---------------------------------------------------
  alpha Z        PSCENC =       667.85272824
  Ewald energy   TEWEN  =    141208.57962324
  -Hartree energ DENC   =   -178552.68975631
  -exchange      EXHF   =         0.00000000
  -V(xc)+E(xc)   XCENC  =      -424.11215047
  PAW double counting   =     39362.72268204   -37757.53512691
  entropy T*S    EENTRO =         0.00000000
  eigenvalues    EBANDS =     -1494.80654802
  atomic energy  EATOM  =     36879.67305363
  Solvation  Ediel_sol  =         0.00000000
  ---------------------------------------------------
  free energy    TOTEN  =      -110.31549455 eV

  energy without entropy =     -110.31549455  energy(sigma->0) =     -110.31549455


--------------------------------------------------------------------------------------------------------




--------------------------------------- Iteration      1(   8)  ---------------------------------------


    EDDIAG:  cpu time    1.8162: real time    1.8163
  RMM-DIIS:  cpu time    5.5127: real time    5.5131
    ORTHCH:  cpu time    0.3972: real time    0.3972
 BZINTS: Fermi energy:    0.482092;  397.000000 electrons
         Band energy:-0.149481E+04;  BLOECHL correction:   -0.028062
       DOS:  cpu time    0.0095: real time    0.0095
    --------------------------------------------
      LOOP:  cpu time    7.7356: real time    7.7361

 eigenvalue-minimisations  :  5247
 total energy-change (2. order) :-0.2405955E-04  (-0.2745539E-04)
 number of electron     397.0000060 magnetization 
 augmentation part      397.0000060 magnetization 

 Free energy of the ion-electron system (eV)
  ---------------------------------------------------
  alpha Z        PSCENC =       667.85272824
  Ewald energy   TEWEN  =    141208.57962324
  -Hartree energ DENC   =   -178552.68975631
  -exchange      EXHF   =         0.00000000
  -V(xc)+E(xc)   XCENC  =      -424.11215047
  PAW double counting   =     39362.72268204   -37757.53512691
  entropy T*S    EENTRO =         0.00000000
  eigenvalues    EBANDS =     -1494.80657208
  atomic energy  EATOM  =     36879.67305363
  Solvation  Ediel_sol  =         0.00000000
  ---------------------------------------------------
  free energy    TOTEN  =      -110.31551861 eV

  energy without entropy =     -110.31551861  energy(sigma->0) =     -110.31551861


--------------------------------------------------------------------------------------------------------




--------------------------------------- Iteration      1(   9)  ---------------------------------------


    EDDIAG:  cpu time    1.8185: real time    1.8215
  RMM-DIIS:  cpu time    4.2159: real time    4.2162
    ORTHCH:  cpu time    0.3977: real time    0.3977
 BZINTS: Fermi energy:    0.482092;  397.000000 electrons
         Band energy:-0.149481E+04;  BLOECHL correction:   -0.028062
       DOS:  cpu time    0.0092: real time    0.0092
    --------------------------------------------
      LOOP:  cpu time    6.4413: real time    6.4445

 eigenvalue-minimisations  :  3637
 total energy-change (2. order) :-0.5331065E-05  (-0.5336402E-05)
 number of electron     397.0000060 magnetization 
 augmentation part      397.0000060 magnetization 

 Free energy of the ion-electron system (eV)
  ---------------------------------------------------
  alpha Z        PSCENC =       667.85272824
  Ewald energy   TEWEN  =    141208.57962324
  -Hartree energ DENC   =   -178552.68975631
  -exchange      EXHF   =         0.00000000
  -V(xc)+E(xc)   XCENC  =      -424.11215047
  PAW double counting   =     39362.72268204   -37757.53512691
  entropy T*S    EENTRO =         0.00000000
  eigenvalues    EBANDS =     -1494.80657741
  atomic energy  EATOM  =     36879.67305363
  Solvation  Ediel_sol  =         0.00000000
  ---------------------------------------------------
  free energy    TOTEN  =      -110.31552394 eV

  energy without entropy =     -110.31552394  energy(sigma->0) =     -110.31552394


--------------------------------------------------------------------------------------------------------




 average (electrostatic) potential at core
  the test charge radii are     1.1249  1.2538  0.7215  0.5201
  (the norm of the test charge is              1.0000)
       1 -78.4192       2 -78.4022       3 -78.4022       4 -78.4022       5 -78.3977
       6 -78.4020       7 -78.4022       8 -78.4020       9 -78.4178      10 -78.6454
      11 -78.6201      12 -78.6451      13 -78.6201      14 -78.6199      15 -78.6177
      16 -78.6452      17 -78.6177      18 -78.6178      19 -78.6153      20 -78.9501
      21 -78.9500      22 -78.6040      23 -78.9501      24 -78.6039      25 -78.6154
      26 -78.6155      27 -78.6040      28 -78.4155      29 -78.5643      30 -78.5643
      31 -78.5644      32 -78.5642      33 -78.5645      34 -78.5644      35 -78.3848
      36 -42.5620      37 -77.2101      38 -41.5149
 
 
 
 E-fermi :   0.4821     XC(G=0):  -5.2783     alpha+bet : -4.9594

 Fermi energy:         0.4820918019

 k-point     1 :       0.0000    0.0000    0.0000
  band No.  band energies     occupation 
      1     -20.7346      2.00000
      2      -9.3011      2.00000
      3      -6.6759      2.00000
      4      -5.8342      2.00000
      5      -5.6399      2.00000
      6      -5.4687      2.00000
      7      -5.4616      2.00000
      8      -5.4616      2.00000
      9      -5.4172      2.00000
     10      -5.3937      2.00000
     11      -5.3937      2.00000
     12      -5.3624      2.00000
     13      -5.3510      2.00000
     14      -5.3382      2.00000
     15      -5.3382      2.00000
     16      -5.3290      2.00000
     17      -5.3208      2.00000
     18      -5.3207      2.00000
     19      -5.2653      2.00000
     20      -5.2653      2.00000
     21      -5.2014      2.00000
     22      -5.1675      2.00000
     23      -5.1570      2.00000
     24      -5.1569      2.00000
     25      -5.0440      2.00000
     26      -5.0333      2.00000
     27      -5.0332      2.00000
     28      -5.0278      2.00000
     29      -5.0007      2.00000
     30      -5.0007      2.00000
     31      -4.9682      2.00000
     32      -4.9583      2.00000
     33      -4.9583      2.00000
     34      -4.9374      2.00000
     35      -4.9207      2.00000
     36      -4.9207      2.00000
     37      -4.8982      2.00000
     38      -4.8982      2.00000
     39      -4.8922      2.00000
     40      -4.8525      2.00000
     41      -4.8234      2.00000
     42      -4.8234      2.00000
     43      -4.8063      2.00000
     44      -4.8063      2.00000
     45      -4.6116      2.00000
     46      -4.6116      2.00000
     47      -4.6021      2.00000
     48      -4.5982      2.00000
     49      -4.5831      2.00000
     50      -4.5831      2.00000
     51      -4.5728      2.00000
     52      -4.5728      2.00000
     53      -4.5287      2.00000
     54      -4.5287      2.00000
     55      -4.4392      2.00000
     56      -4.4250      2.00000
     57      -4.4002      2.00000
     58      -4.3943      2.00000
     59      -4.2793      2.00000
     60      -4.2490      2.00000
     61      -4.2490      2.00000
     62      -4.2200      2.00000
     63      -4.2042      2.00000
     64      -4.2042      2.00000
     65      -4.1972      2.00000
     66      -4.1936      2.00000
     67      -4.1936      2.00000
     68      -4.1352      2.00000
     69      -4.1352      2.00000
     70      -4.0572      2.00000
     71      -4.0572      2.00000
     72      -4.0500      2.00000
     73      -4.0499      2.00000
     74      -4.0499      2.00000
     75      -4.0489      2.00000
     76      -4.0347      2.00000
     77      -4.0347      2.00000
     78      -4.0160      2.00000
     79      -4.0160      2.00000
     80      -4.0084      2.00000
     81      -4.0067      2.00000
     82      -3.9896      2.00000
     83      -3.9896      2.00000
     84      -3.9420      2.00000
     85      -3.9420      2.00000
     86      -3.9191      2.00000
     87      -3.9191      2.00000
     88      -3.8978      2.00000
     89      -3.8546      2.00000
     90      -3.8546      2.00000
     91      -3.8236      2.00000
     92      -3.8234      2.00000
     93      -3.8234      2.00000
     94      -3.8140      2.00000
     95      -3.8140      2.00000
     96      -3.7432      2.00000
     97      -3.7102      2.00000
     98      -3.7102      2.00000
     99      -3.6907      2.00000
    100      -3.6907      2.00000
    101      -3.6445      2.00000
    102      -3.6445      2.00000
    103      -3.5398      2.00000
    104      -3.5398      2.00000
    105      -3.5279      2.00000
    106      -3.5148      2.00000
    107      -3.5148      2.00000
    108      -3.4790      2.00000
    109      -3.4789      2.00000
    110      -3.4550      2.00000
    111      -3.4437      2.00000
    112      -3.4285      2.00000
    113      -3.4285      2.00000
    114      -3.3951      2.00000
    115      -3.3566      2.00000
    116      -3.3441      2.00000
    117      -3.3441      2.00000
    118      -3.3226      2.00000
    119      -3.2608      2.00000
    120      -3.2607      2.00000
    121      -3.2207      2.00000
    122      -3.2207      2.00000
    123      -3.1817      2.00000
    124      -3.1817      2.00000
    125      -3.1498      2.00000
    126      -3.1473      2.00000
    127      -3.1293      2.00000
    128      -3.1293      2.00000
    129      -3.1170      2.00000
    130      -3.1170      2.00000
    131      -3.1064      2.00000
    132      -3.1027      2.00000
    133      -3.1027      2.00000
    134      -3.0969      2.00000
    135      -3.0968      2.00000
    136      -3.0968      2.00000
    137      -3.0055      2.00000
    138      -3.0055      2.00000
    139      -2.9693      2.00000
    140      -2.9692      2.00000
    141      -2.9643      2.00000
    142      -2.9335      2.00000
    143      -2.9192      2.00000
    144      -2.9192      2.00000
    145      -2.9148      2.00000
    146      -2.8880      2.00000
    147      -2.8880      2.00000
    148      -2.8697      2.00000
    149      -2.8665      2.00000
    150      -2.8493      2.00000
    151      -2.8492      2.00000
    152      -2.8399      2.00000
    153      -2.8259      2.00000
    154      -2.8086      2.00000
    155      -2.8085      2.00000
    156      -2.8044      2.00000
    157      -2.7972      2.00000
    158      -2.7930      2.00000
    159      -2.7930      2.00000
    160      -2.7644      2.00000
    161      -2.7644      2.00000
    162      -2.7535      2.00000
    163      -2.7041      2.00000
    164      -2.7041      2.00000
    165      -2.7014      2.00000
    166      -2.6805      2.00000
    167      -2.6747      2.00000
    168      -2.6747      2.00000
    169      -2.6733      2.00000
    170      -2.6718      2.00000
    171      -2.6682      2.00000
    172      -2.6682      2.00000
    173      -2.6226      2.00000
    174      -2.6226      2.00000
    175      -2.5974      2.00000
    176      -2.5974      2.00000
    177      -2.5297      2.00000
    178      -2.5288      2.00000
    179      -2.5287      2.00000
    180      -2.5023      2.00000
    181      -2.5022      2.00000
    182      -2.5000      2.00000
    183      -2.4392      2.00000
    184      -2.4075      2.00000
    185      -2.4075      2.00000
    186      -2.3929      2.00000
    187      -2.3928      2.00000
    188      -2.3838      2.00000
    189      -1.6761      2.00000
    190      -1.6761      2.00000
    191      -1.6326      2.00000
    192      -1.6211      2.00000
    193      -1.6210      2.00000
    194      -1.6156      2.00000
    195      -0.5308      2.00000
    196      -0.2513      2.00000
    197      -0.0146      2.00000
    198      -0.0146      2.00000
    199       0.0893      2.00000
    200       0.1180      2.00000
    201       0.1181      2.59815
    202       0.7832      0.00000
    203       0.8145      0.00000
    204       0.8145      0.00000
    205       1.2912      0.00000
    206       1.2912      0.00000
    207       1.6563      0.00000
    208       2.2821      0.00000
    209       2.2862      0.00000
    210       2.2863      0.00000
    211       2.7504      0.00000
    212       2.7504      0.00000
    213       3.3770      0.00000
    214       3.6809      0.00000
    215       3.7912      0.00000
    216       3.9611      0.00000
    217       3.9611      0.00000
    218       4.0415      0.00000
    219       4.0415      0.00000
    220       4.4254      0.00000
    221       4.5307      0.00000
    222       4.6086      0.00000
    223       4.6086      0.00000
    224       4.6418      0.00000
    225       4.7113      0.00000
    226       4.7113      0.00000
    227       4.7807      0.00000
    228       4.7807      0.00000
    229       4.8457      0.00000
    230       4.9185      0.00000
    231       5.0935      0.00000
    232       5.0935      0.00000
    233       5.1285      0.00000
    234       5.3665      0.00000
    235       5.6083      0.00000
    236       6.1698      0.00000
    237       6.2940      0.00000
    238       6.3095      0.00000
    239       6.3896      0.00000
    240       6.4235      0.00000

 k-point     2 :       0.1250    0.0000    0.0000
  band No.  band energies     occupation 
      1     -20.7346      2.00000
      2      -9.3009      2.00000
      3      -6.6305      2.00000
      4      -5.7940      2.00000
      5      -5.6161      2.00000
      6      -5.4946      2.00000
      7      -5.4608      2.00000
      8      -5.4508      2.00000
      9      -5.4258      2.00000
     10      -5.3959      2.00000
     11      -5.3806      2.00000
     12      -5.3682      2.00000
     13      -5.3504      2.00000
     14      -5.3315      2.00000
     15      -5.3307      2.00000
     16      -5.3066      2.00000
     17      -5.2795      2.00000
     18      -5.2768      2.00000
     19      -5.2666      2.00000
     20      -5.2574      2.00000
     21      -5.2332      2.00000
     22      -5.1412      2.00000
     23      -5.1369      2.00000
     24      -5.1000      2.00000
     25      -5.0743      2.00000
     26      -5.0498      2.00000
     27      -5.0482      2.00000
     28      -5.0279      2.00000
     29      -5.0153      2.00000
     30      -5.0125      2.00000
     31      -4.9970      2.00000
     32      -4.9630      2.00000
     33      -4.9462      2.00000
     34      -4.9268      2.00000
     35      -4.9182      2.00000
     36      -4.9048      2.00000
     37      -4.8953      2.00000
     38      -4.8602      2.00000
     39      -4.8447      2.00000
     40      -4.8309      2.00000
     41      -4.8295      2.00000
     42      -4.7851      2.00000
[...]
  0.000   0.000   0.000   0.000   0.000   0.000   0.000   0.000   0.000   0.000   0.000   0.000   0.000   0.000   0.000   0.000
  0.000   0.000   0.000   0.000   0.000   0.000   0.000   0.000   0.000   0.000   0.000   0.000   0.000   0.000   0.000   0.000
  0.000   0.000   0.000   0.000   0.000   0.000   0.000   0.000   0.000   0.000   1.000   0.000   0.000   0.000   0.000   0.000
  0.000   0.000   0.000   0.000   0.000   0.000   0.000   0.000   0.000   0.000   0.000   0.000   0.000   0.000   0.000   0.000
  0.000   0.000   0.000   0.000   0.000   0.000   0.000   0.000   0.000   0.000   0.000   0.000   0.000   0.000   0.000   0.000
  0.000   0.000   0.000   0.000   0.000   0.000   0.000   0.000   0.000   0.000   0.000   0.000   0.000   0.000   0.000   0.000
  0.000   0.000   0.000   0.000   0.000   0.000   0.000   0.000   0.000   0.000   0.000   0.000   0.000   0.000   0.000   0.000
  0.000   0.000   0.000   0.000   0.000   0.000   0.000   0.000   0.000   0.000   0.000   0.000   0.000   0.000   0.000   0.000
  0.000   0.000   0.000   0.000   0.000   0.000   0.000   0.000   0.000   0.000   0.000   0.000   0.000   0.000   0.000   0.000
  0.000   0.000   0.000   0.000   0.000   0.000   0.000   0.000   0.000   0.000   0.000   0.000   0.000   0.000   0.000   0.000


------------------------ aborting loop because EDIFF is reached ----------------------------------------





 total charge

# of ion       s       p       d       tot
------------------------------------------
    1        0.423   0.199   9.177   9.799
    2        0.416   0.204   9.177   9.796
    3        0.416   0.204   9.177   9.796
    4        0.416   0.204   9.177   9.796
    5        0.417   0.202   9.177   9.796
    6        0.416   0.204   9.177   9.796
    7        0.416   0.204   9.177   9.796
    8        0.416   0.204   9.177   9.796
    9        0.415   0.204   9.177   9.795
   10        0.411   0.268   9.163   9.842
   11        0.404   0.271   9.168   9.842
   12        0.411   0.268   9.163   9.842
   13        0.404   0.271   9.168   9.842
   14        0.404   0.271   9.168   9.842
   15        0.402   0.268   9.165   9.835
   16        0.411   0.268   9.163   9.842
   17        0.402   0.268   9.165   9.835
   18        0.402   0.268   9.165   9.835
   19        0.403   0.262   9.167   9.832
   20        0.448   0.311   9.126   9.885
   21        0.448   0.311   9.126   9.885
   22        0.392   0.272   9.164   9.828
   23        0.448   0.311   9.126   9.885
   24        0.392   0.272   9.164   9.828
   25        0.403   0.262   9.167   9.832
   26        0.403   0.262   9.167   9.832
   27        0.392   0.272   9.164   9.828
   28        0.416   0.201   9.170   9.787
   29        0.438   0.224   9.155   9.817
   30        0.438   0.224   9.155   9.817
   31        0.438   0.224   9.155   9.817
   32        0.438   0.224   9.155   9.817
   33        0.438   0.224   9.155   9.817
   34        0.438   0.224   9.155   9.817
   35        0.408   0.205   9.171   9.784
   36        0.701   0.710   3.099   4.510
   37        1.558   3.564   0.000   5.122
   38        0.603   0.126   0.000   0.729
--------------------------------------------------
tot         17.444  12.934 323.820 354.198
 
    CHARGE:  cpu time    0.4443: real time    0.4443
    FORLOC:  cpu time    0.0213: real time    0.0213
    FORNL :  cpu time    1.9689: real time    1.9690
    STRESS:  cpu time    5.9114: real time    5.9119
    FORCOR:  cpu time    0.0739: real time    0.0739
    FORHAR:  cpu time    0.0318: real time    0.0318
    OFIELD:  cpu time    0.0004: real time    0.0004

  FORCE on cell =-STRESS in cart. coord.  units (eV):
  Direction    XX          YY          ZZ          XY          YZ          ZX
  --------------------------------------------------------------------------------------
  Alpha Z   667.85273   667.85273   667.85273
  Ewald  163697.83243163697.83239************     0.00001    -0.00001     0.00003
  Hartree173657.98351173657.98349************     0.00000    -0.00000     0.00001
  E(xc)   -2084.01306 -2084.01308 -2089.47291     0.00001     0.00000     0.00000
  Local  ************************348516.47394     0.00052    -0.00005    -0.00016
  n-local  -352.19815  -335.06744  -340.95561    10.51795    -0.55501     0.57381
  augment  3228.68338  3228.68352  3238.81353    -0.00014     0.00004     0.00002
  Kinetic  4971.24578  4972.74442  4957.84429     3.36678     0.98341    -0.51900
  Fock        0.00000     0.00000     0.00000     0.00000     0.00000     0.00000
  -------------------------------------------------------------------------------------
  Total      -6.85186    -6.85186    -0.25925    -0.00000    -0.00000    -0.00000
  in kB      -6.49604    -6.49604    -0.24578    -0.00000    -0.00000    -0.00000
  external pressure =       -4.41 kB  Pullay stress =        0.00 kB


 VOLUME and BASIS-vectors are now :
 -----------------------------------------------------------------------------
  energy-cutoff  :      500.00
  volume of cell :     1689.94
      direct lattice vectors                 reciprocal lattice vectors
     8.791366577  0.000000000  0.000000000     0.113747958 -0.065672414  0.000000000
     4.395683289  7.613546790  0.000000000     0.000000000  0.131344829  0.000000000
     0.000000000  0.000000000 25.247987336     0.000000000  0.000000000  0.039607117

  length of vectors
     8.791366577  8.791366577 25.247987336     0.131344829  0.131344829  0.039607117


 FORCES acting on ions
    electron-ion (+dipol)            ewald-force                    non-local-force                 convergence-correction
 -----------------------------------------------------------------------------------------------
   0.462E-04 -.280E-04 0.272E+04   -.953E-04 0.593E-04 -.272E+04   -.526E-17 0.637E-17 -.187E+01   -.115E-03 -.127E-03 -.386E-01
   0.191E-01 0.181E+00 0.272E+04   -.193E-01 -.258E+00 -.272E+04   -.867E-03 0.119E+00 -.161E+01   0.149E-02 -.358E-01 -.586E-01
   -.190E-01 0.181E+00 0.272E+04   0.194E-01 -.258E+00 -.272E+04   0.867E-03 0.119E+00 -.161E+01   -.203E-02 -.339E-01 -.579E-01
   0.166E+00 -.741E-01 0.272E+04   -.233E+00 0.112E+00 -.272E+04   0.102E+00 -.601E-01 -.161E+01   -.301E-01 0.194E-01 -.586E-01
   -.491E-05 -.183E-04 0.272E+04   0.980E-04 -.197E-05 -.272E+04   0.245E-17 0.131E-17 -.142E+01   0.622E-02 0.379E-02 0.538E-01
   -.166E+00 -.741E-01 0.272E+04   0.233E+00 0.112E+00 -.272E+04   -.102E+00 -.601E-01 -.161E+01   0.287E-01 0.203E-01 -.578E-01
   0.147E+00 -.107E+00 0.272E+04   -.214E+00 0.146E+00 -.272E+04   0.103E+00 -.586E-01 -.161E+01   -.300E-01 0.157E-01 -.579E-01
   -.147E+00 -.107E+00 0.272E+04   0.214E+00 0.146E+00 -.272E+04   -.103E+00 -.586E-01 -.161E+01   0.316E-01 0.147E-01 -.578E-01
   0.370E-04 -.126E-04 0.272E+04   0.792E-04 -.643E-04 -.272E+04   -.587E-17 -.145E-17 -.176E+01   -.664E-02 -.344E-02 -.630E-01
   0.313E+01 0.181E+01 0.910E+03   -.260E+01 -.150E+01 -.909E+03   -.503E+00 -.291E+00 -.693E+00   -.486E-01 -.279E-01 -.114E+00
   -.279E-04 0.188E+01 0.908E+03   0.400E-04 -.210E+01 -.908E+03   0.871E-12 0.133E+00 -.344E+00   0.620E-02 0.198E-02 -.164E+00
   -.313E+01 0.181E+01 0.910E+03   0.260E+01 -.150E+01 -.909E+03   0.503E+00 -.291E+00 -.693E+00   0.469E-01 -.269E-01 -.114E+00
   0.163E+01 -.942E+00 0.908E+03   -.181E+01 0.105E+01 -.908E+03   0.115E+00 -.663E-01 -.344E+00   0.470E-02 0.434E-02 -.163E+00
   -.163E+01 -.942E+00 0.908E+03   0.181E+01 0.105E+01 -.908E+03   -.115E+00 -.663E-01 -.344E+00   0.583E-02 0.327E-02 -.165E+00
   0.157E-04 -.413E+00 0.908E+03   -.108E-03 0.335E+00 -.907E+03   0.290E-12 0.442E-01 -.676E+00   -.156E-02 0.173E-01 -.108E+00
   -.744E-05 -.362E+01 0.910E+03   0.205E-04 0.300E+01 -.909E+03   0.382E-11 0.581E+00 -.693E+00   -.174E-03 0.543E-01 -.115E+00
   -.357E+00 0.206E+00 0.908E+03   0.291E+00 -.168E+00 -.907E+03   0.382E-01 -.221E-01 -.676E+00   0.145E-01 -.100E-01 -.108E+00
   0.357E+00 0.206E+00 0.908E+03   -.291E+00 -.168E+00 -.907E+03   -.382E-01 -.221E-01 -.676E+00   -.144E-01 -.829E-02 -.107E+00
   0.379E-04 -.408E+01 -.924E+03   -.127E-03 0.403E+01 0.923E+03   0.369E-12 0.562E-01 0.907E+00   0.428E-02 -.217E-01 -.166E+00
   -.207E+02 -.120E+02 -.918E+03   0.219E+02 0.127E+02 0.920E+03   -.118E+01 -.680E+00 -.858E+00   -.140E+00 -.807E-01 -.405E+00
   0.207E+02 -.120E+02 -.918E+03   -.219E+02 0.127E+02 0.920E+03   0.118E+01 -.680E+00 -.858E+00   0.150E+00 -.810E-01 -.405E+00
   -.917E+01 0.529E+01 -.921E+03   0.916E+01 -.529E+01 0.921E+03   0.231E+00 -.134E+00 0.655E+00   -.169E+00 0.103E+00 -.182E+00
   -.514E-04 0.239E+02 -.918E+03   0.379E-04 -.253E+02 0.920E+03   0.893E-11 0.136E+01 -.858E+00   -.730E-03 0.161E+00 -.406E+00
   0.917E+01 0.529E+01 -.921E+03   -.916E+01 -.529E+01 0.921E+03   -.231E+00 -.134E+00 0.655E+00   0.179E+00 0.103E+00 -.182E+00
   0.354E+01 0.204E+01 -.924E+03   -.349E+01 -.201E+01 0.923E+03   -.486E-01 -.281E-01 0.907E+00   0.252E-01 0.156E-01 -.167E+00
   -.354E+01 0.204E+01 -.924E+03   0.349E+01 -.202E+01 0.923E+03   0.486E-01 -.281E-01 0.907E+00   -.162E-01 0.157E-01 -.166E+00
   0.192E-04 -.106E+02 -.921E+03   0.109E-03 0.106E+02 0.921E+03   0.175E-11 0.267E+00 0.655E+00   0.432E-02 -.198E+00 -.181E+00
   0.538E-04 -.355E-04 -.267E+04   -.114E-03 0.768E-04 0.267E+04   0.447E-18 0.403E-17 0.137E+01   -.145E-04 0.155E-02 -.111E+00
   0.339E+01 0.399E+00 -.267E+04   -.243E+01 0.760E+00 0.266E+04   -.938E+00 -.112E+01 0.161E+01   -.157E+00 -.285E+00 -.663E-01
   -.339E+01 0.399E+00 -.267E+04   0.243E+01 0.760E+00 0.266E+04   0.938E+00 -.112E+01 0.161E+01   0.157E+00 -.283E+00 -.662E-01
   0.204E+01 0.273E+01 -.267E+04   -.554E+00 -.248E+01 0.266E+04   -.143E+01 -.254E+00 0.161E+01   -.331E+00 -.344E-02 -.665E-01
   -.204E+01 0.273E+01 -.267E+04   0.554E+00 -.248E+01 0.266E+04   0.143E+01 -.254E+00 0.161E+01   0.320E+00 -.274E-02 -.661E-01
   -.135E+01 -.313E+01 -.267E+04   0.187E+01 0.172E+01 0.266E+04   -.497E+00 0.137E+01 0.161E+01   -.168E+00 0.279E+00 -.662E-01
   0.135E+01 -.313E+01 -.267E+04   -.187E+01 0.172E+01 0.266E+04   0.497E+00 0.137E+01 0.161E+01   0.169E+00 0.278E+00 -.655E-01
   0.246E-04 -.123E-04 -.268E+04   0.104E-03 -.654E-04 0.268E+04   0.369E-17 -.469E-17 0.165E+01   -.644E-02 -.200E-02 -.120E+00
   -.134E-04 -.228E-05 -.105E+04   0.479E-04 0.590E-05 0.105E+04   0.142E-18 -.564E-19 0.233E+00   0.818E-03 -.673E-04 -.372E-01
   0.197E-03 -.928E-04 -.166E+04   0.270E-04 0.336E-06 0.164E+04   -.134E-18 -.480E-18 0.182E+02   0.387E-02 0.184E-02 0.259E+00
   0.812E-05 -.128E-04 -.344E+03   0.192E-05 0.651E-08 0.352E+03   0.708E-19 0.111E-19 -.856E+01   0.218E-03 0.898E-04 0.265E-01
 -----------------------------------------------------------------------------------------------
   0.565E-03 -.780E-03 -.498E+00   0.163E-12 0.103E-12 0.239E-11   0.170E-15 0.439E-15 0.483E+01   0.371E-01 0.952E-02 -.419E+01
 
 
 POSITION                                       TOTAL-FORCE (eV/Angst)
 -----------------------------------------------------------------------------------
      0.00000      0.00000      5.28219         0.000000     -0.000000     -0.036511
      2.93046      0.00000      5.28219         0.000988      0.007066      0.034040
      5.86091      0.00000      5.28219        -0.000988      0.007066      0.034040
      1.46523      2.53785      5.28219         0.006614     -0.002677      0.034040
      4.39568      2.53785      5.28219         0.000000      0.000000      0.021227
      7.32614      2.53785      5.28219        -0.006614     -0.002677      0.034040
      2.93046      5.07570      5.28219         0.005625     -0.004389      0.034040
      5.86091      5.07570      5.28219        -0.005625     -0.004389      0.034040
      8.79137      5.07570      5.28219         0.000000     -0.000000      0.014472
      1.46523      0.84595      7.67490        -0.015709     -0.009070     -0.040843
      4.39568      0.84595      7.67490        -0.000000     -0.078902     -0.070634
      7.32614      0.84595      7.67490         0.015709     -0.009070     -0.040843
      2.93046      3.38380      7.67490        -0.068331      0.039451     -0.070634
      5.86091      3.38380      7.67490         0.068331      0.039451     -0.070634
      8.79137      3.38380      7.67490        -0.000000     -0.015831      0.053483
      4.39568      5.92165      7.67490         0.000000      0.018139     -0.040843
      7.32614      5.92165      7.67490        -0.013710      0.007916      0.053483
     10.25659      5.92165      7.67490         0.013710      0.007916      0.053483
      8.79137      1.69476     10.06939        -0.000000     -0.020283     -0.006812
      2.92162      1.68680     10.02387        -0.099234     -0.057293     -0.128342
      5.86975      1.68680     10.02387         0.099234     -0.057293     -0.128342
     10.25272      4.23198     10.06895         0.047343     -0.027334      0.019265
      4.39568      4.23995     10.02387         0.000000      0.114586     -0.128342
      7.33001      4.23198     10.06895        -0.047343     -0.027334      0.019265
     11.71935      6.76617     10.06939         0.017566      0.010142     -0.006812
      5.86339      6.76617     10.06939        -0.017566      0.010142     -0.006812
      8.79137      6.76312     10.06895         0.000000      0.054667      0.019265
      0.00000      0.00000     12.45783         0.000000      0.000000     -0.002840
      2.95723      0.04373     12.49962        -0.134863     -0.239264     -0.242125
      5.83413      0.04373     12.49962         0.134863     -0.239264     -0.242125
      1.51649      2.53918     12.49962        -0.274640      0.002838     -0.242125
      7.27488      2.53918     12.49962         0.274640      0.002838     -0.242125
      2.95494      5.03064     12.49962        -0.139778      0.236427     -0.242125
      5.83643      5.03064     12.49962         0.139778      0.236427     -0.242125
      8.79137      5.07570     12.47105         0.000000      0.000000      0.027086
      4.39568      2.53785     12.22632         0.000000      0.000000      1.742551
      4.39568      2.53785     14.09277         0.000000      0.000000      0.012790
      4.39568      2.53785     15.05849         0.000000     -0.000000     -0.008614
 -----------------------------------------------------------------------------------
    total drift:                                0.037671      0.008737      0.136203


--------------------------------------------------------------------------------------------------------



  FREE ENERGIE OF THE ION-ELECTRON SYSTEM (eV)
  ---------------------------------------------------
  free  energy   TOTEN  =      -110.31552394 eV

  energy  without entropy=     -110.31552394  energy(sigma->0) =     -110.31552394
 


--------------------------------------------------------------------------------------------------------


    POTLOK:  cpu time    0.0657: real time    0.0657


--------------------------------------------------------------------------------------------------------


 stress matrix after NEB project (eV)
     -6.85186     -0.00000     -0.00000
     -0.00000     -6.85186      0.00000
     -0.00000     -0.00000     -0.25925
  FORCES: max atom, RMS     0.012790    0.002502
  FORCE total and by dimension    0.015420    0.012790
  Stress total and by dimension    9.693455    6.851856
     LOOP+:  cpu time   92.7647: real time   92.7784
 -----------------------------------------------------------------------------
|                                                                             |
|           W    W    AA    RRRRR   N    N  II  N    N   GGGG   !!!           |
|           W    W   A  A   R    R  NN   N  II  NN   N  G    G  !!!           |
|           W    W  A    A  R    R  N N  N  II  N N  N  G       !!!           |
|           W WW W  AAAAAA  RRRRR   N  N N  II  N  N N  G  GGG   !            |
|           WW  WW  A    A  R   R   N   NN  II  N   NN  G    G                |
|           W    W  A    A  R    R  N    N  II  N    N   GGGG   !!!           |
|                                                                             |
|     Tetrahedron method does not include variations of the Fermi             |
|     occupations, so forces and stress will be inaccurate. We suggest        |
|     using a different smearing scheme ISMEAR = 1 or 2 for metals in         |
|     relaxations.                                                            |
|                                                                             |
 -----------------------------------------------------------------------------

    4ORBIT:  cpu time    0.0000: real time    0.0000



 total charge

# of ion       s       p       d       tot
------------------------------------------
    1        0.423   0.199   9.177   9.799
    2        0.416   0.204   9.177   9.796
    3        0.416   0.204   9.177   9.796
    4        0.416   0.204   9.177   9.796
    5        0.417   0.202   9.177   9.796
    6        0.416   0.204   9.177   9.796
    7        0.416   0.204   9.177   9.796
    8        0.416   0.204   9.177   9.796
    9        0.415   0.204   9.177   9.795
   10        0.411   0.268   9.163   9.842
   11        0.404   0.271   9.168   9.842
   12        0.411   0.268   9.163   9.842
   13        0.404   0.271   9.168   9.842
   14        0.404   0.271   9.168   9.842
   15        0.402   0.268   9.165   9.835
   16        0.411   0.268   9.163   9.842
   17        0.402   0.268   9.165   9.835
   18        0.402   0.268   9.165   9.835
   19        0.403   0.262   9.167   9.832
   20        0.448   0.311   9.126   9.885
   21        0.448   0.311   9.126   9.885
   22        0.392   0.272   9.164   9.828
   23        0.448   0.311   9.126   9.885
   24        0.392   0.272   9.164   9.828
   25        0.403   0.262   9.167   9.832
   26        0.403   0.262   9.167   9.832
   27        0.392   0.272   9.164   9.828
   28        0.416   0.201   9.170   9.787
   29        0.438   0.224   9.155   9.817
   30        0.438   0.224   9.155   9.817
   31        0.438   0.224   9.155   9.817
   32        0.438   0.224   9.155   9.817
   33        0.438   0.224   9.155   9.817
   34        0.438   0.224   9.155   9.817
   35        0.408   0.205   9.171   9.784
   36        0.701   0.710   3.099   4.510
   37        1.558   3.564   0.000   5.122
   38        0.603   0.126   0.000   0.729
--------------------------------------------------
tot         17.444  12.934 323.820 354.198
 
 BZINTS: Fermi energy:    0.482092;  397.000000 electrons
         Band energy:-0.149481E+04;  BLOECHL correction:   -0.028062

 total amount of memory used by VASP MPI-rank0   182073. kBytes
=======================================================================

   base      :      30000. kBytes
   nonlr-proj:      15435. kBytes
   fftplans  :       6755. kBytes
   grid      :      24615. kBytes
   one-center:        590. kBytes
   wavefun   :     104678. kBytes
 
  
  
 General timing and accounting informations for this job:
 ========================================================
  
                  Total CPU time used (sec):      100.816
                            User time (sec):       97.505
                          System time (sec):        3.311
                         Elapsed time (sec):      101.110
  
                   Maximum memory used (kb):      437904.
                   Average memory used (kb):          N/A
  
                          Minor page faults:        81223
                          Major page faults:            0
                 Voluntary context switches:         3733
