PROCAR new format
# of k-points:   10         # of bands:  240         # of ions:   38

 k-point     1 :    0.00000000 0.00000000 0.00000000     weight = 0.01562500

band     1 # energy  -20.73461481 # occ.  2.00000000
 
ion      s      p      d    tot
    1  0.000  0.000  0.000  0.000
    2  0.000  0.000  0.000  0.000
    3  0.000  0.000  0.000  0.000
    4  0.000  0.000  0.000  0.000
    5  0.000  0.000  0.000  0.000
    6  0.000  0.000  0.000  0.000
    7  0.000  0.000  0.000  0.000
    8  0.000  0.000  0.000  0.000
    9  0.000  0.000  0.000  0.000
   10  0.000  0.000  0.000  0.000
   11  0.000  0.000  0.000  0.000
   12  0.000  0.000  0.000  0.000
   13  0.000  0.000  0.000  0.000
   14  0.000  0.000  0.000  0.000
   15  0.000  0.000  0.000  0.000
   16  0.000  0.000  0.000  0.000
   17  0.000  0.000  0.000  0.000
   18  0.000  0.000  0.000  0.000
   19  0.000  0.000  0.000  0.000
   20  0.000  0.000  0.000  0.000
   21  0.000  0.000  0.000  0.000
   22  0.000  0.000  0.000  0.000
   23  0.000  0.000  0.000  0.000
   24  0.000  0.000  0.000  0.000
   25  0.000  0.000  0.000  0.000
   26  0.000  0.000  0.000  0.000
   27  0.000  0.000  0.000  0.000
   28  0.000  0.000  0.000  0.000
   29  0.000  0.000  0.000  0.000
   30  0.000  0.000  0.000  0.000
   31  0.000  0.000  0.000  0.000
   32  0.000  0.000  0.000  0.000
   33  0.000  0.000  0.000  0.000
   34  0.000  0.000  0.000  0.000
   35  0.000  0.000  0.000  0.000
   36  0.015  0.026  0.045  0.085
   37  0.746  0.014  0.000  0.760
   38  0.115  0.024  0.000  0.138
tot    0.876  0.064  0.045  0.984
 
band     2 # energy   -9.30109441 # occ.  2.00000000
 
ion      s      p      d    tot
    1  0.000  0.000  0.000  0.000
    2  0.000  0.000  0.000  0.000
    3  0.000  0.000  0.000  0.000
    4  0.000  0.000  0.000  0.000
    5  0.000  0.000  0.000  0.000
    6  0.000  0.000  0.000  0.000
    7  0.000  0.000  0.000  0.000
    8  0.000  0.000  0.000  0.000
    9  0.000  0.000  0.000  0.000
   10  0.000  0.000  0.000  0.000
   11  0.000  0.000  0.000  0.000
   12  0.000  0.000  0.000  0.000
   13  0.000  0.000  0.000  0.000
   14  0.000  0.000  0.000  0.000
   15  0.000  0.000  0.000  0.000
   16  0.000  0.000  0.000  0.000
   17  0.000  0.000  0.000  0.000
   18  0.000  0.000  0.000  0.000
   19  0.000  0.000  0.000  0.000
   20  0.001  0.001  0.002  0.004
   21  0.001  0.001  0.002  0.004
   22  0.000  0.000  0.000  0.000
   23  0.001  0.001  0.002  0.004
   24  0.000  0.000  0.000  0.000
   25  0.000  0.000  0.000  0.000
   26  0.000  0.000  0.000  0.000
   27  0.000  0.000  0.000  0.000
   28  0.000  0.000  0.000  0.000
   29  0.000  0.000  0.000  0.000
   30  0.000  0.000  0.000  0.000
   31  0.000  0.000  0.000  0.000
   32  0.000  0.000  0.000  0.000
   33  0.000  0.000  0.000  0.000
   34  0.000  0.000  0.000  0.000
   35  0.000  0.000  0.000  0.000
   36  0.082  0.052  0.181  0.315
   37  0.024  0.538  0.000  0.561
   38  0.178  0.019  0.000  0.197
tot    0.288  0.611  0.188  1.087
 
band     3 # energy   -6.67594444 # occ.  2.00000000
 
ion      s      p      d    tot
    1  0.006  0.001  0.000  0.006
    2  0.005  0.001  0.000  0.006
    3  0.005  0.001  0.000  0.006
    4  0.005  0.001  0.000  0.006
    5  0.005  0.001  0.000  0.006
    6  0.005  0.001  0.000  0.006
    7  0.005  0.001  0.000  0.006
    8  0.005  0.001  0.000  0.006
    9  0.005  0.000  0.000  0.006
   10  0.022  0.000  0.000  0.022
   11  0.022  0.000  0.000  0.023
   12  0.022  0.000  0.000  0.022
   13  0.022  0.000  0.000  0.023
   14  0.022  0.000  0.000  0.023
   15  0.020  0.000  0.000  0.021
   16  0.022  0.000  0.000  0.022
   17  0.020  0.000  0.000  0.021
   18  0.020  0.000  0.000  0.021
   19  0.022  0.000  0.000  0.022
   20  0.028  0.000  0.000  0.028
   21  0.028  0.000  0.000  0.028
   22  0.022  0.000  0.000  0.022
   23  0.028  0.000  0.000  0.028
   24  0.022  0.000  0.000  0.022
   25  0.022  0.000  0.000  0.022
   26  0.022  0.000  0.000  0.022
   27  0.022  0.000  0.000  0.022
   28  0.006  0.000  0.000  0.006
   29  0.007  0.001  0.000  0.008
   30  0.007  0.001  0.000  0.008
   31  0.007  0.001  0.000  0.008
   32  0.007  0.001  0.000  0.008
   33  0.007  0.001  0.000  0.008
   34  0.007  0.001  0.000  0.008
   35  0.006  0.000  0.000  0.006
   36  0.014  0.006  0.004  0.025
   37  0.001  0.004  0.000  0.005
   38  0.001  0.000  0.000  0.001
tot    0.522  0.022  0.012  0.556
 
band     4 # energy   -5.83419689 # occ.  2.00000000
 
ion      s      p      d    tot
    1  0.009  0.000  0.001  0.010
    2  0.010  0.000  0.001  0.011
    3  0.010  0.000  0.001  0.011
    4  0.010  0.000  0.001  0.011
    5  0.010  0.000  0.001  0.011
    6  0.010  0.000  0.001  0.011
    7  0.010  0.000  0.001  0.011
    8  0.010  0.000  0.001  0.011
    9  0.010  0.001  0.001  0.012
   10  0.012  0.001  0.012  0.025
   11  0.012  0.001  0.010  0.024
   12  0.012  0.001  0.012  0.025
   13  0.012  0.001  0.010  0.024
   14  0.012  0.001  0.010  0.024
   15  0.014  0.001  0.009  0.024
   16  0.012  0.001  0.012  0.025
   17  0.014  0.001  0.009  0.024
   18  0.014  0.001  0.009  0.024
   19  0.005  0.001  0.009  0.015
   20  0.012  0.002  0.009  0.022
   21  0.012  0.002  0.009  0.022
   22  0.006  0.001  0.008  0.015
   23  0.012  0.002  0.009  0.022
   24  0.006  0.001  0.008  0.015
   25  0.005  0.001  0.009  0.015
   26  0.005  0.001  0.009  0.015
   27  0.006  0.001  0.008  0.015
   28  0.008  0.000  0.002  0.010
   29  0.011  0.001  0.005  0.016
   30  0.011  0.001  0.005  0.016
   31  0.011  0.001  0.005  0.016
   32  0.011  0.001  0.005  0.016
   33  0.011  0.001  0.005  0.016
   34  0.011  0.001  0.005  0.016
   35  0.007  0.000  0.001  0.009
   36  0.032  0.006  0.009  0.047
   37  0.001  0.003  0.000  0.005
   38  0.001  0.000  0.000  0.001
tot    0.389  0.037  0.217  0.644
 
band     5 # energy   -5.63992751 # occ.  2.00000000
 
ion      s      p      d    tot
    1  0.000  0.000  0.006  0.006
    2  0.001  0.000  0.002  0.003
    3  0.001  0.000  0.002  0.003
    4  0.001  0.000  0.002  0.003
    5  0.001  0.000  0.001  0.002
    6  0.001  0.000  0.002  0.003
    7  0.001  0.000  0.002  0.003
    8  0.001  0.000  0.002  0.003
    9  0.002  0.000  0.001  0.003
   10  0.001  0.000  0.018  0.019
   11  0.000  0.000  0.013  0.014
   12  0.001  0.000  0.018  0.019
   13  0.000  0.000  0.013  0.014
   14  0.000  0.000  0.013  0.014
   15  0.000  0.000  0.007  0.007
   16  0.001  0.000  0.018  0.019
   17  0.000  0.000  0.007  0.007
   18  0.000  0.000  0.007  0.007
   19  0.007  0.000  0.019  0.026
   20  0.001  0.001  0.080  0.082
   21  0.001  0.001  0.080  0.082
   22  0.003  0.000  0.015  0.018
   23  0.001  0.001  0.080  0.082
   24  0.003  0.000  0.015  0.018
   25  0.007  0.000  0.019  0.026
   26  0.007  0.000  0.019  0.026
   27  0.003  0.000  0.015  0.018
   28  0.002  0.000  0.011  0.013
   29  0.008  0.000  0.027  0.036
   30  0.008  0.000  0.027  0.036
   31  0.008  0.000  0.027  0.036
   32  0.008  0.000  0.027  0.036
   33  0.008  0.000  0.027  0.036
   34  0.008  0.000  0.027  0.036
   35  0.003  0.000  0.011  0.014
   36  0.043  0.000  0.026  0.069
   37  0.000  0.001  0.000  0.001
   38  0.000  0.000  0.000  0.000
tot    0.143  0.007  0.687  0.837
 
band     6 # energy   -5.46866614 # occ.  2.00000000
 
ion      s      p      d    tot
    1  0.008  0.001  0.000  0.009
    2  0.000  0.000  0.004  0.005
    3  0.000  0.000  0.004  0.005
    4  0.000  0.000  0.004  0.005
    5  0.000  0.000  0.001  0.002
    6  0.000  0.000  0.004  0.005
    7  0.000  0.000  0.004  0.005
    8  0.000  0.000  0.004  0.005
    9  0.000  0.000  0.001  0.001
   10  0.005  0.000  0.027  0.032
   11  0.000  0.000  0.013  0.013
   12  0.005  0.000  0.027  0.032
   13  0.000  0.000  0.013  0.013
   14  0.000  0.000  0.013  0.013
   15  0.003  0.001  0.001  0.005
   16  0.005  0.000  0.027  0.032
   17  0.003  0.001  0.001  0.005
   18  0.003  0.001  0.001  0.005
   19  0.000  0.001  0.034  0.035
   20  0.006  0.000  0.127  0.132
   21  0.005  0.000  0.126  0.132
   22  0.016  0.000  0.005  0.021
   23  0.006  0.000  0.127  0.132
   24  0.016  0.000  0.005  0.021
   25  0.000  0.001  0.034  0.035
   26  0.000  0.001  0.035  0.036
   27  0.016  0.000  0.005  0.021
   28  0.001  0.000  0.000  0.002
   29  0.001  0.000  0.004  0.005
   30  0.001  0.000  0.004  0.005
   31  0.001  0.000  0.004  0.005
   32  0.001  0.000  0.004  0.005
   33  0.001  0.000  0.004  0.005
   34  0.001  0.000  0.004  0.005
   35  0.008  0.001  0.001  0.010
   36  0.006  0.014  0.002  0.021
   37  0.001  0.004  0.000  0.005
   38  0.002  0.000  0.000  0.002
tot    0.121  0.029  0.677  0.828
 
band     7 # energy   -5.46157904 # occ.  2.00000000
 
ion      s      p      d    tot
    1  0.000  0.000  0.006  0.006
    2  0.000  0.000  0.002  0.002
    3  0.000  0.000  0.002  0.002
    4  0.001  0.000  0.002  0.002
    5  0.000  0.000  0.002  0.002
    6  0.000  0.000  0.002  0.002
    7  0.001  0.000  0.001  0.002
    8  0.000  0.000  0.001  0.002
    9  0.000  0.000  0.001  0.001
   10  0.004  0.001  0.016  0.021
   11  0.000  0.001  0.022  0.023
   12  0.007  0.001  0.016  0.023
   13  0.001  0.000  0.013  0.014
   14  0.000  0.000  0.017  0.018
   15  0.000  0.000  0.006  0.006
   16  0.000  0.001  0.016  0.017
   17  0.002  0.000  0.007  0.009
   18  0.001  0.000  0.006  0.008
   19  0.001  0.001  0.019  0.021
   20  0.017  0.000  0.083  0.100
   21  0.027  0.000  0.026  0.053
   22  0.000  0.001  0.027  0.028
   23  0.001  0.000  0.166  0.167
   24  0.000  0.001  0.030  0.031
   25  0.010  0.001  0.027  0.037
   26  0.016  0.000  0.032  0.048
   27  0.000  0.001  0.035  0.036
   28  0.000  0.000  0.003  0.004
   29  0.000  0.000  0.006  0.007
   30  0.000  0.001  0.007  0.008
   31  0.000  0.000  0.011  0.012
   32  0.000  0.001  0.010  0.011
   33  0.000  0.000  0.010  0.010
   34  0.000  0.000  0.008  0.008
   35  0.000  0.000  0.001  0.001
   36  0.000  0.001  0.039  0.039
   37  0.000  0.034  0.000  0.034
   38  0.000  0.000  0.000  0.000
tot    0.091  0.048  0.677  0.815
 
band     8 # energy   -5.46156495 # occ.  2.00000000
 
ion      s      p      d    tot
    1  0.000  0.000  0.006  0.006
    2  0.001  0.000  0.002  0.002
    3  0.001  0.000  0.001  0.002
    4  0.000  0.000  0.002  0.002
    5  0.000  0.000  0.002  0.002
    6  0.000  0.000  0.001  0.002
    7  0.000  0.000  0.002  0.002
    8  0.000  0.000  0.002  0.002
    9  0.000  0.000  0.001  0.001
   10  0.003  0.001  0.016  0.020
   11  0.001  0.000  0.013  0.013
   12  0.001  0.001  0.016  0.017
   13  0.000  0.001  0.022  0.022
   14  0.000  0.001  0.018  0.019
   15  0.002  0.000  0.007  0.010
   16  0.007  0.001  0.015  0.024
   17  0.000  0.000  0.006  0.006
   18  0.001  0.000  0.006  0.007
   19  0.017  0.000  0.033  0.050
   20  0.014  0.000  0.100  0.114
   21  0.003  0.000  0.157  0.160
   22  0.000  0.001  0.034  0.035
   23  0.029  0.000  0.017  0.047
   24  0.000  0.001  0.031  0.032
   25  0.008  0.001  0.025  0.034
   26  0.002  0.001  0.020  0.023
   27  0.000  0.001  0.026  0.027
   28  0.000  0.000  0.003  0.004
   29  0.000  0.000  0.011  0.012
   30  0.000  0.000  0.010  0.011
   31  0.000  0.000  0.006  0.007
   32  0.000  0.000  0.007  0.008
   33  0.000  0.001  0.007  0.009
   34  0.000  0.001  0.010  0.011
   35  0.000  0.000  0.001  0.001
   36  0.000  0.001  0.039  0.040
   37  0.000  0.034  0.000  0.034
   38  0.000  0.000  0.000  0.000
tot    0.091  0.048  0.677  0.815
 
band     9 # energy   -5.41724921 # occ.  2.00000000
 
ion      s      p      d    tot
    1  0.016  0.000  0.014  0.030
    2  0.012  0.000  0.026  0.038
    3  0.012  0.000  0.026  0.038
    4  0.012  0.000  0.026  0.038
    5  0.015  0.000  0.034  0.050
    6  0.012  0.000  0.026  0.038
    7  0.012  0.000  0.026  0.038
    8  0.012  0.000  0.026  0.038
    9  0.008  0.000  0.026  0.034
   10  0.000  0.001  0.015  0.015
   11  0.002  0.000  0.037  0.039
   12  0.000  0.001  0.015  0.015
   13  0.002  0.000  0.037  0.039
   14  0.002  0.000  0.037  0.039
   15  0.003  0.000  0.025  0.028
   16  0.000  0.001  0.015  0.015
   17  0.003  0.000  0.025  0.028
   18  0.003  0.000  0.025  0.028
   19  0.003  0.000  0.002  0.005
   20  0.000  0.000  0.031  0.031
   21  0.000  0.000  0.031  0.031
   22  0.000  0.000  0.010  0.010
   23  0.000  0.000  0.031  0.031
   24  0.000  0.000  0.010  0.010
   25  0.003  0.000  0.002  0.005
   26  0.003  0.000  0.002  0.005
   27  0.000  0.000  0.010  0.010
   28  0.002  0.000  0.000  0.002
   29  0.000  0.000  0.009  0.009
   30  0.000  0.000  0.009  0.009
   31  0.000  0.000  0.009  0.009
   32  0.000  0.000  0.009  0.009
   33  0.000  0.000  0.009  0.009
   34  0.000  0.000  0.009  0.009
   35  0.000  0.000  0.001  0.001
   36  0.007  0.000  0.004  0.011
   37  0.000  0.000  0.000  0.000
   38  0.000  0.000  0.000  0.000
tot    0.145  0.007  0.645  0.797
 
band    10 # energy   -5.39372588 # occ.  2.00000000
 
ion      s      p      d    tot
    1  0.000  0.000  0.005  0.006
    2  0.001  0.000  0.003  0.004
    3  0.001  0.001  0.007  0.008
    4  0.000  0.000  0.004  0.005
    5  0.000  0.000  0.007  0.007
    6  0.001  0.000  0.007  0.008
    7  0.000  0.000  0.003  0.003
    8  0.001  0.000  0.002  0.003
    9  0.000  0.000  0.001  0.001
   10  0.006  0.001  0.045  0.051
   11  0.025  0.001  0.030  0.055
   12  0.000  0.000  0.097  0.097
   13  0.000  0.001  0.087  0.088
   14  0.019  0.001  0.043  0.062
   15  0.004  0.000  0.030  0.035
   16  0.007  0.001  0.030  0.038
   17  0.000  0.001  0.006  0.008
   18  0.003  0.001  0.025  0.029
   19  0.000  0.000  0.014  0.015
   20  0.006  0.001  0.050  0.056
   21  0.000  0.001  0.035  0.036
   22  0.000  0.000  0.013  0.013
   23  0.008  0.001  0.054  0.062
   24  0.005  0.001  0.011  0.016
   25  0.000  0.000  0.016  0.017
   26  0.000  0.000  0.022  0.022
   27  0.006  0.001  0.010  0.017
   28  0.000  0.000  0.002  0.002
   29  0.000  0.000  0.006  0.006
   30  0.000  0.000  0.004  0.004
   31  0.002  0.000  0.006  0.008
   32  0.001  0.000  0.004  0.005
   33  0.002  0.000  0.007  0.009
   34  0.001  0.000  0.007  0.007
   35  0.000  0.000  0.005  0.005
   36  0.000  0.000  0.010  0.011
   37  0.000  0.002  0.000  0.002
   38  0.000  0.000  0.000  0.000
tot    0.099  0.016  0.706  0.821
 
band    11 # energy   -5.39371873 # occ.  2.00000000
 
ion      s      p      d    tot
    1  0.000  0.000  0.005  0.006
    2  0.000  0.000  0.006  0.006
    3  0.000  0.000  0.002  0.002
    4  0.001  0.001  0.004  0.006
    5  0.000  0.000  0.007  0.007
    6  0.000  0.000  0.002  0.002
    7  0.001  0.001  0.005  0.007
    8  0.001  0.000  0.007  0.007
    9  0.000  0.000  0.001  0.001
   10  0.003  0.000  0.069  0.073
   11  0.005  0.001  0.076  0.082
   12  0.009  0.001  0.017  0.027
   13  0.029  0.001  0.019  0.049
   14  0.010  0.001  0.063  0.075
   15  0.001  0.001  0.010  0.013
   16  0.001  0.000  0.085  0.086
   17  0.005  0.000  0.034  0.040
   18  0.002  0.001  0.016  0.019
   19  0.000  0.000  0.020  0.021
   20  0.003  0.001  0.043  0.047
   21  0.009  0.001  0.057  0.067
   22  0.007  0.001  0.009  0.018
   23  0.001  0.001  0.039  0.041
   24  0.003  0.000  0.012  0.015
   25  0.000  0.000  0.019  0.019
   26  0.001  0.000  0.013  0.014
   27  0.001  0.000  0.012  0.014
   28  0.000  0.000  0.002  0.002
   29  0.001  0.000  0.005  0.007
   30  0.001  0.000  0.007  0.009
   31  0.000  0.000  0.005  0.005
   32  0.001  0.000  0.007  0.008
   33  0.000  0.000  0.005  0.005
   34  0.001  0.000  0.005  0.006
   35  0.000  0.000  0.005  0.005
   36  0.000  0.000  0.010  0.011
   37  0.000  0.002  0.000  0.002
   38  0.000  0.000  0.000  0.000
tot    0.099  0.016  0.706  0.821
 
band    12 # energy   -5.36241347 # occ.  2.00000000
 
ion      s      p      d    tot
    1  0.000  0.000  0.002  0.003
    2  0.001  0.000  0.007  0.008
    3  0.001  0.000  0.007  0.008
    4  0.001  0.000  0.007  0.008
    5  0.006  0.001  0.001  0.007
    6  0.001  0.000  0.007  0.008
    7  0.001  0.000  0.007  0.008
    8  0.001  0.000  0.007  0.008
    9  0.000  0.000  0.009  0.009
   10  0.009  0.001  0.005  0.015
   11  0.013  0.001  0.047  0.060
   12  0.009  0.001  0.005  0.015
   13  0.013  0.001  0.047  0.060
   14  0.013  0.001  0.047  0.060
   15  0.002  0.000  0.051  0.053
   16  0.009  0.001  0.005  0.015
   17  0.002  0.000  0.051  0.053
   18  0.002  0.000  0.051  0.053
   19  0.009  0.001  0.024  0.034
   20  0.004  0.001  0.032  0.037
   21  0.004  0.001  0.031  0.037
   22  0.000  0.000  0.029  0.029
   23  0.004  0.001  0.032  0.037
   24  0.000  0.000  0.029  0.029
   25  0.009  0.001  0.024  0.034
   26  0.009  0.001  0.024  0.034
   27  0.000  0.000  0.029  0.029
   28  0.001  0.000  0.004  0.006
   29  0.000  0.000  0.006  0.006
   30  0.000  0.000  0.006  0.006
   31  0.000  0.000  0.006  0.006
   32  0.000  0.000  0.006  0.006
   33  0.000  0.000  0.006  0.006
   34  0.000  0.000  0.006  0.006
   35  0.002  0.000  0.000  0.002
   36  0.000  0.000  0.000  0.001
   37  0.000  0.000  0.000  0.000
   38  0.000  0.000  0.000  0.000
tot    0.125  0.018  0.654  0.798
 
band    13 # energy   -5.35099450 # occ.  2.00000000
 
ion      s      p      d    tot
    1  0.001  0.000  0.028  0.029
    2  0.003  0.000  0.012  0.015
    3  0.003  0.000  0.012  0.015
    4  0.003  0.000  0.012  0.015
    5  0.000  0.000  0.003  0.003
    6  0.003  0.000  0.012  0.015
    7  0.003  0.000  0.012  0.015
    8  0.003  0.000  0.012  0.015
    9  0.014  0.001  0.003  0.017
   10  0.003  0.000  0.044  0.046
   11  0.004  0.000  0.017  0.021
   12  0.003  0.000  0.044  0.046
   13  0.004  0.000  0.017  0.021
   14  0.004  0.000  0.017  0.021
   15  0.002  0.000  0.008  0.011
   16  0.003  0.000  0.044  0.046
   17  0.002  0.000  0.008  0.011
   18  0.002  0.000  0.008  0.011
   19  0.001  0.000  0.013  0.014
   20  0.005  0.000  0.017  0.022
   21  0.005  0.000  0.017  0.022
   22  0.002  0.000  0.033  0.035
   23  0.005  0.000  0.017  0.022
   24  0.002  0.000  0.033  0.035
   25  0.001  0.000  0.013  0.014
   26  0.001  0.000  0.013  0.014
   27  0.002  0.000  0.033  0.035
   28  0.018  0.000  0.008  0.027
   29  0.005  0.000  0.021  0.026
   30  0.005  0.000  0.021  0.026
   31  0.005  0.000  0.021  0.026
   32  0.005  0.000  0.021  0.026
   33  0.005  0.000  0.021  0.026
   34  0.005  0.000  0.021  0.026
   35  0.003  0.000  0.025  0.029
   36  0.000  0.001  0.001  0.002
   37  0.000  0.000  0.000  0.000
   38  0.000  0.000  0.000  0.000
tot    0.136  0.009  0.654  0.800
 
band    14 # energy   -5.33824249 # occ.  2.00000000
 
ion      s      p      d    tot
    1  0.000  0.001  0.007  0.008
    2  0.002  0.001  0.007  0.009
    3  0.001  0.000  0.005  0.006
    4  0.004  0.001  0.005  0.010
    5  0.000  0.000  0.008  0.008
    6  0.001  0.000  0.005  0.006
    7  0.004  0.001  0.005  0.010
    8  0.002  0.001  0.007  0.009
    9  0.000  0.000  0.012  0.012
   10  0.012  0.000  0.018  0.029
   11  0.000  0.000  0.018  0.019
   12  0.000  0.000  0.026  0.026
   13  0.000  0.000  0.014  0.014
   14  0.000  0.000  0.018  0.019
   15  0.009  0.000  0.022  0.031
   16  0.012  0.000  0.018  0.029
   17  0.000  0.000  0.052  0.052
   18  0.009  0.000  0.022  0.031
   19  0.006  0.000  0.028  0.034
   20  0.002  0.000  0.044  0.046
   21  0.000  0.001  0.013  0.013
   22  0.000  0.000  0.065  0.066
   23  0.002  0.000  0.044  0.046
   24  0.016  0.000  0.024  0.040
   25  0.006  0.000  0.028  0.034
   26  0.000  0.000  0.083  0.083
   27  0.016  0.000  0.024  0.040
   28  0.000  0.000  0.010  0.010
   29  0.003  0.001  0.010  0.014
   30  0.004  0.001  0.005  0.009
   31  0.000  0.000  0.007  0.007
   32  0.004  0.001  0.005  0.009
   33  0.000  0.000  0.007  0.007
   34  0.003  0.001  0.010  0.014
   35  0.000  0.000  0.006  0.006
   36  0.000  0.000  0.004  0.004
   37  0.000  0.000  0.000  0.000
   38  0.000  0.000  0.000  0.000
tot    0.117  0.014  0.680  0.811
 
band    15 # energy   -5.33822193 # occ.  2.00000000
 
ion      s      p      d    tot
    1  0.000  0.001  0.007  0.008
    2  0.003  0.001  0.004  0.008
    3  0.004  0.001  0.006  0.011
    4  0.000  0.000  0.006  0.007
    5  0.000  0.000  0.008  0.008
    6  0.004  0.001  0.006  0.011
    7  0.000  0.000  0.006  0.007
    8  0.003  0.001  0.004  0.008
    9  0.000  0.000  0.012  0.012
   10  0.004  0.000  0.023  0.027
   11  0.000  0.000  0.016  0.016
   12  0.016  0.000  0.015  0.031
   13  0.000  0.000  0.020  0.020
   14  0.000  0.000  0.016  0.016
   15  0.003  0.000  0.042  0.045
   16  0.004  0.000  0.023  0.027
   17  0.013  0.000  0.011  0.024
   18  0.003  0.000  0.042  0.045
   19  0.002  0.000  0.065  0.067
   20  0.001  0.001  0.023  0.024
   21  0.002  0.000  0.054  0.057
   22  0.021  0.000  0.010  0.031
   23  0.001  0.001  0.023  0.024
   24  0.005  0.000  0.051  0.057
   25  0.002  0.000  0.065  0.067
   26  0.008  0.000  0.009  0.018
   27  0.005  0.000  0.051  0.057
   28  0.000  0.000  0.010  0.010
   29  0.001  0.000  0.004  0.006
   30  0.001  0.000  0.009  0.010
   31  0.005  0.001  0.007  0.013
   32  0.001  0.000  0.009  0.010
   33  0.005  0.001  0.007  0.013
   34  0.001  0.000  0.004  0.006
   35  0.000  0.000  0.006  0.006
   36  0.000  0.000  0.004  0.004
   37  0.000  0.000  0.000  0.000
   38  0.000  0.000  0.000  0.000
tot    0.117  0.014  0.680  0.811
 
band    16 # energy   -5.32899077 # occ.  2.00000000
 
ion      s      p      d    tot
    1  0.001  0.000  0.003  0.003
    2  0.000  0.000  0.006  0.006
    3  0.000  0.000  0.006  0.006
    4  0.000  0.000  0.006  0.006
    5  0.000  0.000  0.000  0.000
    6  0.000  0.000  0.006  0.006
    7  0.000  0.000  0.006  0.006
    8  0.000  0.000  0.006  0.006
    9  0.000  0.000  0.009  0.009
   10  0.000  0.000  0.053  0.054
   11  0.001  0.000  0.005  0.007
   12  0.000  0.000  0.053  0.053
   13  0.001  0.000  0.005  0.007
   14  0.001  0.000  0.005  0.007
   15  0.005  0.000  0.048  0.053
   16  0.000  0.000  0.053  0.054
   17  0.005  0.000  0.048  0.053
   18  0.005  0.000  0.048  0.053
   19  0.005  0.000  0.044  0.050
   20  0.001  0.001  0.018  0.020
   21  0.001  0.001  0.018  0.020
   22  0.000  0.000  0.056  0.057
   23  0.001  0.001  0.018  0.020
   24  0.000  0.000  0.056  0.057
   25  0.005  0.000  0.044  0.050
   26  0.005  0.000  0.044  0.050
   27  0.000  0.000  0.056  0.057
   28  0.000  0.000  0.007  0.008
   29  0.000  0.000  0.010  0.010
   30  0.000  0.000  0.010  0.010
   31  0.000  0.000  0.010  0.010
   32  0.000  0.000  0.010  0.010
   33  0.000  0.000  0.010  0.010
   34  0.000  0.000  0.010  0.010
   35  0.002  0.000  0.007  0.009
   36  0.001  0.002  0.000  0.003
   37  0.000  0.000  0.000  0.000
   38  0.000  0.000  0.000  0.000
tot    0.044  0.010  0.795  0.849
 
band    17 # energy   -5.32076828 # occ.  2.00000000
 
ion      s      p      d    tot
    1  0.000  0.000  0.009  0.009
    2  0.001  0.000  0.007  0.008
    3  0.001  0.000  0.004  0.006
    4  0.000  0.000  0.009  0.009
    5  0.000  0.000  0.001  0.002
    6  0.001  0.000  0.004  0.006
    7  0.000  0.000  0.008  0.009
    8  0.001  0.000  0.007  0.008
    9  0.000  0.000  0.014  0.014
   10  0.003  0.000  0.038  0.041
   11  0.001  0.000  0.030  0.032
   12  0.000  0.000  0.011  0.011
   13  0.000  0.000  0.060  0.060
   14  0.001  0.000  0.028  0.030
   15  0.008  0.000  0.040  0.048
   16  0.003  0.000  0.036  0.039
   17  0.000  0.000  0.098  0.098
   18  0.008  0.000  0.035  0.043
   19  0.002  0.000  0.026  0.028
   20  0.000  0.000  0.034  0.034
   21  0.000  0.000  0.010  0.010
   22  0.000  0.000  0.037  0.037
   23  0.000  0.000  0.032  0.032
   24  0.002  0.000  0.034  0.036
   25  0.002  0.000  0.023  0.025
   26  0.000  0.000  0.069  0.069
   27  0.002  0.000  0.034  0.036
   28  0.000  0.000  0.009  0.010
   29  0.001  0.000  0.008  0.009
   30  0.000  0.000  0.005  0.006
   31  0.002  0.000  0.005  0.007
   32  0.000  0.000  0.006  0.006
   33  0.002  0.000  0.005  0.007
   34  0.001  0.000  0.008  0.009
   35  0.000  0.000  0.013  0.014
   36  0.000  0.000  0.001  0.001
   37  0.000  0.001  0.000  0.001
   38  0.000  0.000  0.000  0.000
tot    0.043  0.008  0.798  0.849
 
band    18 # energy   -5.32073881 # occ.  2.00000000
 
ion      s      p      d    tot
    1  0.000  0.000  0.009  0.009
    2  0.001  0.000  0.006  0.007
    3  0.000  0.000  0.009  0.009
    4  0.001  0.000  0.005  0.006
    5  0.000  0.000  0.001  0.002
    6  0.000  0.000  0.009  0.009
    7  0.001  0.000  0.005  0.006
    8  0.001  0.000  0.006  0.007
    9  0.000  0.000  0.014  0.014
   10  0.001  0.000  0.018  0.019
   11  0.001  0.000  0.049  0.049
   12  0.004  0.000  0.046  0.050
   13  0.002  0.000  0.019  0.021
   14  0.000  0.000  0.051  0.052
   15  0.003  0.000  0.075  0.079
   16  0.001  0.000  0.020  0.022
   17  0.011  0.000  0.017  0.028
   18  0.002  0.000  0.080  0.083
   19  0.001  0.000  0.052  0.053
   20  0.000  0.000  0.017  0.017
   21  0.000  0.000  0.040  0.040
   22  0.003  0.000  0.033  0.036
   23  0.000  0.000  0.019  0.019
   24  0.001  0.000  0.036  0.037
   25  0.001  0.000  0.056  0.056
   26  0.002  0.000  0.010  0.012
   27  0.001  0.000  0.036  0.037
   28  0.000  0.000  0.009  0.010
   29  0.001  0.000  0.005  0.005
   30  0.002  0.000  0.007  0.009
   31  0.000  0.000  0.007  0.007
   32  0.002  0.000  0.007  0.009
   33  0.000  0.000  0.007  0.008
   34  0.001  0.000  0.005  0.006
   35  0.000  0.000  0.013  0.014
   36  0.000  0.000  0.001  0.001
   37  0.000  0.001  0.000  0.001
   38  0.000  0.000  0.000  0.000
tot    0.043  0.008  0.798  0.849
 
band    19 # energy   -5.26533574 # occ.  2.00000000
 
ion      s      p      d    tot
    1  0.000  0.000  0.001  0.001
    2  0.000  0.000  0.004  0.004
    3  0.000  0.000  0.004  0.005
    4  0.002  0.001  0.004  0.007
    5  0.000  0.001  0.012  0.012
    6  0.002  0.001  0.004  0.007
    7  0.001  0.000  0.003  0.004
    8  0.001  0.000  0.003  0.004
    9  0.000  0.000  0.003  0.003
   10  0.000  0.000  0.013  0.014
   11  0.000  0.000  0.034  0.034
   12  0.000  0.000  0.016  0.016
   13  0.004  0.000  0.041  0.045
   14  0.003  0.000  0.040  0.043
   15  0.000  0.000  0.013  0.013
   16  0.000  0.000  0.002  0.002
   17  0.000  0.000  0.012  0.013
   18  0.000  0.000  0.013  0.013
   19  0.000  0.000  0.001  0.001
   20  0.000  0.000  0.104  0.104
   21  0.000  0.000  0.097  0.097
   22  0.000  0.001  0.027  0.028
   23  0.000  0.000  0.131  0.131
   24  0.000  0.000  0.029  0.030
   25  0.001  0.000  0.014  0.015
   26  0.001  0.000  0.017  0.018
   27  0.000  0.000  0.039  0.039
   28  0.000  0.000  0.001  0.001
   29  0.001  0.000  0.008  0.008
   30  0.000  0.000  0.008  0.008
   31  0.000  0.000  0.012  0.013
   32  0.000  0.000  0.011  0.012
   33  0.001  0.001  0.013  0.014
   34  0.001  0.001  0.012  0.013
   35  0.000  0.000  0.000  0.000
   36  0.000  0.000  0.039  0.039
   37  0.000  0.055  0.000  0.055
   38  0.000  0.001  0.000  0.001
tot    0.017  0.064  0.786  0.868
 
band    20 # energy   -5.26532799 # occ.  2.00000000
 
ion      s      p      d    tot
    1  0.000  0.000  0.001  0.001
    2  0.002  0.001  0.004  0.006
    3  0.002  0.000  0.003  0.006
    4  0.000  0.000  0.003  0.003
    5  0.000  0.001  0.012  0.012
    6  0.000  0.000  0.003  0.003
    7  0.001  0.000  0.005  0.006
    8  0.001  0.001  0.005  0.006
    9  0.000  0.000  0.003  0.003
   10  0.000  0.000  0.008  0.008
   11  0.005  0.000  0.042  0.048
   12  0.000  0.000  0.005  0.005
   13  0.001  0.000  0.035  0.036
   14  0.002  0.000  0.037  0.039
   15  0.000  0.000  0.012  0.013
   16  0.000  0.000  0.019  0.019
   17  0.000  0.000  0.013  0.013
   18  0.000  0.000  0.013  0.013
   19  0.001  0.000  0.021  0.022
   20  0.000  0.000  0.118  0.118
   21  0.000  0.000  0.124  0.124
   22  0.000  0.000  0.036  0.036
   23  0.000  0.000  0.090  0.090
   24  0.000  0.000  0.034  0.034
   25  0.000  0.000  0.007  0.008
   26  0.000  0.000  0.004  0.004
   27  0.000  0.001  0.025  0.025
   28  0.000  0.000  0.001  0.001
   29  0.000  0.001  0.014  0.014
   30  0.000  0.001  0.014  0.015
   31  0.001  0.000  0.009  0.010
   32  0.001  0.001  0.010  0.011
   33  0.000  0.000  0.009  0.009
   34  0.000  0.000  0.009  0.010
   35  0.000  0.000  0.000  0.000
   36  0.000  0.000  0.039  0.039
   37  0.000  0.055  0.000  0.055
   38  0.000  0.001  0.000  0.001
tot    0.017  0.064  0.786  0.868
 
band    21 # energy   -5.20140944 # occ.  2.00000000
 
ion      s      p      d    tot
    1  0.000  0.000  0.000  0.000
    2  0.000  0.000  0.004  0.004
    3  0.000  0.000  0.004  0.004
    4  0.000  0.000  0.004  0.004
    5  0.001  0.001  0.017  0.019
    6  0.000  0.000  0.004  0.004
    7  0.000  0.000  0.004  0.004
    8  0.000  0.000  0.004  0.004
    9  0.000  0.000  0.007  0.008
   10  0.000  0.000  0.009  0.009
   11  0.000  0.001  0.082  0.083
   12  0.000  0.000  0.009  0.009
   13  0.000  0.001  0.082  0.083
   14  0.000  0.001  0.082  0.083
   15  0.001  0.001  0.038  0.039
   16  0.000  0.000  0.009  0.009