 vasp.6.2.0 18Jan21 (build Jun 12 2021 23:27:24) complex                        
  
 executed on             LinuxIFC date 2022.05.30  16:54:08
 running on   28 total cores
 distrk:  each k-point on   28 cores,    1 groups
 distr:  one band on NCORE=   1 cores,   28 groups


--------------------------------------------------------------------------------------------------------


 INCAR:
   ISMEAR = -5
   SIGMA = 0.1
   ISPIN = 1
   EDIFF = 1.d-5
   EDIFFG = -0.01
   NSW = 0
   NELM = 150
   ENCUT = 500
   ISIF = 2
   IBRION = 2
   LREAL = Auto
   ALGO = Fast
   ICHARG = 11
   LORBIT = 10
   LCHARG = .F.
   LWAVE = .F.

 POTCAR:    PAW_PBE Ag 02Apr2005                  
 POTCAR:    PAW_PBE Cr 06Sep2000                  
 POTCAR:    PAW_PBE C 08Apr2002                   
 -----------------------------------------------------------------------------
|                                                                             |
|           W    W    AA    RRRRR   N    N  II  N    N   GGGG   !!!           |
|           W    W   A  A   R    R  NN   N  II  NN   N  G    G  !!!           |
|           W    W  A    A  R    R  N N  N  II  N N  N  G       !!!           |
|           W WW W  AAAAAA  RRRRR   N  N N  II  N  N N  G  GGG   !            |
|           WW  WW  A    A  R   R   N   NN  II  N   NN  G    G                |
|           W    W  A    A  R    R  N    N  II  N    N   GGGG   !!!           |
|                                                                             |
|     For optimal performance we recommend to set                             |
|       NCORE = 2 up to number-of-cores-per-socket                            |
|     NCORE specifies how many cores store one orbital (NPAR=cpu/NCORE).      |
|     This setting can greatly improve the performance of VASP for DFT.       |
|     The default, NCORE=1 might be grossly inefficient on modern             |
|     multi-core architectures or massively parallel machines. Do your        |
|     own testing! More info at https://www.vasp.at/wiki/index.php/NCORE      |
|     Unfortunately you need to use the default for GW and RPA                |
|     calculations (for HF NCORE is supported but not extensively tested      |
|     yet).                                                                   |
|                                                                             |
 -----------------------------------------------------------------------------

 POTCAR:    PAW_PBE Ag 02Apr2005                  
   VRHFIN =Ag : s1 d10                                                                              
   LEXCH  = PE                                                                                      
   EATOM  =  1037.2675 eV,   76.2370 Ry                                                             
                                                                                                    
   TITEL  = PAW_PBE Ag 02Apr2005                                                                    
   LULTRA =        F    use ultrasoft PP ?                                                          
   IUNSCR =        1    unscreen: 0-lin 1-nonlin 2-no                                               
   RPACOR =    2.000    partial core radius                                                         
   POMASS =  107.868; ZVAL   =   11.000    mass and valenz                                          
   RCORE  =    2.500    outmost cutoff radius                                                       
   RWIGS  =    2.840; RWIGS  =    1.503    wigner-seitz radius (au A)                               
   ENMAX  =  249.844; ENMIN  =  187.383 eV                                                          
   ICORE  =        3    local potential                                                             
   LCOR   =        T    correct aug charges                                                         
   LPAW   =        T    paw PP                                                                      
   EAUG   =  412.496                                                                                
   DEXC   =    0.000                                                                                
   RMAX   =    2.560    core radius for proj-oper                                                   
   RAUG   =    1.300    factor for augmentation sphere                                              
   RDEP   =    2.576    radius for radial grids                                                     
   RDEPT  =    2.072    core radius for aug-charge                                                  
                                                                                                    
   Atomic configuration                                                                             
   12 entries                                                                                       
     n  l   j            E        occ.                                                              
     1  0  0.50    -25324.9161   2.0000                                                             
     2  0  0.50     -3728.5341   2.0000                                                             
     2  1  1.50     -3344.0404   6.0000                                                             
     3  0  0.50      -683.5581   2.0000                                                             
     3  1  1.50      -557.3225   6.0000                                                             
     3  2  2.50      -358.3853  10.0000                                                             
     4  0  0.50       -95.0341   2.0000                                                             
     4  1  1.50       -58.5511   6.0000                                                             
     4  2  2.50        -7.4440  10.0000                                                             
     5  0  0.50        -4.4045   1.0000                                                             
     5  1  0.50        -1.3606   0.0000                                                             
     4  3  2.50        -1.3606   0.0000                                                             
   Description                                                                                      
     l       E           TYP  RCUT    TYP  RCUT                                                     
     2     -7.4439781     23  2.400                                                                 
     2     -8.8045607     23  2.400                                                                 
     0     -4.4044681     23  2.400                                                                 
     0      1.9520038     23  2.400                                                                 
     1     -1.3605826     23  2.500                                                                 
     1     27.2116520     23  2.500                                                                 
     3     -4.0817478     23  2.400                                                                 
  local pseudopotential read in
  partial core-charges read in
  partial kinetic energy density read in
  atomic valenz-charges read in
  non local Contribution for L=           2  read in
    real space projection operators read in
  non local Contribution for L=           2  read in
    real space projection operators read in
  non local Contribution for L=           0  read in
    real space projection operators read in
  non local Contribution for L=           0  read in
    real space projection operators read in
  non local Contribution for L=           1  read in
    real space projection operators read in
  non local Contribution for L=           1  read in
    real space projection operators read in
    PAW grid and wavefunctions read in
 
   number of l-projection  operators is LMAX  =           6
   number of lm-projection operators is LMMAX =          18
 
 POTCAR:    PAW_PBE Cr 06Sep2000                  
   VRHFIN =Cr : d5 s1                                                                               
   LEXCH  = PE                                                                                      
   EATOM  =   276.8859 eV,   20.3505 Ry                                                             
                                                                                                    
   TITEL  = PAW_PBE Cr 06Sep2000                                                                    
   LULTRA =        F    use ultrasoft PP ?                                                          
   IUNSCR =        1    unscreen: 0-lin 1-nonlin 2-no                                               
   RPACOR =    2.080    partial core radius                                                         
   POMASS =   51.996; ZVAL   =    6.000    mass and valenz                                          
   RCORE  =    2.500    outmost cutoff radius                                                       
   RWIGS  =    2.500; RWIGS  =    1.323    wigner-seitz radius (au A)                               
   ENMAX  =  227.080; ENMIN  =  170.310 eV                                                          
   RCLOC  =    1.721    cutoff for local pot                                                        
   LCOR   =        T    correct aug charges                                                         
   LPAW   =        T    paw PP                                                                      
   EAUG   =  402.108                                                                                
   DEXC   =    0.000                                                                                
   RMAX   =    2.552    core radius for proj-oper                                                   
   RAUG   =    1.300    factor for augmentation sphere                                              
   RDEP   =    2.609    radius for radial grids                                                     
   RDEPT  =    2.065    core radius for aug-charge                                                  
                                                                                                    
   Atomic configuration                                                                             
    9 entries                                                                                       
     n  l   j            E        occ.                                                              
     1  0  0.50     -5880.4963   2.0000                                                             
     2  0  0.50      -667.0865   2.0000                                                             
     2  1  1.50      -560.6250   6.0000                                                             
     3  0  0.50       -73.9860   2.0000                                                             
     3  1  1.50       -45.4378   6.0000                                                             
     3  2  2.50        -2.9137   5.0000                                                             
     4  0  0.50        -4.0071   1.0000                                                             
     4  1  0.50        -1.2789   0.0000                                                             
     4  3  2.50        -1.3606   0.0000                                                             
   Description                                                                                      
     l       E           TYP  RCUT    TYP  RCUT                                                     
     2     -2.9136677     23  2.500                                                                 
     2     -4.2742503     23  2.500                                                                 
     0     -4.0071322     23  2.500                                                                 
     0      9.4498801     23  2.500                                                                 
     1     -5.4423304     23  2.500                                                                 
     1     27.2116520     23  2.500                                                                 
  local pseudopotential read in
  partial core-charges read in
  partial kinetic energy density read in
  atomic valenz-charges read in
  non local Contribution for L=           2  read in
    real space projection operators read in
  non local Contribution for L=           2  read in
    real space projection operators read in
  non local Contribution for L=           0  read in
    real space projection operators read in
  non local Contribution for L=           0  read in
    real space projection operators read in
  non local Contribution for L=           1  read in
    real space projection operators read in
  non local Contribution for L=           1  read in
    real space projection operators read in
    PAW grid and wavefunctions read in
 
   number of l-projection  operators is LMAX  =           6
   number of lm-projection operators is LMMAX =          18
 
 POTCAR:    PAW_PBE C 08Apr2002                   
   VRHFIN =C: s2p2                                                                                  
   LEXCH  = PE                                                                                      
   EATOM  =   147.1560 eV,   10.8157 Ry                                                             
                                                                                                    
   TITEL  = PAW_PBE C 08Apr2002                                                                     
   LULTRA =        F    use ultrasoft PP ?                                                          
   IUNSCR =        1    unscreen: 0-lin 1-nonlin 2-no                                               
   RPACOR =    1.200    partial core radius                                                         
   POMASS =   12.011; ZVAL   =    4.000    mass and valenz                                          
   RCORE  =    1.500    outmost cutoff radius                                                       
   RWIGS  =    1.630; RWIGS  =    0.863    wigner-seitz radius (au A)                               
   ENMAX  =  400.000; ENMIN  =  300.000 eV                                                          
   ICORE  =        2    local potential                                                             
   LCOR   =        T    correct aug charges                                                         
   LPAW   =        T    paw PP                                                                      
   EAUG   =  644.873                                                                                
   DEXC   =    0.000                                                                                
   RMAX   =    1.529    core radius for proj-oper                                                   
   RAUG   =    1.300    factor for augmentation sphere                                              
   RDEP   =    1.501    radius for radial grids                                                     
   RDEPT  =    1.300    core radius for aug-charge                                                  
                                                                                                    
   Atomic configuration                                                                             
    4 entries                                                                                       
     n  l   j            E        occ.                                                              
     1  0  0.50      -273.3789   2.0000                                                             
     2  0  0.50       -13.7508   2.0000                                                             
     2  1  0.50        -5.2854   2.0000                                                             
     3  2  1.50        -5.4423   0.0000                                                             
   Description                                                                                      
     l       E           TYP  RCUT    TYP  RCUT                                                     
     0    -13.7508458     23  1.200                                                                 
     0     -8.2022199     23  1.200                                                                 
     1     -5.2854383     23  1.500                                                                 
     1     34.0145650     23  1.500                                                                 
     2     -5.4423304      7  1.500                                                                 
  local pseudopotential read in
  partial core-charges read in
  partial kinetic energy density read in
  atomic valenz-charges read in
  non local Contribution for L=           0  read in
    real space projection operators read in
  non local Contribution for L=           0  read in
    real space projection operators read in
  non local Contribution for L=           1  read in
    real space projection operators read in
  non local Contribution for L=           1  read in
    real space projection operators read in
    PAW grid and wavefunctions read in
 
   number of l-projection  operators is LMAX  =           4
   number of lm-projection operators is LMMAX =           8
 
 Optimization of the real space projectors (new method)

 maximal supplied QI-value         = 15.12
 optimisation between [QCUT,QGAM] = [ 11.34, 22.83] = [ 36.00,145.93] Ry 
 Optimized for a Real-space Cutoff    1.43 Angstroem

   l    n(q)    QCUT    max X(q) W(low)/X(q) W(high)/X(q)  e(spline) 
   2      9    11.338    53.897    0.16E-03    0.20E-03    0.28E-06
   2      9    11.338    52.416    0.16E-03    0.20E-03    0.29E-06
   0     10    11.338   122.045    0.31E-04    0.76E-04    0.15E-06
   0     10    11.338    73.629    0.30E-04    0.72E-04    0.15E-06
   1      9    11.338    15.255    0.20E-03    0.19E-04    0.17E-06
   1      9    11.338     9.562    0.16E-03    0.15E-04    0.14E-06
 Optimization of the real space projectors (new method)

 maximal supplied QI-value         = 15.12
 optimisation between [QCUT,QGAM] = [ 11.34, 22.83] = [ 36.00,145.93] Ry 
 Optimized for a Real-space Cutoff    1.43 Angstroem

   l    n(q)    QCUT    max X(q) W(low)/X(q) W(high)/X(q)  e(spline) 
   2      9    11.338    94.395    0.18E-03    0.10E-02    0.64E-06
   2      9    11.338    88.078    0.18E-03    0.10E-02    0.65E-06
   0     10    11.338    50.173    0.13E-03    0.16E-03    0.96E-07
   0     10    11.338    24.906    0.12E-03    0.14E-03    0.88E-07
   1      9    11.338    12.133    0.13E-03    0.15E-03    0.24E-06
   1      9    11.338     7.290    0.10E-03    0.10E-03    0.18E-06
 Optimization of the real space projectors (new method)

 maximal supplied QI-value         = 25.13
 optimisation between [QCUT,QGAM] = [ 11.31, 22.87] = [ 35.82,146.48] Ry 
 Optimized for a Real-space Cutoff    1.00 Angstroem

   l    n(q)    QCUT    max X(q) W(low)/X(q) W(high)/X(q)  e(spline) 
   0      7    11.310   115.676    0.43E-03    0.13E-02    0.19E-06
   0      7    11.310    87.132    0.43E-03    0.13E-02    0.18E-06
   1      6    11.310     4.429    0.42E-03    0.74E-03    0.11E-06
   1      6    11.310     2.733    0.34E-03    0.55E-03    0.92E-07
  PAW_PBE Ag 02Apr2005                  :
 energy of atom  1       EATOM=-1037.2675
 kinetic energy error for atom=    0.0052 (will be added to EATOM!!)
  PAW_PBE Cr 06Sep2000                  :
 energy of atom  2       EATOM= -276.8859
 kinetic energy error for atom=    0.0012 (will be added to EATOM!!)
  PAW_PBE C 08Apr2002                   :
 energy of atom  3       EATOM= -147.1560
 kinetic energy error for atom=    0.0076 (will be added to EATOM!!)
 
 
 POSCAR: Ag-Cr-C
  positions in direct lattice
  velocities in cartesian coordinates
 exchange correlation table for  LEXCH =        8
   RHO(1)=    0.500       N(1)  =     2000
   RHO(2)=  100.500       N(2)  =     4000

 VTST: version 3.2, (02/03/18)

 CHAIN: initializing optimizer
 
 OPT: Using VASP Conjugate-Gradient optimizer
 CHAIN: Read ICHAIN            0
 
 POSCAR: Ag-Cr-C
  positions in direct lattice
  velocities in cartesian coordinates
 


--------------------------------------------------------------------------------------------------------


 ion  position               nearest neighbor table
   1  0.000  0.000  0.217-   2 2.93   8 2.93   7 2.93   6 2.93   4 2.93  12 2.93  16 2.93  10 2.93
                             3 2.93
   2  0.333  0.000  0.217-   1 2.93   8 2.93   9 2.93   3 2.93   4 2.93   5 2.93  10 2.93  17 2.93
                            11 2.93
   3  0.667  0.000  0.217-   9 2.93   2 2.93   5 2.93  11 2.93   7 2.93  18 2.93   1 2.93   6 2.93
                            12 2.93
   4  0.000  0.333  0.217-   5 2.93   6 2.93   2 2.93   1 2.93   7 2.93  13 2.93  15 2.93   9 2.93
                            10 2.93
   5  0.333  0.333  0.217-   4 2.93   3 2.93   7 2.93   2 2.93   8 2.93  14 2.93  13 2.93  11 2.93
                             6 2.93
   6  0.667  0.333  0.217-   4 2.93   9 2.93   1 2.93  15 2.93   8 2.93  12 2.93   3 2.93   5 2.93
                            14 2.93
   7  0.000  0.667  0.217-   8 2.93   1 2.93   5 2.93   3 2.93   4 2.93  16 2.93  18 2.93  13 2.93
                             9 2.93
   8  0.333  0.667  0.217-   7 2.93   1 2.93   2 2.93   9 2.93   5 2.93  16 2.93   6 2.93  17 2.93
                            14 2.93
   9  0.667  0.667  0.217-   3 2.93   2 2.93   8 2.93   6 2.93  17 2.93   4 2.93  15 2.93   7 2.93
                            18 2.93
  10  0.111  0.111  0.315-  20 2.91  19 2.92  26 2.92  12 2.93  16 2.93  15 2.93  17 2.93  13 2.93
                            11 2.93   2 2.93   1 2.93   4 2.93
  11  0.444  0.111  0.315-  21 2.90  20 2.90  27 2.92  14 2.93  17 2.93  18 2.93   3 2.93  12 2.93
                            13 2.93  10 2.93   5 2.93   2 2.93
  12  0.778  0.111  0.315-  21 2.91  25 2.92  19 2.92  10 2.93  16 2.93  18 2.93  15 2.93  11 2.93
                             1 2.93  14 2.93   6 2.93   3 2.93
  13  0.111  0.444  0.315-  20 2.90  23 2.90  22 2.92  15 2.93  14 2.93  18 2.93  10 2.93  11 2.93
                            16 2.93   4 2.93   5 2.93   7 2.93
  14  0.444  0.444  0.315-  23 2.90  21 2.90  24 2.92  13 2.93  11 2.93  16 2.93   5 2.93  12 2.93
                            17 2.93   8 2.93  15 2.93   6 2.93
  15  0.778  0.444  0.315-  24 2.92  22 2.92  19 2.92  13 2.93  10 2.93  12 2.93  17 2.93  18 2.93
                             4 2.93   6 2.93   9 2.93  14 2.93
  16  0.111  0.778  0.315-  23 2.91  26 2.92  25 2.92  18 2.93  12 2.93  10 2.93  14 2.93  17 2.93
                            13 2.93   7 2.93   8 2.93   1 2.93
  17  0.444  0.778  0.315-  27 2.92  24 2.92  26 2.92  11 2.93  10 2.93   9 2.93  18 2.93  15 2.93
                            16 2.93   2 2.93  14 2.93   8 2.93
  18  0.778  0.778  0.315-  22 2.92  27 2.92  25 2.92  16 2.93  12 2.93  13 2.93  11 2.93  17 2.93
                            15 2.93   7 2.93   3 2.93   9 2.93
  19  0.889  0.222  0.413-  28 2.91  15 2.92  10 2.92  12 2.92  24 2.93  22 2.93  26 2.93  25 2.93
                            20 2.94  21 2.94  32 2.96  31 2.96
  20  0.223  0.223  0.412-  36 2.73  13 2.90  11 2.90  21 2.91  23 2.91  10 2.91  31 2.91  29 2.91
                            27 2.93  22 2.93  19 2.94  26 2.94
  21  0.554  0.223  0.412-  36 2.73  11 2.90  14 2.90  20 2.91  23 2.91  12 2.91  30 2.91  32 2.91
                            27 2.93  24 2.93  25 2.94  19 2.94
  22  0.888  0.556  0.413-  35 2.91  18 2.92  15 2.92  13 2.92  24 2.92  27 2.92  25 2.93  19 2.93
                            33 2.93  31 2.93  23 2.93  20 2.93
  23  0.223  0.554  0.412-  36 2.73  14 2.90  13 2.90  21 2.91  20 2.91  16 2.91  34 2.91  33 2.91
                            22 2.93  24 2.93  26 2.94  25 2.94
  24  0.556  0.556  0.413-  35 2.91  15 2.92  17 2.92  14 2.92  27 2.92  22 2.92  19 2.93  26 2.93
                            32 2.93  34 2.93  23 2.93  21 2.93
  25  0.889  0.889  0.413-  28 2.91  18 2.92  16 2.92  12 2.92  22 2.93  27 2.93  26 2.93  19 2.93
                            23 2.94  21 2.94  33 2.96  30 2.96
  26  0.222  0.889  0.413-  28 2.91  17 2.92  16 2.92  10 2.92  27 2.93  24 2.93  25 2.93  19 2.93
                            23 2.94  20 2.94  34 2.96  29 2.96
  27  0.556  0.888  0.413-  35 2.91  17 2.92  18 2.92  11 2.92  24 2.92  22 2.92  26 2.93  25 2.93
                            29 2.93  30 2.93  20 2.93  21 2.93
  28  0.000  0.000  0.510-  26 2.91  25 2.91  19 2.91  29 2.96  34 2.96  33 2.96  32 2.96  31 2.96
                            30 2.96
  29  0.333  0.007  0.511-  30 2.87  31 2.87  36 2.88  20 2.91  27 2.93  26 2.96  35 2.96  28 2.96
                            34 3.06
  30  0.659  0.007  0.511-  29 2.87  32 2.87  36 2.88  21 2.91  27 2.93  25 2.96  35 2.96  28 2.96
                            33 3.06
  31  0.007  0.333  0.511-  33 2.87  29 2.87  36 2.88  20 2.91  22 2.93  19 2.96  35 2.96  28 2.96
                            32 3.06
  32  0.659  0.333  0.511-  34 2.87  30 2.87  36 2.88  21 2.91  24 2.93  19 2.96  35 2.96  28 2.96
                            31 3.06
  33  0.007  0.659  0.511-  31 2.87  34 2.87  36 2.88  23 2.91  22 2.93  25 2.96  35 2.96  28 2.96
                            30 3.06
  34  0.333  0.659  0.511-  32 2.87  33 2.87  36 2.88  23 2.91  24 2.93  26 2.96  35 2.96  28 2.96
                            29 3.06
  35  0.667  0.667  0.510-  24 2.91  27 2.91  22 2.91  30 2.96  32 2.96  29 2.96  34 2.96  31 2.96
                            33 2.96
  36  0.333  0.333  0.500-  37 1.64  21 2.73  20 2.73  23 2.73  31 2.88  33 2.88  30 2.88  29 2.88
                            34 2.88  32 2.88
  37  0.333  0.333  0.567-  36 1.64
 
  LATTYP: Found a hexagonal cell.
 ALAT       =     8.7913665772
 C/A-ratio  =     2.7711238095
  
  Lattice vectors:
  
 A1 = (  -4.3956832886,  -7.6135467898,   0.0000000000)
 A2 = (   8.7913665771,   0.0000000000,   0.0000000000)
 A3 = (   0.0000000000,   0.0000000000,  24.3619652401)


Analysis of symmetry for initial positions (statically):
=====================================================================
 Subroutine PRICEL returns:
 Original cell was already a primitive cell.
 

 Routine SETGRP: Setting up the symmetry group for a 
 hexagonal supercell.


 Subroutine GETGRP returns: Found  6 space group operations
 (whereof  6 operations were pure point group operations)
 out of a pool of 24 trial point group operations.


The static configuration has the point symmetry C_3v.


Analysis of symmetry for dynamics (positions and initial velocities):
=====================================================================
 Subroutine PRICEL returns:
 Original cell was already a primitive cell.
 

 Routine SETGRP: Setting up the symmetry group for a 
 hexagonal supercell.


 Subroutine GETGRP returns: Found  6 space group operations
 (whereof  6 operations were pure point group operations)
 out of a pool of 24 trial point group operations.


The dynamic configuration has the point symmetry C_3v.


Analysis of constrained symmetry for selective dynamics:
=====================================================================
 Subroutine PRICEL returns:
 Original cell was already a primitive cell.
 

 Routine SETGRP: Setting up the symmetry group for a 
 hexagonal supercell.


 Subroutine GETGRP returns: Found  6 space group operations
 (whereof  6 operations were pure point group operations)
 out of a pool of 24 trial point group operations.


The constrained configuration has the point symmetry C_3v.


 Subroutine INISYM returns: Found  6 space group operations
 (whereof  6 operations are pure point group operations),
 and found     1 'primitive' translations


----------------------------------------------------------------------------------------

                                     Primitive cell                                     

  volume of cell :    1630.6311

  direct lattice vectors                    reciprocal lattice vectors
     8.791366577  0.000000000  0.000000000     0.113747958 -0.065672414  0.000000000
     4.395683289  7.613546790  0.000000000     0.000000000  0.131344829  0.000000000
     0.000000000  0.000000000 24.361965240     0.000000000  0.000000000  0.041047592

  length of vectors
     8.791366577  8.791366577 24.361965240     0.131344829  0.131344829  0.041047592

  position of ions in fractional coordinates (direct lattice)
     0.000000000  0.000000000  0.216821102
     0.333333313  0.000000000  0.216821102
     0.666666627  0.000000000  0.216821102
     1.000000000  0.333333343  0.216821102
     0.333333313  0.333333343  0.216821102
     0.666666687  0.333333343  0.216821102
     1.000000000  0.666666687  0.216821102
     0.333333313  0.666666687  0.216821102
     0.666666627  0.666666687  0.216821102
     0.111111104  0.111111112  0.315035970
     0.444444448  0.111111112  0.315035970
     0.777777791  0.111111112  0.315035970
     0.111111097  0.444444448  0.315035970
     0.444444418  0.444444448  0.315035970
     0.777777791  0.444444448  0.315035970
     0.111111104  0.777777791  0.315035970
     0.444444448  0.777777791  0.315035970
     0.777777791  0.777777791  0.315035970
     0.888767793  0.222464430  0.412873477
     0.222890716  0.222890731  0.412080301
     0.554218509  0.222890731  0.412080301
     0.888473127  0.555763466  0.412700661
     0.222890731  0.554218569  0.412080301
     0.555763466  0.555763466  0.412700661
     0.888767793  0.888767793  0.412873477
     0.222464400  0.888767793  0.412873477
     0.555763406  0.888473127  0.412700661
     0.000000000  0.000000000  0.510074903
     0.333374766  0.007169798  0.510894532
     0.659455376  0.007169798  0.510894532
     0.007169798  0.333374796  0.510894532
     0.659455436  0.333374796  0.510894532
     0.007169798  0.659455436  0.510894532
     0.333374766  0.659455436  0.510894532
     0.666666627  0.666666687  0.510182985
     0.333333313  0.333333343  0.500242554
     0.333333313  0.333333343  0.567464460

  ion indices of the primitive-cell ions
   primitive index   ion index
                 1           1
                 2           2
                 3           3
                 4           4
                 5           5
                 6           6
                 7           7
                 8           8
                 9           9
                10          10
                11          11
                12          12
                13          13
                14          14
                15          15
                16          16
                17          17
                18          18
                19          19
                20          20
                21          21
                22          22
                23          23
                24          24
                25          25
                26          26
                27          27
                28          28
                29          29
                30          30
                31          31
                32          32
                33          33
                34          34
                35          35
                36          36
                37          37

----------------------------------------------------------------------------------------

 
 
 KPOINTS: Automatic mesh                          

Automatic generation of k-mesh.
 Grid dimensions read from file:
 generate k-points for:    8    8    1

 Generating k-lattice:

  Cartesian coordinates                     Fractional coordinates (reciprocal lattice)
     0.014218495 -0.008209052  0.000000000     0.125000000 -0.000000000  0.000000000
     0.000000000  0.016418104  0.000000000     0.000000000  0.125000000  0.000000000
     0.000000000  0.000000000  0.041047592     0.000000000  0.000000000  1.000000000

  Length of vectors
     0.016418104  0.016418104  0.041047592

  Shift w.r.t. Gamma in fractional coordinates (k-lattice)
     0.000000000  0.000000000  0.000000000

 TETIRR: Found     36 inequivalent tetrahedra from      384
 
 Subroutine IBZKPT returns following result:
 ===========================================
 
 Found     10 irreducible k-points:
 
 Following reciprocal coordinates:
            Coordinates               Weight
  0.000000  0.000000  0.000000      1.000000
  0.125000  0.000000  0.000000      6.000000
  0.250000  0.000000  0.000000      6.000000
  0.375000 -0.000000  0.000000      6.000000
  0.500000  0.000000  0.000000      3.000000
  0.250000  0.125000  0.000000      6.000000
  0.375000  0.125000  0.000000     12.000000
  0.500000  0.125000  0.000000     12.000000
  0.500000  0.250000  0.000000      6.000000
 -0.375000  0.250000  0.000000      6.000000
 
 Following cartesian coordinates:
            Coordinates               Weight
  0.000000  0.000000  0.000000      1.000000
  0.014218 -0.008209  0.000000      6.000000
  0.028437 -0.016418  0.000000      6.000000
  0.042655 -0.024627  0.000000      6.000000
  0.056874 -0.032836  0.000000      3.000000
  0.028437 -0.000000  0.000000      6.000000
  0.042655 -0.008209  0.000000     12.000000
  0.056874 -0.016418  0.000000     12.000000
  0.056874 -0.000000  0.000000      6.000000
 -0.042655  0.057463  0.000000      6.000000
 


--------------------------------------------------------------------------------------------------------




 Dimension of arrays:
   k-points           NKPTS =     10   k-points in BZ     NKDIM =     10   number of bands    NBANDS=    252
   number of dos      NEDOS =    301   number of ions     NIONS =     37
   non local maximal  LDIM  =      6   non local SUM 2l+1 LMDIM =     18
   total plane-waves  NPLWV = 322560
   max r-space proj   IRMAX =   2480   max aug-charges    IRDMAX=  10304
   dimension x,y,z NGX =    48 NGY =   48 NGZ =  140
   dimension x,y,z NGXF=    96 NGYF=   96 NGZF=  280
   support grid    NGXF=    96 NGYF=   96 NGZF=  280
   ions per type =              35   1   1
   NGX,Y,Z   is equivalent  to a cutoff of   9.08,  9.08,  9.55 a.u.
   NGXF,Y,Z  is equivalent  to a cutoff of  18.15, 18.15, 19.11 a.u.

 SYSTEM =  unknown system                          
 POSCAR =  Ag-Cr-C                                 

 Startparameter for this run:
   NWRITE =      2    write-flag & timer
   PREC   = normal    normal or accurate (medium, high low for compatibility)
   ISTART =      0    job   : 0-new  1-cont  2-samecut
   ICHARG =     11    charge: 1-file 2-atom 10-const
   ISPIN  =      1    spin polarized calculation?
   LNONCOLLINEAR =      F non collinear calculations
   LSORBIT =      F    spin-orbit coupling
   INIWAV =      1    electr: 0-lowe 1-rand  2-diag
   LASPH  =      F    aspherical Exc in radial PAW
   METAGGA=      F    non-selfconsistent MetaGGA calc.

 Electronic Relaxation 1
   ENCUT  =  500.0 eV  36.75 Ry    6.06 a.u.  16.03 16.03 44.42*2*pi/ulx,y,z
   ENINI  =  500.0     initial cutoff
   ENAUG  =  644.9 eV  augmentation charge cutoff
   NELM   =    150;   NELMIN=  2; NELMDL= -5     # of ELM steps 
   EDIFF  = 0.1E-04   stopping-criterion for ELM
   LREAL  =      T    real-space projection
   NLSPLINE    = F    spline interpolate recip. space projectors
   LCOMPAT=      F    compatible to vasp.4.4
   GGA_COMPAT  = T    GGA compatible to vasp.4.4-vasp.4.6
   LMAXPAW     = -100 max onsite density
   LMAXMIX     =    2 max onsite mixed and CHGCAR
   VOSKOWN=      0    Vosko Wilk Nusair interpolation
   ROPT   =   -0.00050  -0.00050  -0.00050
 Ionic relaxation
   EDIFFG = -.1E-01   stopping-criterion for IOM
   NSW    =      0    number of steps for IOM
   NBLOCK =      1;   KBLOCK =      1    inner block; outer block 
   IBRION =     -1    ionic relax: 0-MD 1-quasi-New 2-CG
   NFREE  =      1    steps in history (QN), initial steepest desc. (CG)
   ISIF   =      2    stress and relaxation
   IWAVPR =     10    prediction:  0-non 1-charg 2-wave 3-comb
   ISYM   =      2    0-nonsym 1-usesym 2-fastsym
   LCORR  =      T    Harris-Foulkes like correction to forces

   POTIM  = 0.5000    time-step for ionic-motion
   TEIN   =    0.0    initial temperature
   TEBEG  =    0.0;   TEEND  =   0.0 temperature during run
   SMASS  =  -3.00    Nose mass-parameter (am)
   estimated Nose-frequenzy (Omega)   =  0.10E-29 period in steps = 0.13E+47 mass=  -0.177E-26a.u.
   SCALEE = 1.0000    scale energy and forces
   NPACO  =    256;   APACO  = 16.0  distance and # of slots for P.C.
   PSTRESS=    0.0 pullay stress

  Mass of Ions in am
   POMASS = 107.87 52.00 12.01
  Ionic Valenz
   ZVAL   =  11.00  6.00  4.00
  Atomic Wigner-Seitz radii
   RWIGS  =  -1.00 -1.00 -1.00
  virtual crystal weights 
   VCA    =   1.00  1.00  1.00
   NELECT =     395.0000    total number of electrons
   NUPDOWN=      -1.0000    fix difference up-down

 DOS related values:
   EMIN   =  10.00;   EMAX   =-10.00  energy-range for DOS
   EFERMI =   0.00
   ISMEAR =    -5;   SIGMA  =   0.10  broadening in eV -4-tet -1-fermi 0-gaus

 Electronic relaxation 2 (details)
   IALGO  =     68    algorithm
   LDIAG  =      T    sub-space diagonalisation (order eigenvalues)
   LSUBROT=      F    optimize rotation matrix (better conditioning)
   TURBO    =      0    0=normal 1=particle mesh
   IRESTART =      0    0=no restart 2=restart with 2 vectors
   NREBOOT  =      0    no. of reboots
   NMIN     =      0    reboot dimension
   EREF     =   0.00    reference energy to select bands
   IMIX   =      4    mixing-type and parameters
     AMIX     =   0.40;   BMIX     =  1.00
     AMIX_MAG =   1.60;   BMIX_MAG =  1.00
     AMIN     =   0.10
     WC   =   100.;   INIMIX=   1;  MIXPRE=   1;  MAXMIX= -45

 Intra band minimization:
   WEIMIN = 0.0000     energy-eigenvalue tresh-hold
   EBREAK =  0.99E-08  absolut break condition
   DEPER  =   0.30     relativ break condition  

   TIME   =   0.40     timestep for ELM

  volume/ion in A,a.u.               =      44.07       297.41
  Fermi-wavevector in a.u.,A,eV,Ry     =   1.020521  1.928505 14.169966  1.041463
  Thomas-Fermi vector in A             =   2.154095
 
 Write flags
   LWAVE        =      F    write WAVECAR
   LDOWNSAMPLE  =      F    k-point downsampling of WAVECAR
   LCHARG       =      F    write CHGCAR
   LVTOT        =      F    write LOCPOT, total local potential
   LVHAR        =      F    write LOCPOT, Hartree potential only
   LELF         =      F    write electronic localiz. function (ELF)
   LORBIT       =     10    0 simple, 1 ext, 2 COOP (PROOUT), +10 PAW based schemes


 Dipole corrections
   LMONO  =      F    monopole corrections only (constant potential shift)
   LDIPOL =      F    correct potential (dipole corrections)
   IDIPOL =      0    1-x, 2-y, 3-z, 4-all directions 
   EPSILON=  1.0000000 bulk dielectric constant

 Exchange correlation treatment:
   GGA     =    --    GGA type
   LEXCH   =     8    internal setting for exchange type
   VOSKOWN=      0    Vosko Wilk Nusair interpolation
   LHFCALC =     F    Hartree Fock is set to
   LHFONE  =     F    Hartree Fock one center treatment
   AEXX    =    0.0000 exact exchange contribution

 Linear response parameters
   LEPSILON=     F    determine dielectric tensor
   LRPA    =     F    only Hartree local field effects (RPA)
   LNABLA  =     F    use nabla operator in PAW spheres
   LVEL    =     F    velocity operator in full k-point grid
   LINTERFAST=   F  fast interpolation
   KINTER  =     0    interpolate to denser k-point grid
   CSHIFT  =0.1000    complex shift for real part using Kramers Kronig
   OMEGAMAX=  -1.0    maximum frequency
   DEG_THRESHOLD= 0.2000000E-02 threshold for treating states as degnerate
   RTIME   =   -0.100 relaxation time in fs
  (WPLASMAI=    0.000 imaginary part of plasma frequency in eV, 0.658/RTIME)
   DFIELD  = 0.0000000 0.0000000 0.0000000 field for delta impulse in time
 
 Orbital magnetization related:
   ORBITALMAG=     F  switch on orbital magnetization
   LCHIMAG   =     F  perturbation theory with respect to B field
   DQ        =  0.001000  dq finite difference perturbation B field
   LLRAUG    =     F  two centre corrections for induced B field



--------------------------------------------------------------------------------------------------------


 Static calculation
 charge density and potential remain constant during run
 non-spin polarized calculation
 RMM-DIIS sequential band-by-band and
  variant of blocked Davidson during initial phase
 perform sub-space diagonalisation
    before iterative eigenvector-optimisation
 no mixing
 using additional bands           54
 real space projection scheme for non local part
 use partial core corrections
 calculate Harris-corrections to forces 
   (improved forces if not selfconsistent)
 use gradient corrections 
 WARNING: stress and forces are not correct
  (second derivative of E(xc) not defined)
 use of overlap-Matrix (Vanderbilt PP)
 Fermi weights with tetrahedron method with Bloechl corrections


--------------------------------------------------------------------------------------------------------


  energy-cutoff  :      500.00
  volume of cell :     1630.63
      direct lattice vectors                 reciprocal lattice vectors
     8.791366577  0.000000000  0.000000000     0.113747958 -0.065672414  0.000000000
     4.395683289  7.613546790  0.000000000     0.000000000  0.131344829  0.000000000
     0.000000000  0.000000000 24.361965240     0.000000000  0.000000000  0.041047592

  length of vectors
     8.791366577  8.791366577 24.361965240     0.131344829  0.131344829  0.041047592


 
 k-points in units of 2pi/SCALE and weight: Automatic mesh                          
   0.00000000  0.00000000  0.00000000       0.016
   0.01421849 -0.00820905  0.00000000       0.094
   0.02843699 -0.01641810  0.00000000       0.094
   0.04265548 -0.02462716  0.00000000       0.094
   0.05687398 -0.03283621  0.00000000       0.047
   0.02843699 -0.00000000  0.00000000       0.094
   0.04265548 -0.00820905  0.00000000       0.188
   0.05687398 -0.01641810  0.00000000       0.188
   0.05687398 -0.00000000  0.00000000       0.094
  -0.04265548  0.05746336  0.00000000       0.094
 
 k-points in reciprocal lattice and weights: Automatic mesh                          
   0.00000000  0.00000000  0.00000000       0.016
   0.12500000  0.00000000  0.00000000       0.094
   0.25000000  0.00000000  0.00000000       0.094
   0.37500000 -0.00000000  0.00000000       0.094
   0.50000000  0.00000000  0.00000000       0.047
   0.25000000  0.12500000  0.00000000       0.094
   0.37500000  0.12500000  0.00000000       0.188
   0.50000000  0.12500000  0.00000000       0.188
   0.50000000  0.25000000  0.00000000       0.094
  -0.37500000  0.25000000  0.00000000       0.094
 
 position of ions in fractional coordinates (direct lattice) 
   0.00000000  0.00000000  0.21682110
   0.33333331  0.00000000  0.21682110
   0.66666663  0.00000000  0.21682110
   0.00000000  0.33333334  0.21682110
   0.33333331  0.33333334  0.21682110
   0.66666669  0.33333334  0.21682110
   0.00000000  0.66666669  0.21682110
   0.33333331  0.66666669  0.21682110
   0.66666663  0.66666669  0.21682110
   0.11111110  0.11111111  0.31503597
   0.44444445  0.11111111  0.31503597
   0.77777779  0.11111111  0.31503597
   0.11111110  0.44444445  0.31503597
   0.44444442  0.44444445  0.31503597
   0.77777779  0.44444445  0.31503597
   0.11111110  0.77777779  0.31503597
   0.44444445  0.77777779  0.31503597
   0.77777779  0.77777779  0.31503597
   0.88876779  0.22246443  0.41287348
   0.22289072  0.22289073  0.41208030
   0.55421851  0.22289073  0.41208030
   0.88847313  0.55576347  0.41270066
   0.22289073  0.55421857  0.41208030
   0.55576347  0.55576347  0.41270066
   0.88876779  0.88876779  0.41287348
   0.22246440  0.88876779  0.41287348
   0.55576341  0.88847313  0.41270066
   0.00000000  0.00000000  0.51007490
   0.33337477  0.00716980  0.51089453
   0.65945538  0.00716980  0.51089453
   0.00716980  0.33337480  0.51089453
   0.65945544  0.33337480  0.51089453
   0.00716980  0.65945544  0.51089453
   0.33337477  0.65945544  0.51089453
   0.66666663  0.66666669  0.51018299
   0.33333331  0.33333334  0.50024255
   0.33333331  0.33333334  0.56746446
 
 position of ions in cartesian coordinates  (Angst):
   0.00000000  0.00000000  5.28218814
   2.93045535  0.00000000  5.28218814
   5.86091070  0.00000000  5.28218814
   1.46522781  2.53784900  5.28218814
   4.39568315  2.53784900  5.28218814
   7.32613904  2.53784900  5.28218814
   2.93045562  5.07569801  5.28218814
   5.86091096  5.07569801  5.28218814
   8.79136632  5.07569801  5.28218814
   1.46522770  0.84594965  7.67489535
   4.39568332  0.84594965  7.67489535
   7.32613893  0.84594965  7.67489535
   2.93045542  3.38379860  7.67489535
   5.86091083  3.38379860  7.67489535
   8.79136671  3.38379860  7.67489535
   4.39568328  5.92164760  7.67489535
   7.32613890  5.92164760  7.67489535
  10.25659451  5.92164760  7.67489535
   8.79136665  1.69374335 10.05840929
   2.93927105  1.69698901 10.03908597
   5.85209513  1.69698901 10.03908597
  10.25385314  4.23133116 10.05419916
   4.39568342  4.21956900 10.03908597
   7.32888055  4.23133116 10.05419916
  11.72022521  6.76667518 10.05840929
   5.86250783  6.76667518 10.05840929
   8.79136631  6.76443172 10.05419916
   0.00000000  0.00000000 12.42642706
   2.96233593  0.05458759 12.44639484
   5.82903012  0.05458759 12.44639484
   1.52844234  2.53816460 12.44639484
   7.26292450  2.53816460 12.44639484
   2.96178957  5.02079482 12.44639484
   5.82957701  5.02079482 12.44639484
   8.79136632  5.07569801 12.42906015
   4.39568315  2.53784900 12.18689171
   4.39568315  2.53784900 13.82454945
 


--------------------------------------------------------------------------------------------------------


 k-point   1 :   0.0000 0.0000 0.0000  plane waves:   41267
 k-point   2 :   0.1250 0.0000 0.0000  plane waves:   41346
 k-point   3 :   0.2500 0.0000 0.0000  plane waves:   41360
 k-point   4 :   0.3750-0.0000 0.0000  plane waves:   41412
 k-point   5 :   0.5000 0.0000 0.0000  plane waves:   41412
 k-point   6 :   0.2500 0.1250 0.0000  plane waves:   41336
 k-point   7 :   0.3750 0.1250 0.0000  plane waves:   41420
 k-point   8 :   0.5000 0.1250 0.0000  plane waves:   41406
 k-point   9 :   0.5000 0.2500 0.0000  plane waves:   41444
 k-point  10 :  -0.3750 0.2500 0.0000  plane waves:   41438

 maximum and minimum number of plane-waves per node :     41444    41267

 maximum number of plane-waves:     41444
 maximum index in each direction: 
   IXMAX=   16   IYMAX=   16   IZMAX=   44
   IXMIN=  -16   IYMIN=  -16   IZMIN=  -44


 serial   3D FFT for wavefunctions
 parallel 3D FFT for charge:
    minimum data exchange during FFTs selected (reduces bandwidth)


 total amount of memory used by VASP MPI-rank0   131004. kBytes
=======================================================================

   base      :      30000. kBytes
   nonlr-proj:      15083. kBytes
   fftplans  :       4808. kBytes
   grid      :      19857. kBytes
   one-center:        575. kBytes
   wavefun   :      60681. kBytes
 
     INWAV:  cpu time    0.0000: real time    0.0000
 initial charge density was supplied:
 number of electron     395.0000105 magnetization 
 keeping initial charge density in first step


--------------------------------------------------------------------------------------------------------


 Maximum index for non-local projection operator         2370
 Maximum index for augmentation-charges          715 (set IRDMAX)


--------------------------------------------------------------------------------------------------------


 First call to EWALD:  gamma=   0.151
 Maximum number of real-space cells 4x 4x 2
 Maximum number of reciprocal cells 2x 2x 5

    FEWALD:  cpu time    0.0013: real time    0.0013


--------------------------------------- Iteration      1(   1)  ---------------------------------------


    POTLOK:  cpu time    0.0495: real time    0.0498
    SETDIJ:  cpu time    0.0044: real time    0.0045
     EDDAV:  cpu time    7.7872: real time    7.7889
 BZINTS: Fermi energy:    9.130786;  395.000000 electrons
         Band energy: 0.101527E+04;  BLOECHL correction:   -0.012126
       DOS:  cpu time    0.0100: real time    0.0101
    --------------------------------------------
      LOOP:  cpu time    7.8511: real time    7.8533

 eigenvalue-minimisations  :  5040
 total energy-change (2. order) : 0.2419142E+04  (-0.1779346E+05)
 number of electron     395.0000105 magnetization 
 augmentation part      395.0000105 magnetization 

 Free energy of the ion-electron system (eV)
  ---------------------------------------------------
  alpha Z        PSCENC =       677.24882292
  Ewald energy   TEWEN  =    129661.20416951
  -Hartree energ DENC   =   -166821.64665935
  -exchange      EXHF   =         0.00000000
  -V(xc)+E(xc)   XCENC  =      -396.89078213
  PAW double counting   =     38885.61344163   -37329.86797382
  entropy T*S    EENTRO =         0.00000000
  eigenvalues    EBANDS =      1015.26700916
  atomic energy  EATOM  =     36728.21393957
  Solvation  Ediel_sol  =         0.00000000
  ---------------------------------------------------
  free energy    TOTEN  =      2419.14196748 eV

  energy without entropy =     2419.14196748  energy(sigma->0) =     2419.14196748


--------------------------------------------------------------------------------------------------------




--------------------------------------- Iteration      1(   2)  ---------------------------------------


     EDDAV:  cpu time    7.9050: real time    7.9079
 BZINTS: Fermi energy:    0.938668;  395.000000 electrons
         Band energy:-0.141109E+04;  BLOECHL correction:   -0.040616
       DOS:  cpu time    0.0097: real time    0.0097
    --------------------------------------------
      LOOP:  cpu time    7.9148: real time    7.9176

 eigenvalue-minimisations  :  5152
 total energy-change (2. order) :-0.2426358E+04  (-0.2297521E+04)
 number of electron     395.0000105 magnetization 
 augmentation part      395.0000105 magnetization 

 Free energy of the ion-electron system (eV)
  ---------------------------------------------------
  alpha Z        PSCENC =       677.24882292
  Ewald energy   TEWEN  =    129661.20416951
  -Hartree energ DENC   =   -166821.64665935
  -exchange      EXHF   =         0.00000000
  -V(xc)+E(xc)   XCENC  =      -396.89078213
  PAW double counting   =     38885.61344163   -37329.86797382
  entropy T*S    EENTRO =         0.00000000
  eigenvalues    EBANDS =     -1411.09060937
  atomic energy  EATOM  =     36728.21393957
  Solvation  Ediel_sol  =         0.00000000
  ---------------------------------------------------
  free energy    TOTEN  =        -7.21565105 eV

  energy without entropy =       -7.21565105  energy(sigma->0) =       -7.21565105


--------------------------------------------------------------------------------------------------------




--------------------------------------- Iteration      1(   3)  ---------------------------------------


     EDDAV:  cpu time    8.7058: real time    8.7060
 BZINTS: Fermi energy:    0.277576;  395.000000 electrons
         Band energy:-0.150442E+04;  BLOECHL correction:   -0.027756
       DOS:  cpu time    0.0091: real time    0.0091
    --------------------------------------------
      LOOP:  cpu time    8.7149: real time    8.7151

 eigenvalue-minimisations  :  5796
 total energy-change (2. order) :-0.9333001E+02  (-0.8995309E+02)
 number of electron     395.0000105 magnetization 
 augmentation part      395.0000105 magnetization 

 Free energy of the ion-electron system (eV)
  ---------------------------------------------------
  alpha Z        PSCENC =       677.24882292
  Ewald energy   TEWEN  =    129661.20416951
  -Hartree energ DENC   =   -166821.64665935
  -exchange      EXHF   =         0.00000000
  -V(xc)+E(xc)   XCENC  =      -396.89078213
  PAW double counting   =     38885.61344163   -37329.86797382
  entropy T*S    EENTRO =         0.00000000
  eigenvalues    EBANDS =     -1504.42062381
  atomic energy  EATOM  =     36728.21393957
  Solvation  Ediel_sol  =         0.00000000
  ---------------------------------------------------
  free energy    TOTEN  =      -100.54566549 eV

  energy without entropy =     -100.54566549  energy(sigma->0) =     -100.54566549


--------------------------------------------------------------------------------------------------------




--------------------------------------- Iteration      1(   4)  ---------------------------------------


     EDDAV:  cpu time    8.4931: real time    8.4933
 BZINTS: Fermi energy:    0.261928;  395.000000 electrons
         Band energy:-0.150657E+04;  BLOECHL correction:   -0.028905
       DOS:  cpu time    0.0100: real time    0.0100
    --------------------------------------------
      LOOP:  cpu time    8.5031: real time    8.5033

 eigenvalue-minimisations  :  5628
 total energy-change (2. order) :-0.2148574E+01  (-0.2130271E+01)
 number of electron     395.0000105 magnetization 
 augmentation part      395.0000105 magnetization 

 Free energy of the ion-electron system (eV)
  ---------------------------------------------------
  alpha Z        PSCENC =       677.24882292
  Ewald energy   TEWEN  =    129661.20416951
  -Hartree energ DENC   =   -166821.64665935
  -exchange      EXHF   =         0.00000000
  -V(xc)+E(xc)   XCENC  =      -396.89078213
  PAW double counting   =     38885.61344163   -37329.86797382
  entropy T*S    EENTRO =         0.00000000
  eigenvalues    EBANDS =     -1506.56919823
  atomic energy  EATOM  =     36728.21393957
  Solvation  Ediel_sol  =         0.00000000
  ---------------------------------------------------
  free energy    TOTEN  =      -102.69423991 eV

  energy without entropy =     -102.69423991  energy(sigma->0) =     -102.69423991


--------------------------------------------------------------------------------------------------------




--------------------------------------- Iteration      1(   5)  ---------------------------------------


     EDDAV:  cpu time    8.9365: real time    8.9365
 BZINTS: Fermi energy:    0.261654;  395.000000 electrons
         Band energy:-0.150663E+04;  BLOECHL correction:   -0.028913
       DOS:  cpu time    0.0100: real time    0.0100
    --------------------------------------------
      LOOP:  cpu time    8.9466: real time    8.9466

 eigenvalue-minimisations  :  5992
 total energy-change (2. order) :-0.6517506E-01  (-0.6515579E-01)
 number of electron     395.0000105 magnetization 
 augmentation part      395.0000105 magnetization 

 Free energy of the ion-electron system (eV)
  ---------------------------------------------------
  alpha Z        PSCENC =       677.24882292
  Ewald energy   TEWEN  =    129661.20416951
  -Hartree energ DENC   =   -166821.64665935
  -exchange      EXHF   =         0.00000000
  -V(xc)+E(xc)   XCENC  =      -396.89078213
  PAW double counting   =     38885.61344163   -37329.86797382
  entropy T*S    EENTRO =         0.00000000
  eigenvalues    EBANDS =     -1506.63437330
  atomic energy  EATOM  =     36728.21393957
  Solvation  Ediel_sol  =         0.00000000
  ---------------------------------------------------
  free energy    TOTEN  =      -102.75941498 eV

  energy without entropy =     -102.75941498  energy(sigma->0) =     -102.75941498


--------------------------------------------------------------------------------------------------------




--------------------------------------- Iteration      1(   6)  ---------------------------------------


    EDDIAG:  cpu time    1.5321: real time    1.5325
  RMM-DIIS:  cpu time    4.5624: real time    4.5624
    ORTHCH:  cpu time    0.2797: real time    0.2797
 BZINTS: Fermi energy:    0.261646;  395.000000 electrons
         Band energy:-0.150664E+04;  BLOECHL correction:   -0.028912
       DOS:  cpu time    0.0100: real time    0.0100
    --------------------------------------------
      LOOP:  cpu time    6.3841: real time    6.3845

 eigenvalue-minimisations  :  5176
 total energy-change (2. order) :-0.1680465E-02  (-0.1680961E-02)
 number of electron     395.0000105 magnetization 
 augmentation part      395.0000105 magnetization 

 Free energy of the ion-electron system (eV)
  ---------------------------------------------------
  alpha Z        PSCENC =       677.24882292
  Ewald energy   TEWEN  =    129661.20416951
  -Hartree energ DENC   =   -166821.64665935
  -exchange      EXHF   =         0.00000000
  -V(xc)+E(xc)   XCENC  =      -396.89078213
  PAW double counting   =     38885.61344163   -37329.86797382
  entropy T*S    EENTRO =         0.00000000
  eigenvalues    EBANDS =     -1506.63605376
  atomic energy  EATOM  =     36728.21393957
  Solvation  Ediel_sol  =         0.00000000
  ---------------------------------------------------
  free energy    TOTEN  =      -102.76109544 eV

  energy without entropy =     -102.76109544  energy(sigma->0) =     -102.76109544


--------------------------------------------------------------------------------------------------------




--------------------------------------- Iteration      1(   7)  ---------------------------------------


    EDDIAG:  cpu time    1.5317: real time    1.5319
  RMM-DIIS:  cpu time    6.5940: real time    6.5940
    ORTHCH:  cpu time    0.2796: real time    0.2796
 BZINTS: Fermi energy:    0.261643;  395.000000 electrons
         Band energy:-0.150664E+04;  BLOECHL correction:   -0.028911
       DOS:  cpu time    0.0102: real time    0.0102
    --------------------------------------------
      LOOP:  cpu time    8.4155: real time    8.4157

 eigenvalue-minimisations  :  7572
 total energy-change (2. order) :-0.7678762E-03  (-0.7469767E-03)
 number of electron     395.0000105 magnetization 
 augmentation part      395.0000105 magnetization 

 Free energy of the ion-electron system (eV)
  ---------------------------------------------------
  alpha Z        PSCENC =       677.24882292
  Ewald energy   TEWEN  =    129661.20416951
  -Hartree energ DENC   =   -166821.64665935
  -exchange      EXHF   =         0.00000000
  -V(xc)+E(xc)   XCENC  =      -396.89078213
  PAW double counting   =     38885.61344163   -37329.86797382
  entropy T*S    EENTRO =         0.00000000
  eigenvalues    EBANDS =     -1506.63682164
  atomic energy  EATOM  =     36728.21393957
  Solvation  Ediel_sol  =         0.00000000
  ---------------------------------------------------
  free energy    TOTEN  =      -102.76186332 eV

  energy without entropy =     -102.76186332  energy(sigma->0) =     -102.76186332


--------------------------------------------------------------------------------------------------------




--------------------------------------- Iteration      1(   8)  ---------------------------------------


    EDDIAG:  cpu time    1.5328: real time    1.5329
  RMM-DIIS:  cpu time    6.1098: real time    6.1098
    ORTHCH:  cpu time    0.2794: real time    0.2794
 BZINTS: Fermi energy:    0.261642;  395.000000 electrons
         Band energy:-0.150664E+04;  BLOECHL correction:   -0.028911
       DOS:  cpu time    0.0100: real time    0.0100
    --------------------------------------------
      LOOP:  cpu time    7.9320: real time    7.9320

 eigenvalue-minimisations  :  6887
 total energy-change (2. order) :-0.7759340E-04  (-0.7417691E-04)
 number of electron     395.0000105 magnetization 
 augmentation part      395.0000105 magnetization 

 Free energy of the ion-electron system (eV)
  ---------------------------------------------------
  alpha Z        PSCENC =       677.24882292
  Ewald energy   TEWEN  =    129661.20416951
  -Hartree energ DENC   =   -166821.64665935
  -exchange      EXHF   =         0.00000000
  -V(xc)+E(xc)   XCENC  =      -396.89078213
  PAW double counting   =     38885.61344163   -37329.86797382
  entropy T*S    EENTRO =         0.00000000
  eigenvalues    EBANDS =     -1506.63689923
  atomic energy  EATOM  =     36728.21393957
  Solvation  Ediel_sol  =         0.00000000
  ---------------------------------------------------
  free energy    TOTEN  =      -102.76194091 eV

  energy without entropy =     -102.76194091  energy(sigma->0) =     -102.76194091


--------------------------------------------------------------------------------------------------------




--------------------------------------- Iteration      1(   9)  ---------------------------------------


    EDDIAG:  cpu time    1.5316: real time    1.5318
  RMM-DIIS:  cpu time    5.0535: real time    5.0535
    ORTHCH:  cpu time    0.2795: real time    0.2795
 BZINTS: Fermi energy:    0.261642;  395.000000 electrons
         Band energy:-0.150664E+04;  BLOECHL correction:   -0.028911
       DOS:  cpu time    0.0100: real time    0.0100
    --------------------------------------------
      LOOP:  cpu time    6.8747: real time    6.8748

 eigenvalue-minimisations  :  5129
 total energy-change (2. order) :-0.1070194E-04  (-0.1058483E-04)
 number of electron     395.0000105 magnetization 
 augmentation part      395.0000105 magnetization 

 Free energy of the ion-electron system (eV)
  ---------------------------------------------------
  alpha Z        PSCENC =       677.24882292
  Ewald energy   TEWEN  =    129661.20416951
  -Hartree energ DENC   =   -166821.64665935
  -exchange      EXHF   =         0.00000000
  -V(xc)+E(xc)   XCENC  =      -396.89078213
  PAW double counting   =     38885.61344163   -37329.86797382
  entropy T*S    EENTRO =         0.00000000
  eigenvalues    EBANDS =     -1506.63690993
  atomic energy  EATOM  =     36728.21393957
  Solvation  Ediel_sol  =         0.00000000
  ---------------------------------------------------
  free energy    TOTEN  =      -102.76195161 eV

  energy without entropy =     -102.76195161  energy(sigma->0) =     -102.76195161


--------------------------------------------------------------------------------------------------------




--------------------------------------- Iteration      1(  10)  ---------------------------------------


    EDDIAG:  cpu time    1.5317: real time    1.5318
  RMM-DIIS:  cpu time    3.5788: real time    3.5787
    ORTHCH:  cpu time    0.2798: real time    0.2798
 BZINTS: Fermi energy:    0.261642;  395.000000 electrons
         Band energy:-0.150664E+04;  BLOECHL correction:   -0.028911
       DOS:  cpu time    0.0100: real time    0.0100
    --------------------------------------------
      LOOP:  cpu time    5.4002: real time    5.4003

 eigenvalue-minimisations  :  3291
 total energy-change (2. order) :-0.1218985E-05  (-0.1167664E-05)
 number of electron     395.0000105 magnetization 
 augmentation part      395.0000105 magnetization 

 Free energy of the ion-electron system (eV)
  ---------------------------------------------------
  alpha Z        PSCENC =       677.24882292
  Ewald energy   TEWEN  =    129661.20416951
  -Hartree energ DENC   =   -166821.64665935
  -exchange      EXHF   =         0.00000000
  -V(xc)+E(xc)   XCENC  =      -396.89078213
  PAW double counting   =     38885.61344163   -37329.86797382
  entropy T*S    EENTRO =         0.00000000
  eigenvalues    EBANDS =     -1506.63691115
  atomic energy  EATOM  =     36728.21393957
  Solvation  Ediel_sol  =         0.00000000
  ---------------------------------------------------
  free energy    TOTEN  =      -102.76195283 eV

  energy without entropy =     -102.76195283  energy(sigma->0) =     -102.76195283


--------------------------------------------------------------------------------------------------------




 average (electrostatic) potential at core
  the test charge radii are     1.1249  1.1394  0.6991
  (the norm of the test charge is              1.0000)
       1 -78.6410       2 -78.6218       3 -78.6218       4 -78.6218       5 -78.6186
       6 -78.6216       7 -78.6218       8 -78.6216       9 -78.6384      10 -78.8600
      11 -78.8542      12 -78.8599      13 -78.8542      14 -78.8541      15 -78.8491
      16 -78.8598      17 -78.8491      18 -78.8490      19 -78.8345      20 -78.9936
      21 -78.9936      22 -78.8477      23 -78.9936      24 -78.8479      25 -78.8343
      26 -78.8344      27 -78.8477      28 -78.6320      29 -78.6164      30 -78.6164
      31 -78.6164      32 -78.6164      33 -78.6164      34 -78.6164      35 -78.6025
      36 -48.3501      37 -54.1188
 
 
 
 E-fermi :   0.2616     XC(G=0):  -5.4343     alpha+bet : -5.1044

 Fermi energy:         0.2616423361

 k-point     1 :       0.0000    0.0000    0.0000
  band No.  band energies     occupation 
      1      -8.2078      2.00000
      2      -6.8321      2.00000
      3      -5.9746      2.00000
      4      -5.6884      2.00000
      5      -5.6098      2.00000
      6      -5.5932      2.00000
      7      -5.5931      2.00000
      8      -5.5845      2.00000
      9      -5.5831      2.00000
     10      -5.5831      2.00000
     11      -5.5650      2.00000
     12      -5.5432      2.00000
     13      -5.5432      2.00000
     14      -5.5401      2.00000
     15      -5.5300      2.00000
     16      -5.5300      2.00000
     17      -5.4781      2.00000
     18      -5.3933      2.00000
     19      -5.3856      2.00000
     20      -5.3855      2.00000
     21      -5.3724      2.00000
     22      -5.3604      2.00000
     23      -5.3604      2.00000
     24      -5.1891      2.00000
     25      -5.1811      2.00000
     26      -5.1811      2.00000
     27      -5.1708      2.00000
     28      -5.1582      2.00000
     29      -5.1499      2.00000
     30      -5.1498      2.00000
     31      -5.1485      2.00000
     32      -5.1313      2.00000
     33      -5.1313      2.00000
     34      -5.1192      2.00000
     35      -5.1192      2.00000
     36      -5.0339      2.00000
     37      -5.0224      2.00000
     38      -5.0224      2.00000
     39      -4.9576      2.00000
     40      -4.8911      2.00000
     41      -4.8910      2.00000
     42      -4.8033      2.00000
     43      -4.8033      2.00000
     44      -4.7915      2.00000
     45      -4.7811      2.00000
     46      -4.7811      2.00000
     47      -4.7725      2.00000
     48      -4.7725      2.00000
     49      -4.7526      2.00000
     50      -4.7378      2.00000
     51      -4.7378      2.00000
     52      -4.6399      2.00000
     53      -4.6311      2.00000
     54      -4.6165      2.00000
     55      -4.6055      2.00000
     56      -4.4095      2.00000
     57      -4.4048      2.00000
     58      -4.4048      2.00000
     59      -4.3959      2.00000
     60      -4.3959      2.00000
     61      -4.3933      2.00000
     62      -4.3683      2.00000
     63      -4.3683      2.00000
     64      -4.3597      2.00000
     65      -4.3363      2.00000
     66      -4.3363      2.00000
     67      -4.2483      2.00000
     68      -4.2483      2.00000
     69      -4.2298      2.00000
     70      -4.2298      2.00000
     71      -4.2279      2.00000
     72      -4.2222      2.00000
     73      -4.2149      2.00000
     74      -4.2149      2.00000
     75      -4.1980      2.00000
     76      -4.1980      2.00000
     77      -4.1915      2.00000
     78      -4.1569      2.00000
     79      -4.1569      2.00000
     80      -4.1549      2.00000
     81      -4.1444      2.00000
     82      -4.1444      2.00000
     83      -4.1312      2.00000
     84      -4.0775      2.00000
     85      -4.0775      2.00000
     86      -4.0119      2.00000
     87      -4.0119      2.00000
     88      -4.0116      2.00000
     89      -3.9950      2.00000
     90      -3.9950      2.00000
     91      -3.9740      2.00000
     92      -3.9740      2.00000
     93      -3.9302      2.00000
     94      -3.9302      2.00000
     95      -3.9251      2.00000
     96      -3.9251      2.00000
     97      -3.9174      2.00000
     98      -3.8998      2.00000
     99      -3.8998      2.00000
    100      -3.6991      2.00000
    101      -3.6848      2.00000
    102      -3.6848      2.00000
    103      -3.6756      2.00000
    104      -3.6756      2.00000
    105      -3.6538      2.00000
    106      -3.6423      2.00000
    107      -3.6423      2.00000
    108      -3.6272      2.00000
    109      -3.6055      2.00000
    110      -3.6054      2.00000
    111      -3.5660      2.00000
    112      -3.5629      2.00000
    113      -3.5130      2.00000
    114      -3.5130      2.00000
    115      -3.4777      2.00000
    116      -3.4256      2.00000
    117      -3.4256      2.00000
    118      -3.3927      2.00000
    119      -3.3927      2.00000
    120      -3.3731      2.00000
    121      -3.3731      2.00000
    122      -3.3552      2.00000
    123      -3.3552      2.00000
    124      -3.3295      2.00000
    125      -3.3144      2.00000
    126      -3.3144      2.00000
    127      -3.3005      2.00000
    128      -3.3005      2.00000
    129      -3.2990      2.00000
    130      -3.2837      2.00000
    131      -3.2837      2.00000
    132      -3.2814      2.00000
    133      -3.2796      2.00000
    134      -3.1942      2.00000
    135      -3.1942      2.00000
    136      -3.1107      2.00000
    137      -3.1064      2.00000
    138      -3.1064      2.00000
    139      -3.0957      2.00000
    140      -3.0942      2.00000
    141      -3.0942      2.00000
    142      -3.0792      2.00000
    143      -3.0791      2.00000
    144      -3.0655      2.00000
    145      -3.0644      2.00000
    146      -3.0591      2.00000
    147      -3.0591      2.00000
    148      -3.0142      2.00000
    149      -2.9960      2.00000
    150      -2.9910      2.00000
    151      -2.9864      2.00000
    152      -2.9864      2.00000
    153      -2.9820      2.00000
    154      -2.9819      2.00000
    155      -2.9499      2.00000
    156      -2.9499      2.00000
    157      -2.9356      2.00000
    158      -2.9121      2.00000
    159      -2.9120      2.00000
    160      -2.9016      2.00000
    161      -2.8951      2.00000
    162      -2.8930      2.00000
    163      -2.8838      2.00000
    164      -2.8838      2.00000
    165      -2.8819      2.00000
    166      -2.8540      2.00000
    167      -2.8498      2.00000
    168      -2.8498      2.00000
    169      -2.8267      2.00000
    170      -2.8267      2.00000
    171      -2.8238      2.00000
    172      -2.7929      2.00000
    173      -2.7929      2.00000
    174      -2.7271      2.00000
    175      -2.7271      2.00000
    176      -2.7061      2.00000
    177      -2.6988      2.00000
    178      -2.6988      2.00000
    179      -2.6744      2.00000
    180      -2.6341      2.00000
    181      -2.6341      2.00000
    182      -2.6157      2.00000
    183      -2.5900      2.00000
    184      -2.5900      2.00000
    185      -2.5454      2.00000
    186      -1.9960      2.00000
    187      -1.9960      2.00000
    188      -1.8324      2.00000
    189      -1.8324      2.00000
    190      -1.8106      2.00000
    191      -1.6171      2.00000
    192      -1.2243      2.00000
    193      -1.2242      2.00000
    194      -1.0265      2.00000
    195      -0.4524      2.00000
    196      -0.1362      2.00000
    197      -0.1362      2.00000
    198      -0.0812      2.00000
    199       0.0952      2.00000
    200       0.1160      2.53226
    201       0.1160      1.86648
    202       0.4003      0.00000
    203       0.4003      0.00000
    204       0.9034      0.00000
    205       2.0269      0.00000
    206       2.1392      0.00000
    207       2.1799      0.00000
    208       2.1800      0.00000
    209       2.3274      0.00000
    210       2.3275      0.00000
    211       3.0355      0.00000
    212       3.0355      0.00000
    213       3.5146      0.00000
    214       3.5673      0.00000
    215       3.7097      0.00000
    216       3.7097      0.00000
    217       3.9023      0.00000
    218       3.9023      0.00000
    219       4.1587      0.00000
    220       4.4955      0.00000
    221       4.4956      0.00000
    222       4.5123      0.00000
    223       4.5143      0.00000
    224       4.5471      0.00000
    225       4.5472      0.00000
    226       4.5728      0.00000
    227       4.5728      0.00000
    228       4.7956      0.00000
    229       4.8655      0.00000
    230       4.8912      0.00000
    231       5.0785      0.00000
    232       5.0785      0.00000
    233       5.5298      0.00000
    234       5.7483      0.00000
    235       5.9222      0.00000
    236       6.1024      0.00000
    237       6.1024      0.00000
    238       6.3054      0.00000
    239       6.3336      0.00000
    240       6.3337      0.00000
    241       6.5025      0.00000
    242       6.5025      0.00000
    243       6.5206      0.00000
    244       6.6412      0.00000
    245       6.6415      0.00000
    246       6.6701      0.00000
    247       6.7416      0.00000
    248       6.7956      0.00000
    249       6.7994      0.00000
    250       6.8390      0.00000
    251       6.8692      0.00000
    252       6.8713      0.00000

 k-point     2 :       0.1250    0.0000    0.0000
  band No.  band energies     occupation 
      1      -8.2056      2.00000
      2      -6.7876      2.00000
      3      -5.9362      2.00000
      4      -5.6562      2.00000
      5      -5.6532      2.00000
      6      -5.6149      2.00000
      7      -5.5948      2.00000
      8      -5.5882      2.00000
      9      -5.5812      2.00000
     10      -5.5671      2.00000
     11      -5.5631      2.00000
     12      -5.5468      2.00000
     13      -5.5374      2.00000
     14      -5.4849      2.00000
     15      -5.4799      2.00000
     16      -5.4696      2.00000
     17      -5.4602      2.00000
     18      -5.4442      2.00000
     19      -5.4238      2.00000
     20      -5.4219      2.00000
     21      -5.3178      2.00000
     22      -5.3092      2.00000
     23      -5.2645      2.00000
     24      -5.2514      2.00000
     25      -5.2442      2.00000
     26      -5.2363      2.00000
     27      -5.1877      2.00000
     28      -5.1816      2.00000
     29      -5.1482      2.00000
     30      -5.1427      2.00000
     31      -5.1128      2.00000
     32      -5.1038      2.00000
     33      -5.0976      2.00000
     34      -5.0523      2.00000
     35      -5.0387      2.00000
     36      -5.0362      2.00000
     37      -5.0117      2.00000
     38      -5.0022      2.00000
     39      -4.9160      2.00000
     40      -4.8768      2.00000
     41      -4.8699      2.00000
     42      -4.8654      2.00000
     43      -4.8561      2.00000
     44      -4.8430      2.00000
     45      -4.8199      2.00000
     46      -4.8046      2.00000
     47      -4.7955      2.00000
     48      -4.7935      2.00000
     49      -4.7353      2.00000
     50      -4.7226      2.00000
     51      -4.6898      2.00000
     52      -4.6306      2.00000
     53      -4.6175      2.00000
     54      -4.5963      2.00000
     55      -4.5886      2.00000
     56      -4.4361      2.00000
     57      -4.4215      2.00000
     58      -4.4213      2.00000
     59      -4.4106      2.00000
     60      -4.3930      2.00000
     61      -4.3894      2.00000
     62      -4.3861      2.00000
     63      -4.3715      2.00000
     64      -4.3611      2.00000
     65      -4.3561      2.00000
     66      -4.3192      2.00000
     67      -4.2918      2.00000
     68      -4.2615      2.00000
     69      -4.2606      2.00000
     70      -4.2536      2.00000
     71      -4.2529      2.00000
     72      -4.2210      2.00000
     73      -4.2191      2.00000
     74      -4.2127      2.00000
     75      -4.2100      2.00000
     76      -4.1889      2.00000
     77      -4.1849      2.00000
     78      -4.1692      2.00000
     79      -4.1632      2.00000
     80      -4.1564      2.00000
     81      -4.1338      2.00000
     82      -4.1258      2.00000
     83      -4.1170      2.00000
     84      -4.1081      2.00000
     85      -4.0884      2.00000
     86      -4.0838      2.00000
     87      -4.0821      2.00000
     88      -4.0565      2.00000
     89      -4.0250      2.00000
     90      -4.0224      2.00000
     91      -3.9789      2.00000
     92      -3.9784      2.00000
     93      -3.9429      2.00000
     94      -3.9263      2.00000
     95      -3.9006      2.00000
     96      -3.8775      2.00000
     97      -3.8316      2.00000
     98      -3.7984      2.00000
     99      -3.7970      2.00000
    100      -3.7571      2.00000
    101      -3.7399      2.00000
    102      -3.7228      2.00000
    103      -3.7193      2.00000
    104      -3.6847      2.00000
    105      -3.6846      2.00000
    106      -3.6734      2.00000
    107      -3.6588      2.00000
    108      -3.6290      2.00000
    109      -3.6030      2.00000
    110      -3.6025      2.00000
    111      -3.5773      2.00000
    112      -3.5654      2.00000
    113      -3.5216      2.00000
    114      -3.5177      2.00000
    115      -3.4855      2.00000
    116      -3.4804      2.00000
    117      -3.4737      2.00000
    118      -3.4484      2.00000
    119      -3.4448      2.00000
    120      -3.4195      2.00000
    121      -3.4175      2.00000
    122      -3.3794      2.00000
    123      -3.3794      2.00000
    124      -3.3683      2.00000
    125      -3.3625      2.00000
    126      -3.3546      2.00000
    127      -3.3432      2.00000
    128      -3.3214      2.00000
    129      -3.3071      2.00000
    130      -3.3068      2.00000
    131      -3.2835      2.00000
    132      -3.2677      2.00000
    133      -3.2668      2.00000
    134      -3.2475      2.00000
    135      -3.2268      2.00000
    136      -3.2174      2.00000
    137      -3.1934      2.00000
    138      -3.1880      2.00000
    139      -3.1740      2.00000
[...]
  0.000   0.000   0.000   0.000   0.000   0.000   0.000   0.000   0.000   0.000   0.000   0.000   0.000   0.000   0.000   0.000
  0.000   0.000   0.000   0.000   0.000   0.000   0.000   0.000   0.000   0.000   0.000   0.000   0.000   0.000   0.000   0.000
  0.000   0.000   0.000   0.000   0.000   0.000   0.000   0.000   0.000   0.000   0.000   0.000   0.000   0.000   0.000   0.000
  0.000   0.000   0.000   0.000   0.000   0.000   0.000   0.000   0.000   0.000   0.000   0.000   0.000   0.000   0.000   0.000
  0.000   0.000   0.000   0.000   0.000   0.000   0.000   0.000   0.000   0.000   0.000   0.000   0.000   0.000   0.000   0.000
  0.000   0.000   0.000   0.000   0.000   0.000   0.000   0.000   0.000   0.000   1.000   0.000   0.000   0.000   0.000   0.000
  0.000   0.000   0.000   0.000   0.000   0.000   0.000   0.000   0.000   0.000   0.000   0.000   0.000   0.000   0.000   0.000
  0.000   0.000   0.000   0.000   0.000   0.000   0.000   0.000   0.000   0.000   0.000   0.000   0.000   0.000   0.000   0.000
  0.000   0.000   0.000   0.000   0.000   0.000   0.000   0.000   0.000   0.000   0.000   0.000   0.000   0.000   0.000   0.000
  0.000   0.000   0.000   0.000   0.000   0.000   0.000   0.000   0.000   0.000   0.000   0.000   0.000   0.000   0.000   0.000
  0.000   0.000   0.000   0.000   0.000   0.000   0.000   0.000   0.000   0.000   0.000   0.000   0.000   0.000   0.000   0.000
  0.000   0.000   0.000   0.000   0.000   0.000   0.000   0.000   0.000   0.000   0.000   0.000   0.000   0.000   0.000   0.000
  0.000   0.000   0.000   0.000   0.000   0.000   0.000   0.000   0.000   0.000   0.000   0.000   0.000   0.000   0.000   0.000


------------------------ aborting loop because EDIFF is reached ----------------------------------------





 total charge

# of ion       s       p       d       tot
------------------------------------------
    1        0.415   0.204   9.177   9.796
    2        0.418   0.203   9.176   9.798
    3        0.418   0.203   9.176   9.798
    4        0.418   0.203   9.176   9.798
    5        0.417   0.203   9.178   9.797
    6        0.418   0.203   9.176   9.798
    7        0.418   0.203   9.176   9.798
    8        0.418   0.203   9.176   9.798
    9        0.413   0.204   9.177   9.794
   10        0.405   0.271   9.164   9.839
   11        0.407   0.270   9.166   9.843
   12        0.405   0.271   9.164   9.839
   13        0.407   0.270   9.166   9.843
   14        0.407   0.270   9.166   9.843
   15        0.402   0.271   9.164   9.838
   16        0.405   0.271   9.164   9.839
   17        0.402   0.271   9.164   9.838
   18        0.402   0.271   9.164   9.838
   19        0.400   0.264   9.168   9.833
   20        0.423   0.295   9.148   9.865
   21        0.423   0.295   9.148   9.865
   22        0.396   0.277   9.164   9.836
   23        0.423   0.295   9.148   9.865
   24        0.396   0.277   9.164   9.836
   25        0.400   0.264   9.168   9.833
   26        0.400   0.264   9.168   9.833
   27        0.396   0.277   9.164   9.836
   28        0.415   0.195   9.178   9.788
   29        0.415   0.207   9.172   9.794
   30        0.415   0.207   9.172   9.794
   31        0.415   0.207   9.172   9.794
   32        0.415   0.207   9.172   9.794
   33        0.415   0.207   9.172   9.794
   34        0.415   0.207   9.172   9.794
   35        0.415   0.197   9.177   9.789
   36        0.465   0.516   4.692   5.673
   37        1.001   1.248   0.000   2.249
--------------------------------------------------
tot         15.839  10.170 325.590 351.599
 
    CHARGE:  cpu time    0.3696: real time    0.3697
    FORLOC:  cpu time    0.0111: real time    0.0111
    FORNL :  cpu time    1.6333: real time    1.6335
    STRESS:  cpu time    4.8884: real time    4.8886
    FORCOR:  cpu time    0.0583: real time    0.0583
    FORHAR:  cpu time    0.0181: real time    0.0183
    OFIELD:  cpu time    0.0003: real time    0.0003

  FORCE on cell =-STRESS in cart. coord.  units (eV):
  Direction    XX          YY          ZZ          XY          YZ          ZX
  --------------------------------------------------------------------------------------
  Alpha Z   677.24882   677.24882   677.24882
  Ewald  152217.15727152217.15724************     0.00001    -0.00001     0.00002
  Hartree162063.42431162063.42430************     0.00001    -0.00000     0.00001
  E(xc)   -2068.31928 -2068.31926 -2075.60785    -0.00002     0.00000     0.00000
  Local  ************************325652.66172     0.00028    -0.00003    -0.00010
  n-local  -335.91336  -320.02026  -334.54889     9.36591    -0.43416     0.45647
  augment  3246.59959  3246.59975  3258.67372    -0.00014    -0.00000     0.00002
  Kinetic  4869.87578  4873.28405  4896.61236     4.06380     0.69891    -0.12910
  Fock        0.00000     0.00000     0.00000     0.00000     0.00000     0.00000
  -------------------------------------------------------------------------------------
  Total      -9.13084    -9.13084    -0.67699    -0.00000    -0.00000     0.00000
  in kB      -8.97151    -8.97151    -0.66518    -0.00000    -0.00000     0.00000
  external pressure =       -6.20 kB  Pullay stress =        0.00 kB


 VOLUME and BASIS-vectors are now :
 -----------------------------------------------------------------------------
  energy-cutoff  :      500.00
  volume of cell :     1630.63
      direct lattice vectors                 reciprocal lattice vectors
     8.791366577  0.000000000  0.000000000     0.113747958 -0.065672414  0.000000000
     4.395683289  7.613546790  0.000000000     0.000000000  0.131344829  0.000000000
     0.000000000  0.000000000 24.361965240     0.000000000  0.000000000  0.041047592

  length of vectors
     8.791366577  8.791366577 24.361965240     0.131344829  0.131344829  0.041047592


 FORCES acting on ions
    electron-ion (+dipol)            ewald-force                    non-local-force                 convergence-correction
 -----------------------------------------------------------------------------------------------
   0.464E-04 -.280E-04 0.266E+04   -.953E-04 0.593E-04 -.266E+04   0.164E-17 0.378E-17 -.198E+01   -.120E-03 -.176E-03 -.912E-01
   0.132E+00 0.388E+00 0.266E+04   -.218E+00 -.175E+00 -.266E+04   0.259E-01 -.332E-01 -.165E+01   0.553E-01 -.171E+00 -.175E-01
   -.132E+00 0.388E+00 0.266E+04   0.218E+00 -.175E+00 -.266E+04   -.259E-01 -.332E-01 -.165E+01   -.558E-01 -.169E+00 -.168E-01
   0.402E+00 -.801E-01 0.266E+04   -.261E+00 -.101E+00 -.266E+04   -.158E-01 0.390E-01 -.165E+01   -.120E+00 0.133E+00 -.175E-01
   -.705E-05 -.194E-04 0.266E+04   0.981E-04 -.200E-05 -.266E+04   0.456E-18 -.144E-17 -.164E+01   0.616E-02 0.377E-02 0.976E-01
   -.402E+00 -.801E-01 0.266E+04   0.261E+00 -.101E+00 -.266E+04   0.158E-01 0.390E-01 -.165E+01   0.119E+00 0.134E+00 -.169E-01
   0.270E+00 -.308E+00 0.266E+04   -.432E-01 0.276E+00 -.266E+04   -.417E-01 -.584E-02 -.165E+01   -.174E+00 0.366E-01 -.168E-01
   -.270E+00 -.308E+00 0.266E+04   0.431E-01 0.276E+00 -.266E+04   0.417E-01 -.584E-02 -.165E+01   0.175E+00 0.357E-01 -.168E-01
   0.363E-04 -.130E-04 0.266E+04   0.792E-04 -.642E-04 -.266E+04   0.398E-17 0.194E-17 -.188E+01   -.657E-02 -.338E-02 -.161E+00
   0.203E+01 0.117E+01 0.883E+03   -.185E+01 -.107E+01 -.882E+03   -.195E+00 -.112E+00 -.622E+00   0.193E-01 0.112E-01 0.238E+00
   -.287E-04 0.215E+01 0.886E+03   0.412E-04 -.231E+01 -.885E+03   0.392E-12 0.597E-01 -.738E+00   0.638E-02 0.671E-01 0.244E+00
   -.203E+01 0.117E+01 0.883E+03   0.185E+01 -.107E+01 -.882E+03   0.195E+00 -.112E+00 -.622E+00   -.207E-01 0.115E-01 0.237E+00
   0.186E+01 -.108E+01 0.886E+03   -.200E+01 0.116E+01 -.885E+03   0.517E-01 -.299E-01 -.738E+00   0.611E-01 -.280E-01 0.244E+00
   -.186E+01 -.108E+01 0.886E+03   0.200E+01 0.116E+01 -.885E+03   -.517E-01 -.299E-01 -.738E+00   -.511E-01 -.293E-01 0.241E+00
   0.160E-04 0.914E+00 0.884E+03   -.108E-03 -.968E+00 -.883E+03   0.237E-12 0.361E-01 -.630E+00   -.116E-02 0.101E-01 0.168E+00
   -.787E-05 -.235E+01 0.883E+03   0.207E-04 0.214E+01 -.882E+03   0.148E-11 0.225E+00 -.622E+00   -.455E-03 -.237E-01 0.237E+00
   0.791E+00 -.457E+00 0.884E+03   -.838E+00 0.484E+00 -.883E+03   0.313E-01 -.180E-01 -.630E+00   0.811E-02 -.606E-02 0.168E+00
   -.791E+00 -.457E+00 0.884E+03   0.838E+00 0.484E+00 -.883E+03   -.313E-01 -.180E-01 -.630E+00   -.760E-02 -.441E-02 0.170E+00
   0.391E-04 -.173E+01 -.919E+03   -.126E-03 0.166E+01 0.918E+03   0.598E-12 0.911E-01 0.911E+00   0.954E-03 -.189E-01 0.415E+00
   -.305E+01 -.176E+01 -.913E+03   0.329E+01 0.190E+01 0.913E+03   -.586E+00 -.338E+00 -.538E+00   0.159E+00 0.920E-01 0.545E+00
   0.305E+01 -.176E+01 -.913E+03   -.329E+01 0.190E+01 0.913E+03   0.586E+00 -.338E+00 -.538E+00   -.170E+00 0.900E-01 0.544E+00
   -.282E+01 0.163E+01 -.912E+03   0.245E+01 -.142E+01 0.911E+03   0.289E+00 -.167E+00 0.648E+00   0.120E+00 -.619E-01 0.311E+00
   -.545E-04 0.352E+01 -.913E+03   0.402E-04 -.380E+01 0.913E+03   0.444E-11 0.677E+00 -.538E+00   -.689E-02 -.192E+00 0.544E+00
   0.282E+01 0.163E+01 -.912E+03   -.245E+01 -.142E+01 0.911E+03   -.289E+00 -.167E+00 0.648E+00   -.108E+00 -.621E-01 0.311E+00
   0.149E+01 0.863E+00 -.919E+03   -.143E+01 -.828E+00 0.918E+03   -.789E-01 -.456E-01 0.911E+00   0.149E-01 0.842E-02 0.414E+00
   -.149E+01 0.863E+00 -.919E+03   0.143E+01 -.828E+00 0.918E+03   0.789E-01 -.456E-01 0.911E+00   -.162E-01 0.102E-01 0.415E+00
   0.202E-04 -.326E+01 -.912E+03   0.110E-03 0.283E+01 0.911E+03   0.219E-11 0.334E+00 0.648E+00   0.575E-02 0.135E+00 0.311E+00
   0.539E-04 -.365E-04 -.266E+04   -.114E-03 0.772E-04 0.265E+04   -.585E-17 -.934E-18 0.194E+01   0.599E-04 -.100E-03 0.113E+00
   0.631E+01 0.811E+01 -.265E+04   -.574E+01 -.748E+01 0.265E+04   -.572E+00 -.862E+00 0.242E+01   -.115E-01 0.210E+00 -.774E-02
   -.631E+01 0.811E+01 -.265E+04   0.574E+01 -.748E+01 0.265E+04   0.572E+00 -.862E+00 0.242E+01   0.107E-01 0.211E+00 -.822E-02
   0.102E+02 0.141E+01 -.265E+04   -.934E+01 -.123E+01 0.265E+04   -.103E+01 -.640E-01 0.242E+01   0.177E+00 -.115E+00 -.772E-02
   -.102E+02 0.141E+01 -.265E+04   0.934E+01 -.123E+01 0.265E+04   0.103E+01 -.640E-01 0.242E+01   -.177E+00 -.114E+00 -.663E-02
   0.387E+01 -.952E+01 -.265E+04   -.361E+01 0.871E+01 0.265E+04   -.461E+00 0.926E+00 0.242E+01   0.189E+00 -.956E-01 -.826E-02
   -.387E+01 -.952E+01 -.265E+04   0.361E+01 0.871E+01 0.265E+04   0.461E+00 0.926E+00 0.242E+01   -.188E+00 -.957E-01 -.668E-02
   0.244E-04 -.134E-04 -.266E+04   0.105E-03 -.654E-04 0.266E+04   -.784E-17 -.275E-17 0.199E+01   -.602E-02 -.304E-02 0.104E+00
   -.197E-04 -.630E-05 -.128E+04   0.576E-04 0.774E-05 0.128E+04   -.889E-18 0.624E-18 0.233E+01   0.129E-02 0.797E-03 0.103E-02
   0.442E-04 -.260E-04 -.118E+04   0.213E-04 0.357E-06 0.119E+04   -.201E-18 -.412E-18 -.572E+01   0.638E-03 0.393E-03 -.235E+00
 -----------------------------------------------------------------------------------------------
   0.376E-03 -.724E-03 -.229E+01   -.210E-13 -.117E-12 0.864E-11   0.466E-16 -.254E-17 -.324E+01   0.888E-02 0.836E-02 0.544E+01
 
 
 POSITION                                       TOTAL-FORCE (eV/Angst)
 -----------------------------------------------------------------------------------
      0.00000      0.00000      5.28219        -0.000000     -0.000000      0.021245
      2.93046      0.00000      5.28219        -0.003957      0.010026      0.017146
      5.86091      0.00000      5.28219         0.003957      0.010026      0.017146
      1.46523      2.53785      5.28219         0.006705     -0.008440      0.017146
      4.39568      2.53785      5.28219        -0.000000     -0.000000     -0.027200
      7.32614      2.53785      5.28219        -0.006705     -0.008440      0.017146
      2.93046      5.07570      5.28219         0.010661     -0.001586      0.017146
      5.86091      5.07570      5.28219        -0.010661     -0.001586      0.017146
      8.79137      5.07570      5.28219        -0.000000     -0.000000      0.038729
      1.46523      0.84595      7.67490         0.004929      0.002846     -0.009506
      4.39568      0.84595      7.67490        -0.000000     -0.035843     -0.062438
      7.32614      0.84595      7.67490        -0.004929      0.002846     -0.009506
      2.93046      3.38380      7.67490        -0.031041      0.017921     -0.062438
      5.86091      3.38380      7.67490         0.031041      0.017921     -0.062438
      8.79137      3.38380      7.67490        -0.000000     -0.008863      0.022339
      4.39568      5.92165      7.67490        -0.000000     -0.005691     -0.009506
      7.32614      5.92165      7.67490        -0.007675      0.004431      0.022339
     10.25659      5.92165      7.67490         0.007675      0.004431      0.022339
      8.79137      1.69374     10.05841         0.000000      0.003908      0.046593
      2.93927      1.69699     10.03909        -0.179257     -0.103494     -0.109933
      5.85210      1.69699     10.03909         0.179257     -0.103494     -0.109933
     10.25385      4.23133     10.05420         0.033869     -0.019554      0.028543
      4.39568      4.21957     10.03909         0.000000      0.206988     -0.109933
      7.32888      4.23133     10.05420        -0.033869     -0.019554      0.028543
     11.72023      6.76668     10.05841        -0.003385     -0.001954      0.046593
      5.86251      6.76668     10.05841         0.003385     -0.001954      0.046593
      8.79137      6.76443     10.05420         0.000000      0.039109      0.028543
      0.00000      0.00000     12.42643        -0.000000     -0.000000     -0.017356
      2.96234      0.05459     12.44639        -0.012703     -0.021912     -0.007860
      5.82903      0.05459     12.44639         0.012703     -0.021912     -0.007860
      1.52844      2.53816     12.44639        -0.025328     -0.000045     -0.007860
      7.26292      2.53816     12.44639         0.025328     -0.000045     -0.007860
      2.96179      5.02079     12.44639        -0.012625      0.021957     -0.007860
      5.82958      5.02079     12.44639         0.012625      0.021957     -0.007860
      8.79137      5.07570     12.42906        -0.000000     -0.000000     -0.011529
      4.39568      2.53785     12.18689        -0.000000     -0.000000      0.184269
      4.39568      2.53785     13.82455        -0.000000     -0.000000      0.009326
 -----------------------------------------------------------------------------------
    total drift:                                0.009252      0.007639     -0.085913


--------------------------------------------------------------------------------------------------------



  FREE ENERGIE OF THE ION-ELECTRON SYSTEM (eV)
  ---------------------------------------------------
  free  energy   TOTEN  =      -102.76195283 eV

  energy  without entropy=     -102.76195283  energy(sigma->0) =     -102.76195283
 


--------------------------------------------------------------------------------------------------------


    POTLOK:  cpu time    0.0477: real time    0.0477


--------------------------------------------------------------------------------------------------------


 stress matrix after NEB project (eV)
     -9.13084     -0.00000      0.00000
     -0.00000     -9.13084     -0.00000
      0.00000     -0.00000     -0.67699
  FORCES: max atom, RMS     0.009326    0.001533
  FORCE total and by dimension    0.009326    0.009326
  Stress total and by dimension   12.930692    9.130840
     LOOP+:  cpu time   84.0117: real time   84.0224
 -----------------------------------------------------------------------------
|                                                                             |
|           W    W    AA    RRRRR   N    N  II  N    N   GGGG   !!!           |
|           W    W   A  A   R    R  NN   N  II  NN   N  G    G  !!!           |
|           W    W  A    A  R    R  N N  N  II  N N  N  G       !!!           |
|           W WW W  AAAAAA  RRRRR   N  N N  II  N  N N  G  GGG   !            |
|           WW  WW  A    A  R   R   N   NN  II  N   NN  G    G                |
|           W    W  A    A  R    R  N    N  II  N    N   GGGG   !!!           |
|                                                                             |
|     Tetrahedron method does not include variations of the Fermi             |
|     occupations, so forces and stress will be inaccurate. We suggest        |
|     using a different smearing scheme ISMEAR = 1 or 2 for metals in         |
|     relaxations.                                                            |
|                                                                             |
 -----------------------------------------------------------------------------

    4ORBIT:  cpu time    0.0000: real time    0.0000



 total charge

# of ion       s       p       d       tot
------------------------------------------
    1        0.415   0.204   9.177   9.796
    2        0.418   0.203   9.176   9.798
    3        0.418   0.203   9.176   9.798
    4        0.418   0.203   9.176   9.798
    5        0.417   0.203   9.178   9.797
    6        0.418   0.203   9.176   9.798
    7        0.418   0.203   9.176   9.798
    8        0.418   0.203   9.176   9.798
    9        0.413   0.204   9.177   9.794
   10        0.405   0.271   9.164   9.839
   11        0.407   0.270   9.166   9.843
   12        0.405   0.271   9.164   9.839
   13        0.407   0.270   9.166   9.843
   14        0.407   0.270   9.166   9.843
   15        0.402   0.271   9.164   9.838
   16        0.405   0.271   9.164   9.839
   17        0.402   0.271   9.164   9.838
   18        0.402   0.271   9.164   9.838
   19        0.400   0.264   9.168   9.833
   20        0.423   0.295   9.148   9.865
   21        0.423   0.295   9.148   9.865
   22        0.396   0.277   9.164   9.836
   23        0.423   0.295   9.148   9.865
   24        0.396   0.277   9.164   9.836
   25        0.400   0.264   9.168   9.833
   26        0.400   0.264   9.168   9.833
   27        0.396   0.277   9.164   9.836
   28        0.415   0.195   9.178   9.788
   29        0.415   0.207   9.172   9.794
   30        0.415   0.207   9.172   9.794
   31        0.415   0.207   9.172   9.794
   32        0.415   0.207   9.172   9.794
   33        0.415   0.207   9.172   9.794
   34        0.415   0.207   9.172   9.794
   35        0.415   0.197   9.177   9.789
   36        0.465   0.516   4.692   5.673
   37        1.001   1.248   0.000   2.249
--------------------------------------------------
tot         15.839  10.170 325.590 351.599
 
 BZINTS: Fermi energy:    0.261642;  395.000000 electrons
         Band energy:-0.150664E+04;  BLOECHL correction:   -0.028911

 total amount of memory used by VASP MPI-rank0   131004. kBytes
=======================================================================

   base      :      30000. kBytes
   nonlr-proj:      15083. kBytes
   fftplans  :       4808. kBytes
   grid      :      19857. kBytes
   one-center:        575. kBytes
   wavefun   :      60681. kBytes
 
  
  
 General timing and accounting informations for this job:
 ========================================================
  
                  Total CPU time used (sec):       91.882
                            User time (sec):       88.787
                          System time (sec):        3.095
                         Elapsed time (sec):       92.325
  
                   Maximum memory used (kb):      395924.
                   Average memory used (kb):          N/A
  
                          Minor page faults:        78629
                          Major page faults:            0
                 Voluntary context switches:         5157
