PROCAR new format
# of k-points:   10         # of bands:  252         # of ions:   37

 k-point     1 :    0.00000000 0.00000000 0.00000000     weight = 0.01562500

band     1 # energy   -8.20783800 # occ.  2.00000000
 
ion      s      p      d    tot
    1  0.000  0.000  0.000  0.000
    2  0.000  0.000  0.000  0.000
    3  0.000  0.000  0.000  0.000
    4  0.000  0.000  0.000  0.000
    5  0.000  0.000  0.000  0.000
    6  0.000  0.000  0.000  0.000
    7  0.000  0.000  0.000  0.000
    8  0.000  0.000  0.000  0.000
    9  0.000  0.000  0.000  0.000
   10  0.000  0.000  0.000  0.000
   11  0.000  0.000  0.000  0.000
   12  0.000  0.000  0.000  0.000
   13  0.000  0.000  0.000  0.000
   14  0.000  0.000  0.000  0.000
   15  0.000  0.000  0.000  0.000
   16  0.000  0.000  0.000  0.000
   17  0.000  0.000  0.000  0.000
   18  0.000  0.000  0.000  0.000
   19  0.000  0.000  0.000  0.000
   20  0.002  0.000  0.002  0.004
   21  0.002  0.000  0.002  0.004
   22  0.000  0.000  0.000  0.000
   23  0.002  0.000  0.002  0.004
   24  0.000  0.000  0.000  0.000
   25  0.000  0.000  0.000  0.000
   26  0.000  0.000  0.000  0.000
   27  0.000  0.000  0.000  0.000
   28  0.000  0.000  0.000  0.000
   29  0.002  0.001  0.002  0.005
   30  0.002  0.001  0.002  0.005
   31  0.002  0.001  0.002  0.005
   32  0.002  0.001  0.002  0.005
   33  0.002  0.001  0.002  0.005
   34  0.002  0.001  0.002  0.005
   35  0.000  0.000  0.000  0.000
   36  0.118  0.067  0.120  0.305
   37  0.425  0.012  0.000  0.438
tot    0.566  0.084  0.137  0.787
 
band     2 # energy   -6.83209720 # occ.  2.00000000
 
ion      s      p      d    tot
    1  0.006  0.001  0.000  0.007
    2  0.006  0.001  0.000  0.007
    3  0.006  0.001  0.000  0.007
    4  0.006  0.001  0.000  0.007
    5  0.007  0.001  0.000  0.007
    6  0.006  0.001  0.000  0.007
    7  0.006  0.001  0.000  0.007
    8  0.006  0.001  0.000  0.007
    9  0.006  0.001  0.000  0.007
   10  0.024  0.000  0.000  0.025
   11  0.025  0.000  0.000  0.025
   12  0.024  0.000  0.000  0.025
   13  0.025  0.000  0.000  0.025
   14  0.025  0.000  0.000  0.025
   15  0.024  0.000  0.000  0.025
   16  0.024  0.000  0.000  0.025
   17  0.024  0.000  0.000  0.025
   18  0.024  0.000  0.000  0.025
   19  0.022  0.000  0.000  0.022
   20  0.023  0.000  0.001  0.023
   21  0.023  0.000  0.001  0.023
   22  0.022  0.000  0.000  0.023
   23  0.023  0.000  0.001  0.023
   24  0.022  0.000  0.000  0.023
   25  0.022  0.000  0.000  0.022
   26  0.022  0.000  0.000  0.022
   27  0.022  0.000  0.000  0.023
   28  0.005  0.001  0.000  0.005
   29  0.004  0.001  0.000  0.005
   30  0.004  0.001  0.000  0.005
   31  0.004  0.001  0.000  0.005
   32  0.004  0.001  0.000  0.005
   33  0.004  0.001  0.000  0.005
   34  0.004  0.001  0.000  0.005
   35  0.005  0.001  0.000  0.005
   36  0.000  0.005  0.003  0.008
   37  0.010  0.000  0.000  0.010
tot    0.519  0.018  0.012  0.549
 
band     3 # energy   -5.97464080 # occ.  2.00000000
 
ion      s      p      d    tot
    1  0.007  0.000  0.000  0.008
    2  0.007  0.000  0.000  0.007
    3  0.007  0.000  0.000  0.007
    4  0.007  0.000  0.000  0.007
    5  0.006  0.000  0.000  0.007
    6  0.007  0.000  0.000  0.007
    7  0.007  0.000  0.000  0.007
    8  0.007  0.000  0.000  0.007
    9  0.006  0.000  0.000  0.007
   10  0.011  0.001  0.016  0.028
   11  0.010  0.001  0.017  0.028
   12  0.011  0.001  0.016  0.028
   13  0.010  0.001  0.017  0.028
   14  0.010  0.001  0.017  0.028
   15  0.009  0.001  0.015  0.025
   16  0.011  0.001  0.016  0.028
   17  0.009  0.001  0.015  0.025
   18  0.009  0.001  0.015  0.025
   19  0.013  0.001  0.020  0.034
   20  0.013  0.001  0.027  0.041
   21  0.013  0.001  0.027  0.041
   22  0.014  0.001  0.019  0.034
   23  0.013  0.001  0.027  0.041
   24  0.014  0.001  0.019  0.034
   25  0.013  0.001  0.020  0.034
   26  0.013  0.001  0.020  0.034
   27  0.014  0.001  0.019  0.034
   28  0.005  0.000  0.000  0.006
   29  0.004  0.000  0.001  0.005
   30  0.004  0.000  0.001  0.005
   31  0.004  0.000  0.001  0.005
   32  0.004  0.000  0.001  0.005
   33  0.004  0.000  0.001  0.005
   34  0.004  0.000  0.001  0.005
   35  0.005  0.000  0.000  0.006
   36  0.001  0.002  0.001  0.004
   37  0.003  0.000  0.000  0.003
tot    0.305  0.024  0.353  0.681
 
band     4 # energy   -5.68837002 # occ.  2.00000000
 
ion      s      p      d    tot
    1  0.019  0.000  0.027  0.047
    2  0.018  0.000  0.027  0.045
    3  0.018  0.000  0.027  0.045
    4  0.018  0.000  0.027  0.045
    5  0.016  0.000  0.028  0.045
    6  0.018  0.000  0.027  0.045
    7  0.018  0.000  0.027  0.045
    8  0.018  0.000  0.027  0.045
    9  0.017  0.000  0.027  0.043
   10  0.000  0.001  0.022  0.023
   11  0.001  0.001  0.020  0.022
   12  0.000  0.001  0.022  0.023
   13  0.001  0.001  0.020  0.022
   14  0.001  0.001  0.020  0.022
   15  0.001  0.001  0.018  0.020
   16  0.000  0.001  0.022  0.023
   17  0.001  0.001  0.018  0.020
   18  0.001  0.001  0.018  0.020
   19  0.000  0.000  0.005  0.005
   20  0.000  0.000  0.008  0.008
   21  0.000  0.000  0.008  0.008
   22  0.001  0.000  0.007  0.008
   23  0.000  0.000  0.008  0.008
   24  0.001  0.000  0.007  0.008
   25  0.000  0.000  0.005  0.005
   26  0.000  0.000  0.005  0.005
   27  0.001  0.000  0.007  0.008
   28  0.006  0.000  0.004  0.010
   29  0.005  0.000  0.006  0.010
   30  0.005  0.000  0.006  0.010
   31  0.005  0.000  0.006  0.010
   32  0.005  0.000  0.006  0.010
   33  0.005  0.000  0.006  0.010
   34  0.005  0.000  0.006  0.010
   35  0.007  0.000  0.006  0.013
   36  0.001  0.000  0.003  0.004
   37  0.001  0.000  0.000  0.002
tot    0.209  0.008  0.536  0.752
 
band     5 # energy   -5.60984722 # occ.  2.00000000
 
ion      s      p      d    tot
    1  0.002  0.000  0.002  0.004
    2  0.000  0.000  0.004  0.004
    3  0.000  0.000  0.004  0.004
    4  0.000  0.000  0.004  0.004
    5  0.002  0.000  0.000  0.002
    6  0.000  0.000  0.004  0.004
    7  0.000  0.000  0.004  0.004
    8  0.000  0.000  0.004  0.004
    9  0.001  0.000  0.000  0.001
   10  0.002  0.000  0.023  0.026
   11  0.001  0.001  0.021  0.023
   12  0.002  0.000  0.023  0.026
   13  0.001  0.001  0.021  0.023
   14  0.001  0.001  0.021  0.023
   15  0.005  0.001  0.014  0.020
   16  0.002  0.000  0.023  0.026
   17  0.005  0.001  0.014  0.020
   18  0.005  0.001  0.014  0.020
   19  0.002  0.001  0.030  0.033
   20  0.007  0.000  0.105  0.112
   21  0.007  0.000  0.105  0.112
   22  0.014  0.001  0.018  0.033
   23  0.007  0.000  0.105  0.112
   24  0.014  0.001  0.018  0.033
   25  0.002  0.001  0.030  0.033
   26  0.002  0.001  0.030  0.033
   27  0.014  0.001  0.018  0.033
   28  0.000  0.000  0.000  0.000
   29  0.000  0.000  0.005  0.005
   30  0.000  0.000  0.005  0.005
   31  0.000  0.000  0.005  0.005
   32  0.000  0.000  0.005  0.005
   33  0.000  0.000  0.005  0.005
   34  0.000  0.000  0.005  0.005
   35  0.003  0.001  0.004  0.008
   36  0.001  0.003  0.001  0.005
   37  0.001  0.000  0.000  0.001
tot    0.104  0.016  0.698  0.818
 
band     6 # energy   -5.59315742 # occ.  2.00000000
 
ion      s      p      d    tot
    1  0.000  0.000  0.009  0.009
    2  0.001  0.000  0.003  0.004
    3  0.001  0.000  0.003  0.005
    4  0.001  0.000  0.003  0.004
    5  0.000  0.000  0.005  0.005
    6  0.000  0.000  0.003  0.003
    7  0.001  0.000  0.003  0.005
    8  0.000  0.000  0.003  0.003
    9  0.000  0.000  0.001  0.001
   10  0.000  0.000  0.025  0.025
   11  0.003  0.000  0.027  0.031
   12  0.010  0.001  0.015  0.026
   13  0.003  0.000  0.027  0.030
   14  0.000  0.001  0.017  0.018
   15  0.002  0.000  0.013  0.016
   16  0.010  0.001  0.015  0.026
   17  0.002  0.000  0.014  0.016
   18  0.000  0.000  0.026  0.026
   19  0.015  0.001  0.033  0.048
   20  0.000  0.000  0.149  0.149
   21  0.020  0.001  0.044  0.064
   22  0.000  0.000  0.037  0.038
   23  0.021  0.001  0.040  0.061
   24  0.000  0.001  0.057  0.058
   25  0.000  0.002  0.015  0.017
   26  0.014  0.001  0.032  0.047
   27  0.000  0.000  0.036  0.037
   28  0.000  0.000  0.004  0.004
   29  0.000  0.000  0.006  0.007
   30  0.000  0.000  0.002  0.002
   31  0.000  0.000  0.006  0.007
   32  0.001  0.001  0.006  0.008
   33  0.000  0.000  0.002  0.003
   34  0.001  0.001  0.006  0.008
   35  0.000  0.000  0.001  0.001
   36  0.000  0.001  0.002  0.003
   37  0.000  0.000  0.000  0.000
tot    0.110  0.015  0.688  0.813
 
band     7 # energy   -5.59313919 # occ.  2.00000000
 
ion      s      p      d    tot
    1  0.000  0.000  0.009  0.009
    2  0.001  0.000  0.003  0.004
    3  0.000  0.000  0.003  0.003
    4  0.001  0.000  0.003  0.004
    5  0.000  0.000  0.005  0.005
    6  0.002  0.000  0.003  0.005
    7  0.000  0.000  0.003  0.003
    8  0.002  0.000  0.003  0.005
    9  0.000  0.000  0.001  0.001
   10  0.013  0.001  0.012  0.026
   11  0.001  0.001  0.020  0.022
   12  0.003  0.001  0.021  0.025
   13  0.001  0.001  0.021  0.023
   14  0.004  0.000  0.030  0.035
   15  0.001  0.000  0.022  0.023
   16  0.003  0.001  0.022  0.025
   17  0.001  0.000  0.022  0.023
   18  0.003  0.000  0.009  0.013
   19  0.005  0.001  0.021  0.027
   20  0.027  0.001  0.006  0.034
   21  0.007  0.000  0.111  0.119
   22  0.000  0.001  0.050  0.051
   23  0.006  0.000  0.115  0.122
   24  0.001  0.000  0.029  0.030
   25  0.019  0.000  0.039  0.058
   26  0.005  0.001  0.021  0.028
   27  0.000  0.001  0.051  0.052
   28  0.000  0.000  0.004  0.004
   29  0.001  0.000  0.003  0.005
   30  0.001  0.001  0.007  0.009
   31  0.001  0.000  0.003  0.005
   32  0.000  0.000  0.003  0.003
   33  0.001  0.001  0.007  0.009
   34  0.000  0.000  0.004  0.004
   35  0.000  0.000  0.001  0.001
   36  0.000  0.001  0.002  0.003
   37  0.000  0.000  0.000  0.000
tot    0.110  0.015  0.687  0.813
 
band     8 # energy   -5.58446455 # occ.  2.00000000
 
ion      s      p      d    tot
    1  0.000  0.000  0.001  0.001
    2  0.000  0.000  0.006  0.006
    3  0.000  0.000  0.006  0.006
    4  0.000  0.000  0.006  0.006
    5  0.005  0.001  0.003  0.008
    6  0.000  0.000  0.006  0.006
    7  0.000  0.000  0.006  0.006
    8  0.000  0.000  0.006  0.006
    9  0.001  0.000  0.003  0.005
   10  0.007  0.001  0.005  0.013
   11  0.012  0.001  0.037  0.050
   12  0.007  0.001  0.005  0.013
   13  0.012  0.001  0.037  0.050
   14  0.012  0.001  0.037  0.050
   15  0.001  0.000  0.044  0.045
   16  0.007  0.001  0.005  0.013
   17  0.001  0.000  0.044  0.045
   18  0.001  0.000  0.045  0.046
   19  0.014  0.001  0.031  0.046
   20  0.006  0.001  0.016  0.023
   21  0.006  0.001  0.016  0.023
   22  0.001  0.000  0.057  0.058
   23  0.006  0.001  0.016  0.023
   24  0.001  0.000  0.057  0.058
   25  0.014  0.001  0.031  0.045
   26  0.014  0.001  0.031  0.046
   27  0.001  0.000  0.057  0.058
   28  0.004  0.001  0.005  0.010
   29  0.000  0.000  0.004  0.004
   30  0.000  0.000  0.004  0.004
   31  0.000  0.000  0.004  0.004
   32  0.000  0.000  0.004  0.004
   33  0.000  0.000  0.004  0.004
   34  0.000  0.000  0.004  0.004
   35  0.001  0.000  0.005  0.007
   36  0.000  0.000  0.000  0.000
   37  0.000  0.000  0.000  0.000
tot    0.134  0.018  0.645  0.797
 
band     9 # energy   -5.58309875 # occ.  2.00000000
 
ion      s      p      d    tot
    1  0.000  0.000  0.001  0.001
    2  0.000  0.000  0.003  0.003
    3  0.001  0.001  0.006  0.008
    4  0.000  0.000  0.003  0.003
    5  0.000  0.000  0.009  0.009
    6  0.001  0.000  0.004  0.005
    7  0.001  0.001  0.006  0.008
    8  0.001  0.000  0.004  0.005
    9  0.000  0.000  0.004  0.004
   10  0.001  0.000  0.024  0.025
   11  0.007  0.000  0.071  0.078
   12  0.000  0.001  0.051  0.052
   13  0.006  0.000  0.072  0.079
   14  0.026  0.001  0.006  0.033
   15  0.004  0.001  0.018  0.023
   16  0.000  0.001  0.051  0.052
   17  0.004  0.001  0.017  0.022
   18  0.016  0.000  0.033  0.050
   19  0.001  0.000  0.042  0.043
   20  0.006  0.000  0.038  0.044
   21  0.001  0.001  0.026  0.029
   22  0.005  0.001  0.033  0.038
   23  0.002  0.001  0.026  0.029
   24  0.020  0.001  0.012  0.033
   25  0.005  0.000  0.011  0.016
   26  0.001  0.000  0.042  0.043
   27  0.005  0.001  0.033  0.038
   28  0.000  0.000  0.002  0.002
   29  0.001  0.000  0.003  0.005
   30  0.000  0.000  0.002  0.002
   31  0.001  0.000  0.003  0.005
   32  0.001  0.000  0.003  0.004
   33  0.000  0.000  0.002  0.002
   34  0.001  0.000  0.003  0.004
   35  0.000  0.000  0.007  0.008
   36  0.000  0.000  0.001  0.001
   37  0.000  0.000  0.000  0.000
tot    0.119  0.016  0.670  0.806
 
band    10 # energy   -5.58309112 # occ.  2.00000000
 
ion      s      p      d    tot
    1  0.000  0.000  0.001  0.001
    2  0.001  0.001  0.005  0.007
    3  0.000  0.000  0.002  0.003
    4  0.001  0.001  0.005  0.007
    5  0.000  0.000  0.009  0.009
    6  0.001  0.000  0.004  0.005
    7  0.000  0.000  0.002  0.003
    8  0.001  0.000  0.004  0.005
    9  0.000  0.000  0.004  0.004
   10  0.000  0.001  0.060  0.061
   11  0.019  0.001  0.029  0.049
   12  0.001  0.000  0.033  0.034
   13  0.020  0.001  0.028  0.048
   14  0.000  0.000  0.094  0.094
   15  0.012  0.001  0.028  0.041
   16  0.001  0.000  0.033  0.034
   17  0.012  0.001  0.028  0.041
   18  0.000  0.002  0.012  0.013
   19  0.004  0.000  0.021  0.025
   20  0.000  0.001  0.022  0.024
   21  0.004  0.001  0.034  0.039
   22  0.015  0.001  0.019  0.035
   23  0.004  0.001  0.034  0.039
   24  0.000  0.001  0.039  0.040
   25  0.000  0.000  0.052  0.052
   26  0.004  0.000  0.021  0.025
   27  0.015  0.001  0.019  0.035
   28  0.000  0.000  0.002  0.002
   29  0.000  0.000  0.002  0.002
   30  0.001  0.000  0.003  0.005
   31  0.000  0.000  0.002  0.002
   32  0.001  0.000  0.003  0.004
   33  0.001  0.000  0.003  0.005
   34  0.001  0.000  0.003  0.004
   35  0.000  0.000  0.007  0.008
   36  0.000  0.000  0.001  0.001
   37  0.000  0.000  0.000  0.000
tot    0.119  0.016  0.670  0.806
 
band    11 # energy   -5.56501208 # occ.  2.00000000
 
ion      s      p      d    tot
    1  0.001  0.001  0.020  0.022
    2  0.001  0.000  0.008  0.009
    3  0.001  0.000  0.008  0.009
    4  0.001  0.000  0.008  0.009
    5  0.000  0.000  0.002  0.002
    6  0.001  0.000  0.008  0.009
    7  0.001  0.000  0.008  0.009
    8  0.001  0.000  0.008  0.009
    9  0.009  0.001  0.000  0.010
   10  0.007  0.000  0.064  0.071
   11  0.001  0.000  0.061  0.062
   12  0.007  0.000  0.064  0.071
   13  0.001  0.000  0.061  0.062
   14  0.001  0.000  0.061  0.062
   15  0.007  0.001  0.003  0.011
   16  0.007  0.000  0.064  0.071
   17  0.007  0.001  0.003  0.011
   18  0.007  0.001  0.003  0.011
   19  0.001  0.000  0.012  0.013
   20  0.003  0.000  0.028  0.031
   21  0.003  0.000  0.028  0.031
   22  0.000  0.000  0.028  0.028
   23  0.003  0.000  0.028  0.031
   24  0.000  0.000  0.028  0.028
   25  0.001  0.000  0.012  0.013
   26  0.001  0.000  0.012  0.013
   27  0.000  0.000  0.028  0.028
   28  0.008  0.001  0.000  0.009
   29  0.001  0.000  0.011  0.012
   30  0.001  0.000  0.011  0.012
   31  0.001  0.000  0.011  0.012
   32  0.001  0.000  0.011  0.012
   33  0.001  0.000  0.011  0.012
   34  0.001  0.000  0.011  0.012
   35  0.001  0.000  0.010  0.011
   36  0.002  0.001  0.000  0.003
   37  0.000  0.000  0.000  0.000
tot    0.085  0.010  0.735  0.830
 
band    12 # energy   -5.54321700 # occ.  2.00000000
 
ion      s      p      d    tot
    1  0.000  0.000  0.015  0.015
    2  0.001  0.001  0.010  0.012
    3  0.003  0.001  0.005  0.008
    4  0.001  0.001  0.010  0.012
    5  0.000  0.000  0.006  0.006
    6  0.000  0.000  0.009  0.010
    7  0.003  0.001  0.005  0.008
    8  0.000  0.000  0.009  0.009
    9  0.000  0.000  0.008  0.008
   10  0.018  0.000  0.031  0.048
   11  0.000  0.001  0.023  0.024
   12  0.005  0.000  0.056  0.061
   13  0.000  0.000  0.024  0.025
   14  0.000  0.000  0.046  0.047
   15  0.003  0.000  0.095  0.099
   16  0.004  0.000  0.057  0.061
   17  0.004  0.000  0.091  0.095
   18  0.015  0.000  0.004  0.019
   19  0.000  0.000  0.031  0.031
   20  0.002  0.000  0.010  0.012
   21  0.000  0.000  0.027  0.028
   22  0.000  0.000  0.017  0.017
   23  0.000  0.000  0.028  0.028
   24  0.001  0.000  0.026  0.027
   25  0.000  0.000  0.023  0.023
   26  0.000  0.000  0.031  0.031
   27  0.000  0.000  0.016  0.017
   28  0.000  0.000  0.013  0.013
   29  0.002  0.000  0.004  0.006
   30  0.000  0.000  0.004  0.005
   31  0.002  0.000  0.004  0.006
   32  0.002  0.000  0.004  0.007
   33  0.000  0.000  0.005  0.005
   34  0.002  0.000  0.004  0.007
   35  0.000  0.000  0.006  0.006
   36  0.000  0.000  0.000  0.001
   37  0.000  0.000  0.000  0.000
tot    0.070  0.009  0.756  0.835
 
band    13 # energy   -5.54320332 # occ.  2.00000000
 
ion      s      p      d    tot
    1  0.000  0.000  0.015  0.015
    2  0.002  0.000  0.006  0.008
    3  0.000  0.000  0.011  0.011
    4  0.002  0.000  0.006  0.008
    5  0.000  0.000  0.006  0.006
    6  0.003  0.001  0.007  0.010
    7  0.000  0.000  0.011  0.011
    8  0.002  0.001  0.007  0.010
    9  0.000  0.000  0.008  0.008
   10  0.000  0.000  0.065  0.066
   11  0.000  0.000  0.039  0.040
   12  0.013  0.000  0.040  0.053
   13  0.000  0.000  0.038  0.039
   14  0.000  0.001  0.016  0.017
   15  0.011  0.000  0.032  0.043
   16  0.014  0.000  0.038  0.052
   17  0.011  0.000  0.036  0.047
   18  0.000  0.000  0.123  0.123
   19  0.000  0.000  0.025  0.026
   20  0.000  0.000  0.033  0.033
   21  0.001  0.000  0.016  0.018
   22  0.001  0.000  0.023  0.024
   23  0.001  0.000  0.015  0.017
   24  0.000  0.000  0.014  0.014
   25  0.000  0.000  0.033  0.033
   26  0.000  0.000  0.026  0.026
   27  0.001  0.000  0.023  0.024
   28  0.000  0.000  0.013  0.013
   29  0.001  0.000  0.005  0.006
   30  0.003  0.000  0.004  0.007
   31  0.001  0.000  0.005  0.006
   32  0.001  0.000  0.004  0.005
   33  0.003  0.000  0.004  0.007
   34  0.001  0.000  0.004  0.005
   35  0.000  0.000  0.006  0.006
   36  0.000  0.000  0.000  0.001
   37  0.000  0.000  0.000  0.000
tot    0.070  0.009  0.756  0.835
 
band    14 # energy   -5.54013302 # occ.  2.00000000
 
ion      s      p      d    tot
    1  0.002  0.000  0.001  0.003
    2  0.000  0.000  0.010  0.010
    3  0.000  0.000  0.010  0.010
    4  0.000  0.000  0.010  0.010
    5  0.004  0.001  0.000  0.004
    6  0.000  0.000  0.010  0.010
    7  0.000  0.000  0.010  0.010
    8  0.000  0.000  0.010  0.010
    9  0.001  0.000  0.015  0.016
   10  0.001  0.000  0.042  0.043
   11  0.003  0.000  0.004  0.007
   12  0.002  0.000  0.042  0.043
   13  0.003  0.000  0.004  0.007
   14  0.003  0.000  0.004  0.007
   15  0.003  0.000  0.067  0.069
   16  0.002  0.000  0.042  0.043
   17  0.003  0.000  0.067  0.069
   18  0.003  0.000  0.067  0.070
   19  0.001  0.000  0.048  0.049
   20  0.003  0.000  0.022  0.025
   21  0.003  0.000  0.022  0.025
   22  0.000  0.000  0.035  0.036
   23  0.003  0.000  0.022  0.025
   24  0.000  0.000  0.035  0.036
   25  0.001  0.000  0.048  0.049
   26  0.001  0.000  0.048  0.049
   27  0.000  0.000  0.035  0.036
   28  0.000  0.000  0.004  0.004
   29  0.001  0.000  0.009  0.009
   30  0.001  0.000  0.009  0.009
   31  0.001  0.000  0.009  0.009
   32  0.001  0.000  0.009  0.009
   33  0.001  0.000  0.009  0.009
   34  0.001  0.000  0.009  0.009
   35  0.006  0.000  0.005  0.011
   36  0.001  0.001  0.001  0.003
   37  0.000  0.000  0.000  0.000
tot    0.052  0.008  0.786  0.846
 
band    15 # energy   -5.53000282 # occ.  2.00000000
 
ion      s      p      d    tot
    1  0.000  0.000  0.006  0.006
    2  0.003  0.000  0.006  0.010
    3  0.000  0.000  0.009  0.010
    4  0.003  0.000  0.006  0.010
    5  0.000  0.000  0.010  0.010
    6  0.002  0.001  0.007  0.009
    7  0.000  0.000  0.009  0.010
    8  0.002  0.000  0.007  0.009
    9  0.000  0.000  0.018  0.018
   10  0.004  0.000  0.022  0.026
   11  0.002  0.000  0.048  0.050
   12  0.001  0.000  0.029  0.031
   13  0.002  0.000  0.046  0.048
   14  0.007  0.000  0.009  0.017
   15  0.000  0.000  0.026  0.026
   16  0.001  0.000  0.030  0.031
   17  0.000  0.000  0.027  0.027
   18  0.000  0.000  0.040  0.041
   19  0.002  0.000  0.065  0.067
   20  0.000  0.000  0.050  0.051
   21  0.000  0.000  0.025  0.025
   22  0.003  0.000  0.056  0.059
   23  0.000  0.000  0.023  0.023
   24  0.012  0.000  0.022  0.034
   25  0.008  0.000  0.007  0.015
   26  0.002  0.000  0.062  0.064
   27  0.003  0.000  0.058  0.061
   28  0.000  0.000  0.004  0.004
   29  0.000  0.000  0.007  0.007
   30  0.002  0.000  0.002  0.004
   31  0.000  0.000  0.008  0.008
   32  0.001  0.001  0.008  0.009
   33  0.002  0.000  0.002  0.004
   34  0.001  0.001  0.008  0.009
   35  0.000  0.000  0.009  0.010
   36  0.000  0.000  0.001  0.001
   37  0.000  0.000  0.000  0.000
tot    0.063  0.008  0.771  0.842
 
band    16 # energy   -5.52998675 # occ.  2.00000000
 
ion      s      p      d    tot
    1  0.000  0.000  0.006  0.006
    2  0.000  0.000  0.009  0.009
    3  0.003  0.001  0.006  0.009
    4  0.000  0.000  0.009  0.009
    5  0.000  0.000  0.010  0.010
    6  0.002  0.000  0.008  0.010
    7  0.003  0.001  0.006  0.009
    8  0.002  0.000  0.008  0.010
    9  0.000  0.000  0.018  0.018
   10  0.000  0.000  0.032  0.032
   11  0.005  0.000  0.021  0.026
   12  0.003  0.000  0.025  0.028
   13  0.005  0.000  0.023  0.028
   14  0.000  0.000  0.059  0.059
   15  0.000  0.000  0.036  0.036
   16  0.003  0.000  0.024  0.028
   17  0.000  0.000  0.035  0.035
   18  0.000  0.000  0.022  0.022
   19  0.006  0.000  0.024  0.030
   20  0.000  0.000  0.015  0.015
   21  0.000  0.000  0.041  0.041
   22  0.009  0.000  0.035  0.043
   23  0.000  0.000  0.042  0.043
   24  0.000  0.000  0.069  0.069
   25  0.000  0.000  0.082  0.082
   26  0.006  0.000  0.028  0.034
   27  0.009  0.000  0.032  0.042
   28  0.000  0.000  0.004  0.004
   29  0.002  0.001  0.004  0.006
   30  0.000  0.000  0.009  0.010
   31  0.002  0.001  0.004  0.006
   32  0.001  0.000  0.004  0.005
   33  0.000  0.000  0.009  0.010
   34  0.001  0.000  0.004  0.005
   35  0.000  0.000  0.009  0.010
   36  0.000  0.000  0.001  0.001
   37  0.000  0.000  0.000  0.000
tot    0.063  0.008  0.771  0.842
 
band    17 # energy   -5.47810740 # occ.  2.00000000
 
ion      s      p      d    tot
    1  0.006  0.000  0.003  0.009
    2  0.002  0.000  0.009  0.010
    3  0.002  0.000  0.009  0.010
    4  0.002  0.000  0.009  0.010
    5  0.001  0.000  0.016  0.018
    6  0.002  0.000  0.009  0.010
    7  0.002  0.000  0.009  0.010
    8  0.002  0.000  0.009  0.010
    9  0.000  0.000  0.006  0.006
   10  0.000  0.000  0.009  0.009
   11  0.003  0.000  0.018  0.021
   12  0.000  0.000  0.009  0.009
   13  0.003  0.000  0.018  0.021
   14  0.003  0.000  0.018  0.021
   15  0.003  0.000  0.008  0.012
   16  0.000  0.000  0.009  0.009
   17  0.003  0.000  0.008  0.012
   18  0.003  0.000  0.008  0.012
   19  0.001  0.001  0.017  0.018
   20  0.000  0.001  0.020  0.021
   21  0.000  0.001  0.020  0.021
   22  0.001  0.001  0.015  0.017
   23  0.000  0.001  0.020  0.021
   24  0.001  0.001  0.015  0.017
   25  0.001  0.001  0.017  0.018
   26  0.001  0.001  0.017  0.018
   27  0.001  0.001  0.015  0.017
   28  0.016  0.000  0.042  0.059
   29  0.014  0.000  0.031  0.046
   30  0.014  0.000  0.031  0.046
   31  0.014  0.000  0.031  0.046
   32  0.014  0.000  0.031  0.046
   33  0.014  0.000  0.031  0.046
   34  0.014  0.000  0.031  0.046
   35  0.016  0.000  0.031  0.047
   36  0.004  0.002  0.010  0.016
   37  0.006  0.000  0.000  0.006
tot    0.168  0.010  0.608  0.786
 
band    18 # energy   -5.39325659 # occ.  2.00000000
 
ion      s      p      d    tot
    1  0.001  0.000  0.000  0.001
    2  0.000  0.000  0.006  0.006
    3  0.000  0.000  0.006  0.006
    4  0.000  0.000  0.006  0.006
    5  0.000  0.000  0.014  0.014
    6  0.000  0.000  0.006  0.006
    7  0.000  0.000  0.006  0.006
    8  0.000  0.000  0.006  0.006
    9  0.002  0.001  0.006  0.010
   10  0.000  0.000  0.015  0.016
   11  0.000  0.001  0.070  0.071
   12  0.000  0.000  0.015  0.016
   13  0.000  0.001  0.070  0.071
   14  0.000  0.001  0.070  0.071
   15  0.000  0.001  0.039  0.039
   16  0.000  0.000  0.015  0.016
   17  0.000  0.001  0.039  0.039
   18  0.000  0.001  0.039  0.039
   19  0.000  0.000  0.024  0.024
   20  0.001  0.001  0.071  0.072
   21  0.001  0.001  0.070  0.072
   22  0.002  0.000  0.021  0.023
   23  0.001  0.001  0.070  0.072
   24  0.002  0.000  0.021  0.023
   25  0.000  0.000  0.023  0.024
   26  0.000  0.000  0.024  0.024
   27  0.002  0.000  0.021  0.023
   28  0.004  0.001  0.002  0.006
   29  0.000  0.000  0.010  0.010
   30  0.000  0.000  0.010  0.010
   31  0.000  0.000  0.010  0.010
   32  0.000  0.000  0.010  0.010
   33  0.000  0.000  0.010  0.010
   34  0.000  0.000  0.010  0.010
   35  0.002  0.000  0.001  0.003
   36  0.000  0.002  0.001  0.003
   37  0.001  0.000  0.000  0.001
tot    0.020  0.015  0.835  0.870
 
band    19 # energy   -5.38555437 # occ.  2.00000000
 
ion      s      p      d    tot
    1  0.000  0.000  0.001  0.001
    2  0.000  0.000  0.008  0.008
    3  0.001  0.001  0.005  0.007
    4  0.000  0.000  0.008  0.008
    5  0.000  0.001  0.016  0.016
    6  0.001  0.000  0.009  0.010
    7  0.001  0.001  0.005  0.007
    8  0.001  0.001  0.008  0.010
    9  0.000  0.000  0.010  0.010
   10  0.000  0.000  0.035  0.035
   11  0.001  0.000  0.054  0.056
   12  0.000  0.001  0.025  0.026
   13  0.001  0.000  0.057  0.059
   14  0.000  0.000  0.092  0.092
   15  0.002  0.001  0.031  0.033
   16  0.000  0.001  0.024  0.026
   17  0.002  0.001  0.029  0.031
   18  0.000  0.000  0.008  0.008
   19  0.002  0.001  0.027  0.030
   20  0.000  0.000  0.096  0.096
   21  0.002  0.000  0.061  0.064
   22  0.000  0.001  0.023  0.024
   23  0.003  0.000  0.058  0.061
   24  0.000  0.000  0.030  0.030
   25  0.000  0.000  0.006  0.006
   26  0.002  0.001  0.025  0.028
   27  0.000  0.001  0.023  0.023
   28  0.000  0.000  0.009  0.009
   29  0.001  0.001  0.007  0.009
   30  0.002  0.001  0.005  0.008
   31  0.001  0.001  0.008  0.009
   32  0.000  0.000  0.006  0.007
   33  0.002  0.001  0.005  0.007
   34  0.000  0.000  0.006  0.006
   35  0.000  0.000  0.001  0.001
   36  0.000  0.002  0.003  0.004
   37  0.000  0.000  0.000  0.000
tot    0.026  0.016  0.822  0.864
 
band    20 # energy   -5.38554654 # occ.  2.00000000
 
ion      s      p      d    tot
    1  0.000  0.000  0.001  0.001
    2  0.001  0.001  0.007  0.008
    3  0.000  0.000  0.009  0.010
    4  0.001  0.001  0.006  0.008
    5  0.000  0.001  0.016  0.016
    6  0.001  0.000  0.005  0.007
    7  0.000  0.000  0.009  0.009
    8  0.001  0.000  0.006  0.007
    9  0.000  0.000  0.010  0.010
   10  0.000  0.001  0.022  0.023
   11  0.000  0.000  0.081  0.082
   12  0.000  0.000  0.031  0.032
   13  0.001  0.000  0.078  0.079
   14  0.002  0.000  0.044  0.045
   15  0.001  0.000  0.014  0.015
   16  0.000  0.000  0.032  0.032
   17  0.001  0.000  0.016  0.017
   18  0.002  0.001  0.037  0.040
   19  0.001  0.000  0.012  0.013
   20  0.003  0.000  0.048  0.051
   21  0.001  0.000  0.082  0.083
   22  0.000  0.000  0.027  0.028
   23  0.001  0.000  0.085  0.086
   24  0.000  0.001  0.020  0.021
   25  0.003  0.001  0.033  0.037
   26  0.001  0.000  0.014  0.015
   27  0.000  0.000  0.028  0.028
   28  0.000  0.000  0.009  0.009
   29  0.001  0.000  0.005  0.006
   30  0.000  0.000  0.007  0.008
   31  0.001  0.000  0.005  0.006
   32  0.002  0.001  0.006  0.009
   33  0.000  0.000  0.008  0.008
   34  0.002  0.001  0.006  0.009
   35  0.000  0.000  0.001  0.001
   36  0.000  0.002  0.003  0.004
   37  0.000  0.000  0.000  0.000
tot    0.026  0.016  0.822  0.864
 
band    21 # energy   -5.37236134 # occ.  2.00000000
 
ion      s      p      d    tot
    1  0.001  0.000  0.006  0.007
    2  0.000  0.000  0.011  0.012
    3  0.000  0.000  0.011  0.012
    4  0.000  0.000  0.011  0.012
    5  0.004  0.001  0.000  0.005
    6  0.000  0.000  0.011  0.012
    7  0.000  0.000  0.011  0.012
    8  0.000  0.000  0.011  0.012
    9  0.001  0.000  0.004  0.006
   10  0.002  0.001  0.054  0.056
   11  0.000  0.000  0.021  0.021
   12  0.002  0.001  0.054  0.056
   13  0.000  0.000  0.021  0.021
   14  0.000  0.000  0.021  0.021
   15  0.002  0.000  0.031  0.033
   16  0.002  0.001  0.054  0.056
   17  0.002  0.000  0.031  0.033
   18  0.002  0.000  0.031  0.033
   19  0.002  0.000  0.048  0.050
   20  0.001  0.000  0.016  0.017
   21  0.001  0.000  0.016  0.017
   22  0.001  0.001  0.048  0.049
   23  0.001  0.000  0.016  0.017
   24  0.001  0.001  0.048  0.049
   25  0.002  0.000  0.048  0.050
   26  0.002  0.000  0.048  0.050
   27  0.001  0.001  0.048  0.049
   28  0.000  0.000  0.011  0.012
   29  0.000  0.000  0.010  0.011
   30  0.000  0.000  0.010  0.011
   31  0.000  0.000  0.010  0.011
   32  0.000  0.000  0.010  0.011
   33  0.000  0.000  0.010  0.011
   34  0.000  0.000  0.010  0.011
   35  0.003  0.001  0.004  0.008
   36  0.003  0.001  0.000  0.004