PROCAR new format
# of k-points:   10         # of bands:  252         # of ions:   37

 k-point     1 :    0.00000000 0.00000000 0.00000000     weight = 0.01562500

band     1 # energy  -12.80484525 # occ.  2.00000000
 
ion      s      p      d    tot
    1  0.000  0.000  0.000  0.000
    2  0.000  0.000  0.000  0.000
    3  0.000  0.000  0.000  0.000
    4  0.000  0.000  0.000  0.000
    5  0.000  0.000  0.000  0.000
    6  0.000  0.000  0.000  0.000
    7  0.000  0.000  0.000  0.000
    8  0.000  0.000  0.000  0.000
    9  0.000  0.000  0.000  0.000
   10  0.000  0.000  0.000  0.000
   11  0.000  0.000  0.000  0.000
   12  0.000  0.000  0.000  0.000
   13  0.000  0.000  0.000  0.000
   14  0.000  0.000  0.000  0.000
   15  0.000  0.000  0.000  0.000
   16  0.000  0.000  0.000  0.000
   17  0.000  0.000  0.000  0.000
   18  0.000  0.000  0.000  0.000
   19  0.000  0.000  0.000  0.000
   20  0.000  0.000  0.000  0.000
   21  0.000  0.000  0.000  0.000
   22  0.000  0.000  0.000  0.000
   23  0.000  0.000  0.000  0.000
   24  0.000  0.000  0.000  0.000
   25  0.000  0.000  0.000  0.000
   26  0.000  0.000  0.000  0.000
   27  0.000  0.000  0.000  0.000
   28  0.000  0.000  0.000  0.000
   29  0.000  0.000  0.000  0.001
   30  0.000  0.000  0.000  0.001
   31  0.000  0.000  0.000  0.001
   32  0.000  0.000  0.000  0.001
   33  0.000  0.000  0.000  0.001
   34  0.000  0.000  0.000  0.001
   35  0.000  0.000  0.000  0.000
   36  0.059  0.059  0.102  0.220
   37  0.637  0.015  0.000  0.652
tot    0.697  0.075  0.104  0.876
 
band     2 # energy   -6.33272652 # occ.  2.00000000
 
ion      s      p      d    tot
    1  0.006  0.001  0.000  0.007
    2  0.006  0.001  0.000  0.007
    3  0.006  0.001  0.000  0.007
    4  0.006  0.001  0.000  0.007
    5  0.006  0.001  0.000  0.007
    6  0.006  0.001  0.000  0.007
    7  0.006  0.001  0.000  0.007
    8  0.006  0.001  0.000  0.007
    9  0.006  0.001  0.000  0.007
   10  0.024  0.000  0.000  0.024
   11  0.024  0.000  0.000  0.025
   12  0.024  0.000  0.000  0.024
   13  0.024  0.000  0.000  0.025
   14  0.024  0.000  0.000  0.025
   15  0.023  0.000  0.000  0.024
   16  0.024  0.000  0.000  0.024
   17  0.023  0.000  0.000  0.024
   18  0.023  0.000  0.000  0.024
   19  0.022  0.000  0.000  0.023
   20  0.025  0.000  0.000  0.026
   21  0.025  0.000  0.000  0.026
   22  0.023  0.000  0.000  0.023
   23  0.025  0.000  0.000  0.026
   24  0.023  0.000  0.000  0.023
   25  0.022  0.000  0.000  0.023
   26  0.022  0.000  0.000  0.023
   27  0.023  0.000  0.000  0.023
   28  0.005  0.001  0.000  0.006
   29  0.005  0.001  0.000  0.006
   30  0.005  0.001  0.000  0.006
   31  0.005  0.001  0.000  0.006
   32  0.005  0.001  0.000  0.006
   33  0.005  0.001  0.000  0.006
   34  0.005  0.001  0.000  0.006
   35  0.005  0.001  0.000  0.006
   36  0.003  0.001  0.000  0.005
   37  0.001  0.000  0.000  0.001
tot    0.522  0.014  0.007  0.543
 
band     3 # energy   -5.46437699 # occ.  2.00000000
 
ion      s      p      d    tot
    1  0.007  0.000  0.000  0.008
    2  0.007  0.000  0.000  0.008
    3  0.007  0.000  0.000  0.008
    4  0.007  0.000  0.000  0.008
    5  0.007  0.000  0.000  0.008
    6  0.007  0.000  0.000  0.008
    7  0.007  0.000  0.000  0.008
    8  0.007  0.000  0.000  0.008
    9  0.007  0.000  0.000  0.008
   10  0.011  0.001  0.017  0.028
   11  0.011  0.001  0.016  0.028
   12  0.011  0.001  0.017  0.028
   13  0.011  0.001  0.016  0.028
   14  0.011  0.001  0.016  0.027
   15  0.011  0.001  0.014  0.026
   16  0.011  0.001  0.017  0.028
   17  0.011  0.001  0.014  0.026
   18  0.011  0.001  0.014  0.026
   19  0.012  0.001  0.019  0.031
   20  0.015  0.001  0.024  0.040
   21  0.015  0.001  0.024  0.040
   22  0.011  0.001  0.017  0.029
   23  0.015  0.001  0.024  0.040
   24  0.011  0.001  0.017  0.029
   25  0.012  0.001  0.019  0.031
   26  0.012  0.001  0.019  0.031
   27  0.011  0.001  0.017  0.029
   28  0.006  0.000  0.000  0.006
   29  0.005  0.000  0.000  0.005
   30  0.005  0.000  0.000  0.005
   31  0.005  0.000  0.000  0.005
   32  0.005  0.000  0.000  0.005
   33  0.005  0.000  0.000  0.005
   34  0.005  0.000  0.000  0.005
   35  0.005  0.000  0.000  0.005
   36  0.003  0.001  0.000  0.004
   37  0.001  0.000  0.000  0.001
tot    0.319  0.024  0.325  0.668
 
band     4 # energy   -5.16532784 # occ.  2.00000000
 
ion      s      p      d    tot
    1  0.017  0.000  0.029  0.045
    2  0.017  0.000  0.027  0.044
    3  0.017  0.000  0.027  0.044
    4  0.017  0.000  0.027  0.044
    5  0.017  0.000  0.027  0.044
    6  0.017  0.000  0.027  0.044
    7  0.017  0.000  0.027  0.044
    8  0.017  0.000  0.027  0.044
    9  0.018  0.000  0.025  0.043
   10  0.000  0.001  0.021  0.022
   11  0.001  0.001  0.022  0.024
   12  0.000  0.001  0.021  0.022
   13  0.001  0.001  0.022  0.024
   14  0.001  0.001  0.022  0.024
   15  0.000  0.001  0.020  0.021
   16  0.000  0.001  0.021  0.022
   17  0.000  0.001  0.020  0.021
   18  0.000  0.001  0.020  0.021
   19  0.000  0.000  0.005  0.005
   20  0.000  0.000  0.009  0.010
   21  0.000  0.000  0.009  0.010
   22  0.000  0.000  0.008  0.008
   23  0.000  0.000  0.009  0.010
   24  0.000  0.000  0.008  0.008
   25  0.000  0.000  0.005  0.005
   26  0.000  0.000  0.005  0.005
   27  0.000  0.000  0.008  0.008
   28  0.005  0.000  0.005  0.010
   29  0.005  0.000  0.005  0.010
   30  0.005  0.000  0.005  0.010
   31  0.005  0.000  0.005  0.010
   32  0.005  0.000  0.005  0.010
   33  0.005  0.000  0.005  0.010
   34  0.005  0.000  0.005  0.010
   35  0.006  0.000  0.006  0.012
   36  0.002  0.000  0.002  0.004
   37  0.000  0.000  0.000  0.000
tot    0.202  0.007  0.546  0.755
 
band     5 # energy   -5.10904768 # occ.  2.00000000
 
ion      s      p      d    tot
    1  0.005  0.001  0.001  0.007
    2  0.000  0.000  0.004  0.004
    3  0.000  0.000  0.004  0.004
    4  0.000  0.000  0.004  0.004
    5  0.001  0.000  0.000  0.001
    6  0.000  0.000  0.004  0.004
    7  0.000  0.000  0.004  0.004
    8  0.000  0.000  0.004  0.004
    9  0.000  0.000  0.001  0.001
   10  0.004  0.000  0.027  0.032
   11  0.000  0.000  0.018  0.019
   12  0.004  0.000  0.027  0.032
   13  0.000  0.000  0.018  0.019
   14  0.000  0.000  0.018  0.019
   15  0.005  0.001  0.006  0.012
   16  0.004  0.000  0.027  0.032
   17  0.005  0.001  0.006  0.012
   18  0.005  0.001  0.006  0.012
   19  0.000  0.001  0.037  0.038
   20  0.008  0.000  0.109  0.116
   21  0.008  0.000  0.108  0.116
   22  0.016  0.001  0.008  0.025
   23  0.008  0.000  0.108  0.116
   24  0.016  0.001  0.008  0.025
   25  0.000  0.001  0.037  0.038
   26  0.000  0.001  0.037  0.038
   27  0.016  0.001  0.008  0.025
   28  0.000  0.000  0.001  0.001
   29  0.000  0.000  0.004  0.004
   30  0.000  0.000  0.004  0.004
   31  0.000  0.000  0.004  0.004
   32  0.000  0.000  0.004  0.004
   33  0.000  0.000  0.004  0.004
   34  0.000  0.000  0.004  0.004
   35  0.005  0.001  0.002  0.009
   36  0.004  0.002  0.006  0.012
   37  0.001  0.002  0.000  0.004
tot    0.120  0.017  0.675  0.812
 
band     6 # energy   -5.06519326 # occ.  2.00000000
 
ion      s      p      d    tot
    1  0.000  0.000  0.008  0.008
    2  0.001  0.000  0.002  0.003
    3  0.001  0.000  0.003  0.004
    4  0.001  0.000  0.002  0.003
    5  0.000  0.000  0.004  0.004
    6  0.000  0.000  0.003  0.003
    7  0.001  0.000  0.003  0.004
    8  0.000  0.000  0.003  0.003
    9  0.000  0.000  0.002  0.002
   10  0.000  0.001  0.022  0.023
   11  0.002  0.000  0.028  0.030
   12  0.010  0.001  0.017  0.028
   13  0.001  0.000  0.027  0.029
   14  0.000  0.001  0.022  0.023
   15  0.004  0.000  0.014  0.018
   16  0.010  0.001  0.017  0.028
   17  0.004  0.000  0.015  0.019
   18  0.000  0.000  0.032  0.032
   19  0.016  0.001  0.032  0.049
   20  0.000  0.000  0.147  0.147
   21  0.017  0.000  0.045  0.063
   22  0.000  0.001  0.036  0.037
   23  0.019  0.000  0.038  0.057
   24  0.000  0.001  0.048  0.049
   25  0.000  0.001  0.021  0.023
   26  0.015  0.001  0.032  0.048
   27  0.000  0.000  0.035  0.036
   28  0.000  0.000  0.004  0.005
   29  0.000  0.000  0.006  0.007
   30  0.000  0.000  0.002  0.002
   31  0.001  0.000  0.006  0.007
   32  0.001  0.001  0.005  0.007
   33  0.000  0.000  0.002  0.002
   34  0.001  0.001  0.005  0.007
   35  0.000  0.000  0.000  0.000
   36  0.000  0.000  0.003  0.003
   37  0.000  0.000  0.000  0.000
tot    0.107  0.015  0.692  0.813
 
band     7 # energy   -5.06518439 # occ.  2.00000000
 
ion      s      p      d    tot
    1  0.000  0.000  0.008  0.008
    2  0.001  0.000  0.003  0.004
    3  0.000  0.000  0.002  0.003
    4  0.001  0.000  0.003  0.004
    5  0.000  0.000  0.004  0.004
    6  0.001  0.000  0.003  0.004
    7  0.000  0.000  0.002  0.003
    8  0.001  0.000  0.003  0.004
    9  0.000  0.000  0.002  0.002
   10  0.013  0.001  0.015  0.029
   11  0.000  0.001  0.024  0.025
   12  0.004  0.001  0.020  0.024
   13  0.001  0.001  0.024  0.025
   14  0.002  0.000  0.029  0.032
   15  0.001  0.000  0.027  0.028
   16  0.003  0.001  0.020  0.024
   17  0.002  0.000  0.025  0.027
   18  0.006  0.001  0.008  0.015
   19  0.005  0.001  0.024  0.030
   20  0.024  0.001  0.007  0.031
   21  0.007  0.000  0.108  0.115
   22  0.000  0.001  0.044  0.044
   23  0.005  0.000  0.115  0.121
   24  0.000  0.000  0.032  0.032
   25  0.021  0.000  0.035  0.057
   26  0.006  0.001  0.025  0.032
   27  0.000  0.001  0.044  0.045
   28  0.000  0.000  0.004  0.005
   29  0.001  0.000  0.003  0.004
   30  0.001  0.001  0.007  0.008
   31  0.001  0.000  0.003  0.004
   32  0.000  0.000  0.004  0.004
   33  0.001  0.001  0.007  0.008
   34  0.000  0.000  0.004  0.004
   35  0.000  0.000  0.000  0.000
   36  0.000  0.000  0.003  0.003
   37  0.000  0.000  0.000  0.000
tot    0.107  0.015  0.692  0.813
 
band     8 # energy   -5.05593373 # occ.  2.00000000
 
ion      s      p      d    tot
    1  0.001  0.000  0.001  0.002
    2  0.000  0.000  0.005  0.006
    3  0.000  0.000  0.005  0.006
    4  0.000  0.000  0.005  0.006
    5  0.004  0.001  0.004  0.009
    6  0.000  0.000  0.005  0.006
    7  0.000  0.000  0.005  0.006
    8  0.000  0.000  0.005  0.006
    9  0.001  0.000  0.004  0.004
   10  0.009  0.001  0.004  0.014
   11  0.013  0.001  0.052  0.066
   12  0.009  0.001  0.004  0.014
   13  0.013  0.001  0.052  0.066
   14  0.012  0.001  0.053  0.066
   15  0.000  0.000  0.049  0.050
   16  0.009  0.001  0.004  0.014
   17  0.000  0.000  0.049  0.050
   18  0.000  0.000  0.050  0.051
   19  0.011  0.001  0.029  0.040
   20  0.005  0.001  0.020  0.026
   21  0.005  0.001  0.020  0.026
   22  0.000  0.000  0.043  0.044
   23  0.005  0.001  0.020  0.026
   24  0.000  0.000  0.044  0.044
   25  0.011  0.001  0.029  0.040
   26  0.011  0.001  0.029  0.040
   27  0.000  0.000  0.043  0.044
   28  0.002  0.001  0.004  0.008
   29  0.000  0.000  0.003  0.003
   30  0.000  0.000  0.003  0.003
   31  0.000  0.000  0.003  0.003
   32  0.000  0.000  0.003  0.003
   33  0.000  0.000  0.003  0.003
   34  0.000  0.000  0.003  0.003
   35  0.001  0.000  0.003  0.005
   36  0.000  0.000  0.000  0.000
   37  0.000  0.000  0.000  0.000
tot    0.124  0.017  0.661  0.802
 
band     9 # energy   -5.05392754 # occ.  2.00000000
 
ion      s      p      d    tot
    1  0.000  0.000  0.001  0.002
    2  0.000  0.000  0.003  0.003
    3  0.002  0.001  0.006  0.008
    4  0.000  0.000  0.003  0.003
    5  0.000  0.000  0.010  0.010
    6  0.001  0.001  0.004  0.006
    7  0.001  0.001  0.006  0.008
    8  0.001  0.001  0.004  0.006
    9  0.000  0.000  0.004  0.004
   10  0.002  0.000  0.021  0.024
   11  0.007  0.000  0.072  0.080
   12  0.000  0.001  0.054  0.055
   13  0.007  0.000  0.073  0.081
   14  0.029  0.001  0.006  0.036
   15  0.004  0.001  0.016  0.021
   16  0.000  0.001  0.053  0.054
   17  0.004  0.001  0.016  0.021
   18  0.015  0.000  0.035  0.050
   19  0.001  0.000  0.035  0.036
   20  0.009  0.000  0.035  0.044
   21  0.002  0.001  0.023  0.026
   22  0.005  0.001  0.038  0.043
   23  0.002  0.001  0.023  0.026
   24  0.020  0.001  0.009  0.029
   25  0.003  0.000  0.013  0.016
   26  0.001  0.000  0.035  0.036
   27  0.005  0.001  0.037  0.043
   28  0.000  0.000  0.002  0.002
   29  0.001  0.000  0.004  0.005
   30  0.000  0.000  0.002  0.002
   31  0.001  0.000  0.004  0.005
   32  0.001  0.000  0.002  0.003
   33  0.000  0.000  0.002  0.002
   34  0.001  0.000  0.002  0.003
   35  0.000  0.000  0.007  0.007
   36  0.000  0.000  0.000  0.001
   37  0.000  0.000  0.000  0.000
tot    0.125  0.017  0.661  0.803
 
band    10 # energy   -5.05391998 # occ.  2.00000000
 
ion      s      p      d    tot
    1  0.000  0.000  0.001  0.002
    2  0.002  0.001  0.006  0.008
    3  0.000  0.000  0.003  0.003
    4  0.002  0.001  0.006  0.008
    5  0.000  0.000  0.010  0.010
    6  0.001  0.000  0.005  0.005
    7  0.000  0.000  0.003  0.003
    8  0.001  0.000  0.005  0.006
    9  0.000  0.000  0.004  0.004
   10  0.000  0.001  0.064  0.065
   11  0.021  0.001  0.029  0.051
   12  0.001  0.000  0.032  0.034
   13  0.022  0.001  0.028  0.051
   14  0.000  0.000  0.095  0.095
   15  0.011  0.001  0.029  0.041
   16  0.001  0.000  0.032  0.034
   17  0.011  0.001  0.029  0.041
   18  0.000  0.002  0.009  0.011
   19  0.002  0.000  0.020  0.023
   20  0.000  0.001  0.019  0.020
   21  0.007  0.001  0.031  0.038
   22  0.015  0.001  0.018  0.034
   23  0.006  0.001  0.031  0.038
   24  0.000  0.000  0.047  0.047
   25  0.000  0.000  0.043  0.043
   26  0.002  0.000  0.020  0.022
   27  0.015  0.001  0.018  0.034
   28  0.000  0.000  0.002  0.002
   29  0.000  0.000  0.002  0.002
   30  0.001  0.000  0.003  0.005
   31  0.000  0.000  0.002  0.002
   32  0.001  0.000  0.003  0.004
   33  0.001  0.000  0.003  0.005
   34  0.001  0.000  0.003  0.004
   35  0.000  0.000  0.007  0.007
   36  0.000  0.000  0.000  0.001
   37  0.000  0.000  0.000  0.000
tot    0.125  0.017  0.661  0.803
 
band    11 # energy   -5.03837303 # occ.  2.00000000
 
ion      s      p      d    tot
    1  0.001  0.001  0.012  0.014
    2  0.000  0.000  0.008  0.009
    3  0.000  0.000  0.008  0.009
    4  0.000  0.000  0.008  0.009
    5  0.001  0.000  0.003  0.004
    6  0.000  0.000  0.008  0.009
    7  0.000  0.000  0.008  0.009
    8  0.000  0.000  0.008  0.009
    9  0.008  0.001  0.000  0.009
   10  0.003  0.000  0.047  0.051
   11  0.001  0.000  0.051  0.051
   12  0.004  0.000  0.047  0.051
   13  0.001  0.000  0.051  0.051
   14  0.001  0.000  0.051  0.051
   15  0.006  0.000  0.008  0.015
   16  0.004  0.000  0.047  0.051
   17  0.006  0.000  0.008  0.015
   18  0.006  0.000  0.008  0.015
   19  0.004  0.000  0.010  0.014
   20  0.003  0.000  0.040  0.044
   21  0.003  0.000  0.041  0.044
   22  0.001  0.000  0.045  0.046
   23  0.003  0.000  0.041  0.044
   24  0.001  0.000  0.045  0.046
   25  0.004  0.000  0.010  0.015
   26  0.004  0.000  0.010  0.014
   27  0.001  0.000  0.045  0.046
   28  0.008  0.001  0.000  0.009
   29  0.000  0.000  0.010  0.011
   30  0.000  0.000  0.010  0.011
   31  0.000  0.000  0.010  0.011
   32  0.000  0.000  0.010  0.011
   33  0.000  0.000  0.010  0.011
   34  0.000  0.000  0.010  0.011
   35  0.000  0.000  0.011  0.011
   36  0.003  0.000  0.000  0.004
   37  0.000  0.000  0.000  0.000
tot    0.078  0.009  0.745  0.832
 
band    12 # energy   -5.01706905 # occ.  2.00000000
 
ion      s      p      d    tot
    1  0.002  0.000  0.003  0.005
    2  0.000  0.000  0.008  0.009
    3  0.000  0.000  0.008  0.009
    4  0.000  0.000  0.008  0.009
    5  0.002  0.000  0.000  0.003
    6  0.000  0.000  0.008  0.009
    7  0.000  0.000  0.008  0.009
    8  0.000  0.000  0.008  0.009
    9  0.000  0.000  0.011  0.011
   10  0.000  0.000  0.061  0.061
   11  0.004  0.001  0.002  0.007
   12  0.000  0.000  0.061  0.061
   13  0.004  0.001  0.002  0.007
   14  0.004  0.001  0.002  0.007
   15  0.005  0.000  0.065  0.070
   16  0.000  0.000  0.061  0.061
   17  0.005  0.000  0.065  0.070
   18  0.005  0.000  0.065  0.070
   19  0.002  0.000  0.043  0.045
   20  0.001  0.000  0.019  0.020
   21  0.001  0.000  0.019  0.020
   22  0.000  0.000  0.039  0.039
   23  0.001  0.000  0.019  0.020
   24  0.000  0.000  0.039  0.039
   25  0.002  0.000  0.043  0.045
   26  0.002  0.000  0.043  0.045
   27  0.000  0.000  0.039  0.039
   28  0.000  0.000  0.005  0.006
   29  0.000  0.000  0.006  0.006
   30  0.000  0.000  0.006  0.006
   31  0.000  0.000  0.006  0.006
   32  0.000  0.000  0.006  0.006
   33  0.000  0.000  0.006  0.006
   34  0.000  0.000  0.006  0.006
   35  0.003  0.000  0.002  0.005
   36  0.001  0.000  0.001  0.003
   37  0.000  0.001  0.000  0.001
tot    0.044  0.008  0.796  0.848
 
band    13 # energy   -5.01502051 # occ.  2.00000000
 
ion      s      p      d    tot
    1  0.000  0.000  0.015  0.015
    2  0.002  0.000  0.006  0.008
    3  0.000  0.000  0.011  0.012
    4  0.002  0.000  0.006  0.008
    5  0.000  0.000  0.006  0.006
    6  0.002  0.001  0.007  0.010
    7  0.000  0.000  0.011  0.011
    8  0.002  0.001  0.007  0.010
    9  0.000  0.000  0.007  0.008
   10  0.000  0.000  0.065  0.066
   11  0.000  0.000  0.039  0.039
   12  0.013  0.000  0.040  0.052
   13  0.000  0.000  0.040  0.040
   14  0.000  0.001  0.016  0.017
   15  0.010  0.000  0.035  0.045
   16  0.012  0.000  0.040  0.053
   17  0.011  0.000  0.033  0.044
   18  0.000  0.000  0.121  0.121
   19  0.000  0.000  0.026  0.027
   20  0.000  0.000  0.037  0.037
   21  0.002  0.000  0.016  0.018
   22  0.001  0.000  0.023  0.024
   23  0.001  0.000  0.017  0.019
   24  0.000  0.000  0.014  0.014
   25  0.000  0.000  0.034  0.034
   26  0.000  0.000  0.026  0.026
   27  0.001  0.000  0.023  0.024
   28  0.000  0.000  0.011  0.011
   29  0.001  0.000  0.004  0.005
   30  0.002  0.000  0.003  0.006
   31  0.001  0.000  0.004  0.005
   32  0.001  0.000  0.004  0.005
   33  0.002  0.000  0.003  0.006
   34  0.001  0.000  0.004  0.004
   35  0.000  0.000  0.005  0.005
   36  0.000  0.000  0.000  0.001
   37  0.000  0.000  0.000  0.000
tot    0.067  0.009  0.761  0.837
 
band    14 # energy   -5.01499602 # occ.  2.00000000
 
ion      s      p      d    tot
    1  0.000  0.000  0.015  0.016
    2  0.001  0.001  0.010  0.012
    3  0.003  0.001  0.005  0.008
    4  0.001  0.001  0.010  0.012
    5  0.000  0.000  0.006  0.006
    6  0.001  0.000  0.009  0.010
    7  0.003  0.001  0.005  0.008
    8  0.000  0.000  0.009  0.010
    9  0.000  0.000  0.007  0.008
   10  0.017  0.000  0.031  0.048
   11  0.000  0.000  0.024  0.024
   12  0.004  0.000  0.057  0.062
   13  0.000  0.000  0.023  0.024
   14  0.000  0.000  0.047  0.047
   15  0.004  0.000  0.091  0.095
   16  0.004  0.000  0.057  0.061
   17  0.003  0.000  0.093  0.097
   18  0.014  0.000  0.005  0.019
   19  0.000  0.000  0.031  0.031
   20  0.002  0.000  0.010  0.012
   21  0.000  0.000  0.031  0.031
   22  0.000  0.000  0.017  0.017
   23  0.001  0.000  0.030  0.031
   24  0.001  0.000  0.026  0.028
   25  0.000  0.000  0.024  0.024
   26  0.000  0.000  0.031  0.031
   27  0.000  0.000  0.017  0.017
   28  0.000  0.000  0.011  0.011
   29  0.002  0.000  0.003  0.005
   30  0.000  0.000  0.004  0.004
   31  0.002  0.000  0.003  0.005
   32  0.002  0.000  0.004  0.006
   33  0.000  0.000  0.004  0.004
   34  0.002  0.000  0.004  0.006
   35  0.000  0.000  0.005  0.005
   36  0.000  0.000  0.000  0.001
   37  0.000  0.000  0.000  0.000
tot    0.067  0.009  0.761  0.837
 
band    15 # energy   -4.99848968 # occ.  2.00000000
 
ion      s      p      d    tot
    1  0.000  0.000  0.006  0.006
    2  0.003  0.000  0.006  0.010
    3  0.000  0.000  0.009  0.010
    4  0.003  0.000  0.006  0.010
    5  0.000  0.000  0.010  0.011
    6  0.002  0.000  0.007  0.009
    7  0.000  0.000  0.009  0.010
    8  0.002  0.000  0.007  0.009
    9  0.000  0.000  0.019  0.019
   10  0.004  0.000  0.022  0.026
   11  0.002  0.000  0.046  0.048
   12  0.001  0.000  0.029  0.031
   13  0.002  0.000  0.045  0.047
   14  0.007  0.000  0.010  0.017
   15  0.000  0.000  0.026  0.026
   16  0.001  0.000  0.030  0.031
   17  0.000  0.000  0.027  0.027
   18  0.000  0.000  0.041  0.041
   19  0.002  0.000  0.066  0.068
   20  0.000  0.000  0.050  0.050
   21  0.000  0.000  0.023  0.023
   22  0.003  0.000  0.057  0.061
   23  0.000  0.000  0.022  0.022
   24  0.013  0.000  0.021  0.034
   25  0.008  0.000  0.007  0.015
   26  0.002  0.000  0.064  0.066
   27  0.003  0.000  0.058  0.062
   28  0.000  0.000  0.004  0.004
   29  0.000  0.000  0.007  0.007
   30  0.001  0.000  0.002  0.003
   31  0.000  0.000  0.007  0.007
   32  0.001  0.001  0.007  0.009
   33  0.001  0.000  0.002  0.004
   34  0.001  0.001  0.007  0.009
   35  0.000  0.000  0.008  0.008
   36  0.000  0.000  0.001  0.001
   37  0.000  0.000  0.000  0.000
tot    0.064  0.008  0.770  0.842
 
band    16 # energy   -4.99846289 # occ.  2.00000000
 
ion      s      p      d    tot
    1  0.000  0.000  0.006  0.006
    2  0.000  0.000  0.009  0.009
    3  0.003  0.001  0.006  0.010
    4  0.000  0.000  0.009  0.009
    5  0.000  0.000  0.010  0.011
    6  0.002  0.000  0.008  0.010
    7  0.003  0.001  0.006  0.010
    8  0.002  0.000  0.008  0.010
    9  0.000  0.000  0.019  0.019
   10  0.000  0.000  0.032  0.032
   11  0.005  0.000  0.021  0.026
   12  0.003  0.000  0.024  0.028
   13  0.005  0.000  0.023  0.028
   14  0.000  0.000  0.058  0.058
   15  0.000  0.000  0.036  0.037
   16  0.003  0.000  0.024  0.028
   17  0.000  0.000  0.036  0.036
   18  0.000  0.000  0.022  0.022
   19  0.006  0.000  0.025  0.032
   20  0.000  0.000  0.013  0.014
   21  0.000  0.000  0.040  0.040
   22  0.009  0.000  0.034  0.044
   23  0.000  0.000  0.041  0.042
   24  0.000  0.000  0.070  0.070
   25  0.000  0.000  0.084  0.084
   26  0.006  0.000  0.028  0.034
   27  0.010  0.000  0.033  0.043
   28  0.000  0.000  0.004  0.004
   29  0.002  0.001  0.004  0.006
   30  0.000  0.000  0.009  0.010
   31  0.002  0.001  0.004  0.006
   32  0.001  0.000  0.003  0.004
   33  0.000  0.000  0.009  0.010
   34  0.001  0.000  0.003  0.004
   35  0.000  0.000  0.008  0.008
   36  0.000  0.000  0.001  0.001
   37  0.000  0.000  0.000  0.000
tot    0.064  0.008  0.770  0.842
 
band    17 # energy   -4.96117645 # occ.  2.00000000
 
ion      s      p      d    tot
    1  0.004  0.000  0.006  0.010
    2  0.002  0.000  0.010  0.012
    3  0.002  0.000  0.010  0.012
    4  0.002  0.000  0.010  0.012
    5  0.002  0.000  0.012  0.014
    6  0.002  0.000  0.010  0.012
    7  0.002  0.000  0.010  0.012
    8  0.002  0.000  0.010  0.012
    9  0.001  0.000  0.010  0.011
   10  0.001  0.000  0.007  0.008
   11  0.002  0.000  0.007  0.009
   12  0.001  0.000  0.007  0.008
   13  0.002  0.000  0.007  0.009
   14  0.002  0.000  0.007  0.009
   15  0.002  0.000  0.008  0.010
   16  0.001  0.000  0.007  0.008
   17  0.002  0.000  0.008  0.010
   18  0.002  0.000  0.008  0.010
   19  0.001  0.001  0.013  0.015
   20  0.000  0.001  0.023  0.024
   21  0.000  0.001  0.023  0.024
   22  0.000  0.001  0.021  0.022
   23  0.000  0.001  0.023  0.024
   24  0.000  0.001  0.021  0.022
   25  0.001  0.001  0.013  0.015
   26  0.001  0.001  0.013  0.015
   27  0.000  0.001  0.021  0.022
   28  0.015  0.000  0.035  0.050
   29  0.015  0.000  0.032  0.047
   30  0.015  0.000  0.032  0.047
   31  0.015  0.000  0.032  0.047
   32  0.015  0.000  0.032  0.047
   33  0.015  0.000  0.032  0.047
   34  0.015  0.000  0.032  0.047
   35  0.019  0.000  0.033  0.052
   36  0.006  0.000  0.008  0.015
   37  0.001  0.000  0.000  0.001
tot    0.176  0.009  0.589  0.774
 
band    18 # energy   -4.87614500 # occ.  2.00000000
 
ion      s      p      d    tot
    1  0.000  0.000  0.000  0.000
    2  0.000  0.000  0.005  0.006
    3  0.000  0.000  0.005  0.006
    4  0.000  0.000  0.005  0.006
    5  0.000  0.000  0.016  0.016
    6  0.000  0.000  0.005  0.006
    7  0.000  0.000  0.005  0.006
    8  0.000  0.000  0.005  0.006
    9  0.001  0.001  0.008  0.009
   10  0.000  0.000  0.011  0.011
   11  0.000  0.001  0.076  0.077
   12  0.000  0.000  0.011  0.011
   13  0.000  0.001  0.076  0.077
   14  0.000  0.001  0.076  0.076
   15  0.001  0.001  0.041  0.042
   16  0.000  0.000  0.011  0.011
   17  0.001  0.001  0.041  0.042
   18  0.001  0.001  0.041  0.042
   19  0.000  0.000  0.018  0.018
   20  0.001  0.000  0.070  0.072
   21  0.001  0.000  0.070  0.072
   22  0.003  0.000  0.020  0.023
   23  0.001  0.000  0.070  0.072
   24  0.003  0.000  0.020  0.023
   25  0.000  0.000  0.018  0.018
   26  0.000  0.000  0.018  0.018
   27  0.003  0.000  0.020  0.023
   28  0.005  0.001  0.000  0.006
   29  0.000  0.000  0.011  0.011
   30  0.000  0.000  0.011  0.011
   31  0.000  0.000  0.011  0.011
   32  0.000  0.000  0.011  0.011
   33  0.000  0.000  0.011  0.011
   34  0.000  0.000  0.011  0.011
   35  0.001  0.000  0.000  0.001
   36  0.001  0.001  0.004  0.005
   37  0.000  0.001  0.000  0.001
tot    0.024  0.014  0.829  0.867
 
band    19 # energy   -4.85527460 # occ.  2.00000000
 
ion      s      p      d    tot
    1  0.000  0.000  0.001  0.001
    2  0.001  0.001  0.007  0.009
    3  0.000  0.000  0.009  0.009
    4  0.001  0.001  0.007  0.009
    5  0.000  0.001  0.015  0.016
    6  0.001  0.000  0.005  0.006
    7  0.000  0.000  0.009  0.009
    8  0.001  0.000  0.005  0.006
    9  0.000  0.000  0.011  0.012
   10  0.000  0.001  0.023  0.025
   11  0.000  0.000  0.081  0.082
   12  0.000  0.000  0.026  0.027
   13  0.000  0.000  0.083  0.083
   14  0.002  0.000  0.041  0.043
   15  0.001  0.000  0.020  0.021
   16  0.000  0.000  0.026  0.027
   17  0.001  0.000  0.019  0.020
   18  0.002  0.001  0.039  0.042
   19  0.001  0.000  0.010  0.011
   20  0.003  0.000  0.049  0.053
   21  0.001  0.000  0.082  0.083
   22  0.000  0.000  0.033  0.033
   23  0.001  0.000  0.080  0.082
   24  0.000  0.001  0.020  0.021
   25  0.002  0.001  0.031  0.034
   26  0.001  0.000  0.009  0.010
   27  0.000  0.000  0.032  0.033
   28  0.000  0.000  0.007  0.007
   29  0.001  0.000  0.005  0.006
   30  0.000  0.000  0.007  0.008
   31  0.001  0.000  0.005  0.006
   32  0.002  0.001  0.006  0.009
   33  0.000  0.000  0.007  0.008
   34  0.002  0.001  0.006  0.008
   35  0.000  0.000  0.001  0.001
   36  0.000  0.001  0.004  0.005
   37  0.000  0.000  0.000  0.000
tot    0.025  0.015  0.824  0.864
 
band    20 # energy   -4.85526150 # occ.  2.00000000
 
ion      s      p      d    tot
    1  0.000  0.000  0.001  0.001
    2  0.000  0.000  0.007  0.008
    3  0.001  0.001  0.005  0.007
    4  0.000  0.000  0.007  0.008
    5  0.000  0.001  0.015  0.016
    6  0.001  0.000  0.009  0.010
    7  0.001  0.001  0.005  0.007
    8  0.001  0.000  0.009  0.010
    9  0.000  0.000  0.011  0.011
   10  0.000  0.000  0.028  0.028
   11  0.001  0.000  0.056  0.057
   12  0.000  0.001  0.024  0.025
   13  0.001  0.000  0.054  0.055
   14  0.000  0.000  0.095  0.096
   15  0.002  0.001  0.032  0.034
   16  0.000  0.001  0.024  0.026
   17  0.002  0.001  0.033  0.035
   18  0.000  0.000  0.013  0.013
   19  0.002  0.001  0.023  0.026
   20  0.000  0.000  0.092  0.092
   21  0.003  0.000  0.059  0.062
   22  0.000  0.001  0.024  0.025
   23  0.002  0.000  0.061  0.063
   24  0.000  0.000  0.036  0.037
   25  0.000  0.000  0.003  0.003
   26  0.002  0.001  0.024  0.027
   27  0.000  0.001  0.025  0.025
   28  0.000  0.000  0.007  0.007
   29  0.001  0.001  0.007  0.009
   30  0.002  0.001  0.005  0.007
   31  0.001  0.001  0.007  0.009
   32  0.000  0.000  0.006  0.006
   33  0.002  0.001  0.005  0.007
   34  0.000  0.000  0.006  0.006
   35  0.000  0.000  0.001  0.001
   36  0.000  0.001  0.004  0.005
   37  0.000  0.000  0.000  0.000
tot    0.025  0.015  0.824  0.864
 
band    21 # energy   -4.84238934 # occ.  2.00000000
 
ion      s      p      d    tot
    1  0.000  0.000  0.007  0.007
    2  0.000  0.001  0.012  0.012
    3  0.000  0.001  0.012  0.012
    4  0.000  0.001  0.012  0.012
    5  0.004  0.001  0.001  0.006
    6  0.000  0.001  0.012  0.012
    7  0.000  0.001  0.012  0.012
    8  0.000  0.001  0.012  0.012
    9  0.002  0.000  0.003  0.005
   10  0.002  0.001  0.053  0.056
   11  0.000  0.000  0.027  0.027
   12  0.002  0.001  0.054  0.056
   13  0.000  0.000  0.027  0.027
   14  0.000  0.000  0.027  0.027
   15  0.002  0.000  0.025  0.027
   16  0.002  0.001  0.054  0.056
   17  0.002  0.000  0.025  0.027
   18  0.002  0.000  0.025  0.028
   19  0.001  0.001  0.053  0.055
   20  0.001  0.000  0.016  0.017
   21  0.001  0.000  0.016  0.017
   22  0.000  0.001  0.043  0.044
   23  0.001  0.000  0.016  0.017
   24  0.000  0.001  0.043  0.044
   25  0.001  0.001  0.053  0.055
   26  0.001  0.001  0.053  0.055
   27  0.000  0.001  0.043  0.044
   28  0.000  0.000  0.013  0.013
   29  0.000  0.000  0.009  0.010
   30  0.000  0.000  0.009  0.010
   31  0.000  0.000  0.009  0.010
   32  0.000  0.000  0.009  0.010
   33  0.000  0.000  0.009  0.010
   34  0.000  0.000  0.009  0.010
   35  0.004  0.001  0.003  0.007
   36  0.002  0.000  0.000  0.002