PROCAR new format
# of k-points:   10         # of bands:  252         # of ions:   37

 k-point     1 :    0.00000000 0.00000000 0.00000000     weight = 0.01562500

band     1 # energy  -48.22395353 # occ.  2.00000000
 
ion      s      p      d    tot
    1  0.000  0.000  0.000  0.000
    2  0.000  0.000  0.000  0.000
    3  0.000  0.000  0.000  0.000
    4  0.000  0.000  0.000  0.000
    5  0.000  0.000  0.000  0.000
    6  0.000  0.000  0.000  0.000
    7  0.000  0.000  0.000  0.000
    8  0.000  0.000  0.000  0.000
    9  0.000  0.000  0.000  0.000
   10  0.000  0.000  0.000  0.000
   11  0.000  0.000  0.000  0.000
   12  0.000  0.000  0.000  0.000
   13  0.000  0.000  0.000  0.000
   14  0.000  0.000  0.000  0.000
   15  0.000  0.000  0.000  0.000
   16  0.000  0.000  0.000  0.000
   17  0.000  0.000  0.000  0.000
   18  0.000  0.000  0.000  0.000
   19  0.000  0.000  0.000  0.000
   20  0.000  0.000  0.000  0.000
   21  0.000  0.000  0.000  0.000
   22  0.000  0.000  0.000  0.000
   23  0.000  0.000  0.000  0.000
   24  0.000  0.000  0.000  0.000
   25  0.000  0.000  0.000  0.000
   26  0.000  0.000  0.000  0.000
   27  0.000  0.000  0.000  0.000
   28  0.000  0.000  0.000  0.000
   29  0.000  0.000  0.000  0.000
   30  0.000  0.000  0.000  0.000
   31  0.000  0.000  0.000  0.000
   32  0.000  0.000  0.000  0.000
   33  0.000  0.000  0.000  0.000
   34  0.000  0.000  0.000  0.000
   35  0.000  0.000  0.000  0.000
   36  0.991  0.000  0.000  0.992
   37  0.002  0.002  0.000  0.003
tot    0.993  0.002  0.000  0.995
 
band     2 # energy  -26.84604029 # occ.  2.00000000
 
ion      s      p      d    tot
    1  0.000  0.000  0.000  0.000
    2  0.000  0.000  0.000  0.000
    3  0.000  0.000  0.000  0.000
    4  0.000  0.000  0.000  0.000
    5  0.000  0.000  0.000  0.000
    6  0.000  0.000  0.000  0.000
    7  0.000  0.000  0.000  0.000
    8  0.000  0.000  0.000  0.000
    9  0.000  0.000  0.000  0.000
   10  0.000  0.000  0.000  0.000
   11  0.000  0.000  0.000  0.000
   12  0.000  0.000  0.000  0.000
   13  0.000  0.000  0.000  0.000
   14  0.000  0.000  0.000  0.000
   15  0.000  0.000  0.000  0.000
   16  0.000  0.000  0.000  0.000
   17  0.000  0.000  0.000  0.000
   18  0.000  0.000  0.000  0.000
   19  0.000  0.000  0.000  0.000
   20  0.000  0.000  0.000  0.000
   21  0.000  0.000  0.000  0.000
   22  0.000  0.000  0.000  0.000
   23  0.000  0.000  0.000  0.000
   24  0.000  0.000  0.000  0.000
   25  0.000  0.000  0.000  0.000
   26  0.000  0.000  0.000  0.000
   27  0.000  0.000  0.000  0.000
   28  0.000  0.000  0.000  0.000
   29  0.000  0.000  0.000  0.000
   30  0.000  0.000  0.000  0.000
   31  0.000  0.000  0.000  0.000
   32  0.000  0.000  0.000  0.000
   33  0.000  0.000  0.000  0.000
   34  0.000  0.000  0.000  0.000
   35  0.000  0.000  0.000  0.000
   36  0.001  0.905  0.003  0.908
   37  0.053  0.018  0.000  0.071
tot    0.054  0.923  0.003  0.980
 
band     3 # energy  -26.35395472 # occ.  2.00000000
 
ion      s      p      d    tot
    1  0.000  0.000  0.000  0.000
    2  0.000  0.000  0.000  0.000
    3  0.000  0.000  0.000  0.000
    4  0.000  0.000  0.000  0.000
    5  0.000  0.000  0.000  0.000
    6  0.000  0.000  0.000  0.000
    7  0.000  0.000  0.000  0.000
    8  0.000  0.000  0.000  0.000
    9  0.000  0.000  0.000  0.000
   10  0.000  0.000  0.000  0.000
   11  0.000  0.000  0.000  0.000
   12  0.000  0.000  0.000  0.000
   13  0.000  0.000  0.000  0.000
   14  0.000  0.000  0.000  0.000
   15  0.000  0.000  0.000  0.000
   16  0.000  0.000  0.000  0.000
   17  0.000  0.000  0.000  0.000
   18  0.000  0.000  0.000  0.000
   19  0.000  0.000  0.000  0.000
   20  0.000  0.000  0.000  0.000
   21  0.000  0.000  0.000  0.000
   22  0.000  0.000  0.000  0.000
   23  0.000  0.000  0.000  0.000
   24  0.000  0.000  0.000  0.000
   25  0.000  0.000  0.000  0.000
   26  0.000  0.000  0.000  0.000
   27  0.000  0.000  0.000  0.000
   28  0.000  0.000  0.000  0.000
   29  0.000  0.000  0.000  0.000
   30  0.000  0.000  0.000  0.000
   31  0.000  0.000  0.000  0.000
   32  0.000  0.000  0.000  0.000
   33  0.000  0.000  0.000  0.000
   34  0.000  0.000  0.000  0.000
   35  0.000  0.000  0.000  0.000
   36  0.000  0.970  0.000  0.970
   37  0.000  0.001  0.000  0.001
tot    0.000  0.972  0.001  0.973
 
band     4 # energy  -26.35394695 # occ.  2.00000000
 
ion      s      p      d    tot
    1  0.000  0.000  0.000  0.000
    2  0.000  0.000  0.000  0.000
    3  0.000  0.000  0.000  0.000
    4  0.000  0.000  0.000  0.000
    5  0.000  0.000  0.000  0.000
    6  0.000  0.000  0.000  0.000
    7  0.000  0.000  0.000  0.000
    8  0.000  0.000  0.000  0.000
    9  0.000  0.000  0.000  0.000
   10  0.000  0.000  0.000  0.000
   11  0.000  0.000  0.000  0.000
   12  0.000  0.000  0.000  0.000
   13  0.000  0.000  0.000  0.000
   14  0.000  0.000  0.000  0.000
   15  0.000  0.000  0.000  0.000
   16  0.000  0.000  0.000  0.000
   17  0.000  0.000  0.000  0.000
   18  0.000  0.000  0.000  0.000
   19  0.000  0.000  0.000  0.000
   20  0.000  0.000  0.000  0.000
   21  0.000  0.000  0.000  0.000
   22  0.000  0.000  0.000  0.000
   23  0.000  0.000  0.000  0.000
   24  0.000  0.000  0.000  0.000
   25  0.000  0.000  0.000  0.000
   26  0.000  0.000  0.000  0.000
   27  0.000  0.000  0.000  0.000
   28  0.000  0.000  0.000  0.000
   29  0.000  0.000  0.000  0.000
   30  0.000  0.000  0.000  0.001
   31  0.000  0.000  0.000  0.000
   32  0.000  0.000  0.000  0.000
   33  0.000  0.000  0.000  0.001
   34  0.000  0.000  0.000  0.000
   35  0.000  0.000  0.000  0.000
   36  0.000  0.970  0.000  0.970
   37  0.000  0.001  0.000  0.001
tot    0.000  0.972  0.001  0.973
 
band     5 # energy  -15.62421799 # occ.  2.00000000
 
ion      s      p      d    tot
    1  0.000  0.000  0.000  0.000
    2  0.000  0.000  0.000  0.000
    3  0.000  0.000  0.000  0.000
    4  0.000  0.000  0.000  0.000
    5  0.000  0.000  0.000  0.000
    6  0.000  0.000  0.000  0.000
    7  0.000  0.000  0.000  0.000
    8  0.000  0.000  0.000  0.000
    9  0.000  0.000  0.000  0.000
   10  0.000  0.000  0.000  0.000
   11  0.000  0.000  0.000  0.000
   12  0.000  0.000  0.000  0.000
   13  0.000  0.000  0.000  0.000
   14  0.000  0.000  0.000  0.000
   15  0.000  0.000  0.000  0.000
   16  0.000  0.000  0.000  0.000
   17  0.000  0.000  0.000  0.000
   18  0.000  0.000  0.000  0.000
   19  0.000  0.000  0.000  0.000
   20  0.000  0.000  0.000  0.000
   21  0.000  0.000  0.000  0.000
   22  0.000  0.000  0.000  0.000
   23  0.000  0.000  0.000  0.000
   24  0.000  0.000  0.000  0.000
   25  0.000  0.000  0.000  0.000
   26  0.000  0.000  0.000  0.000
   27  0.000  0.000  0.000  0.000
   28  0.000  0.000  0.000  0.000
   29  0.000  0.000  0.000  0.000
   30  0.000  0.000  0.000  0.000
   31  0.000  0.000  0.000  0.000
   32  0.000  0.000  0.000  0.000
   33  0.000  0.000  0.000  0.000
   34  0.000  0.000  0.000  0.000
   35  0.000  0.000  0.000  0.000
   36  0.016  0.072  0.054  0.142
   37  0.733  0.002  0.000  0.735
tot    0.750  0.074  0.055  0.879
 
band     6 # energy   -6.34796013 # occ.  2.00000000
 
ion      s      p      d    tot
    1  0.006  0.001  0.000  0.006
    2  0.006  0.001  0.000  0.006
    3  0.006  0.001  0.000  0.006
    4  0.006  0.001  0.000  0.006
    5  0.006  0.001  0.000  0.006
    6  0.006  0.001  0.000  0.006
    7  0.006  0.001  0.000  0.006
    8  0.006  0.001  0.000  0.006
    9  0.006  0.001  0.000  0.006
   10  0.023  0.000  0.000  0.023
   11  0.023  0.000  0.000  0.024
   12  0.023  0.000  0.000  0.023
   13  0.023  0.000  0.000  0.024
   14  0.023  0.000  0.000  0.024
   15  0.022  0.000  0.000  0.022
   16  0.023  0.000  0.000  0.023
   17  0.022  0.000  0.000  0.022
   18  0.022  0.000  0.000  0.022
   19  0.023  0.000  0.000  0.024
   20  0.025  0.000  0.000  0.026
   21  0.026  0.000  0.000  0.026
   22  0.023  0.000  0.000  0.023
   23  0.026  0.000  0.000  0.026
   24  0.023  0.000  0.000  0.023
   25  0.023  0.000  0.000  0.024
   26  0.023  0.000  0.000  0.024
   27  0.023  0.000  0.000  0.023
   28  0.006  0.001  0.000  0.007
   29  0.006  0.001  0.000  0.007
   30  0.006  0.001  0.000  0.007
   31  0.006  0.001  0.000  0.007
   32  0.006  0.001  0.000  0.007
   33  0.006  0.001  0.000  0.007
   34  0.006  0.001  0.000  0.007
   35  0.006  0.001  0.000  0.006
   36  0.003  0.001  0.000  0.004
   37  0.000  0.000  0.000  0.001
tot    0.520  0.013  0.006  0.539
 
band     7 # energy   -5.49017572 # occ.  2.00000000
 
ion      s      p      d    tot
    1  0.008  0.000  0.000  0.009
    2  0.008  0.000  0.000  0.009
    3  0.008  0.000  0.000  0.009
    4  0.008  0.000  0.000  0.009
    5  0.008  0.000  0.000  0.009
    6  0.008  0.000  0.000  0.009
    7  0.008  0.000  0.000  0.009
    8  0.008  0.000  0.000  0.009
    9  0.008  0.000  0.000  0.009
   10  0.012  0.001  0.016  0.029
   11  0.012  0.001  0.015  0.028
   12  0.012  0.001  0.016  0.029
   13  0.012  0.001  0.015  0.028
   14  0.012  0.001  0.015  0.028
   15  0.011  0.001  0.013  0.025
   16  0.012  0.001  0.016  0.029
   17  0.011  0.001  0.013  0.025
   18  0.011  0.001  0.013  0.025
   19  0.011  0.001  0.015  0.027
   20  0.012  0.001  0.024  0.036
   21  0.012  0.001  0.024  0.036
   22  0.010  0.001  0.014  0.025
   23  0.012  0.001  0.024  0.036
   24  0.010  0.001  0.014  0.025
   25  0.011  0.001  0.015  0.027
   26  0.011  0.001  0.015  0.027
   27  0.010  0.001  0.014  0.025
   28  0.008  0.000  0.001  0.009
   29  0.007  0.000  0.000  0.008
   30  0.007  0.000  0.000  0.008
   31  0.007  0.000  0.000  0.008
   32  0.007  0.000  0.000  0.008
   33  0.007  0.000  0.000  0.008
   34  0.007  0.000  0.000  0.008
   35  0.007  0.000  0.000  0.008
   36  0.003  0.000  0.000  0.004
   37  0.000  0.000  0.000  0.001
tot    0.336  0.024  0.291  0.652
 
band     8 # energy   -5.23862668 # occ.  2.00000000
 
ion      s      p      d    tot
    1  0.007  0.000  0.009  0.016
    2  0.006  0.000  0.008  0.014
    3  0.006  0.000  0.008  0.014
    4  0.006  0.000  0.008  0.014
    5  0.006  0.000  0.007  0.013
    6  0.006  0.000  0.008  0.014
    7  0.006  0.000  0.008  0.014
    8  0.006  0.000  0.008  0.014
    9  0.006  0.000  0.008  0.014
   10  0.000  0.000  0.015  0.015
   11  0.000  0.000  0.008  0.009
   12  0.000  0.000  0.015  0.015
   13  0.000  0.000  0.008  0.009
   14  0.000  0.000  0.008  0.009
   15  0.000  0.000  0.006  0.006
   16  0.000  0.000  0.015  0.015
   17  0.000  0.000  0.006  0.006
   18  0.000  0.000  0.006  0.006
   19  0.000  0.000  0.020  0.021
   20  0.001  0.000  0.038  0.039
   21  0.001  0.000  0.038  0.039
   22  0.000  0.000  0.013  0.014
   23  0.001  0.000  0.038  0.039
   24  0.000  0.000  0.013  0.014
   25  0.000  0.000  0.020  0.021
   26  0.000  0.000  0.020  0.021
   27  0.000  0.000  0.013  0.014
   28  0.014  0.000  0.018  0.032
   29  0.015  0.000  0.024  0.039
   30  0.015  0.000  0.024  0.039
   31  0.015  0.000  0.024  0.039
   32  0.015  0.000  0.024  0.039
   33  0.015  0.000  0.024  0.039
   34  0.015  0.000  0.024  0.039
   35  0.017  0.000  0.020  0.037
   36  0.005  0.000  0.009  0.014
   37  0.000  0.001  0.000  0.001
tot    0.190  0.006  0.564  0.761
 
band     9 # energy   -5.13034418 # occ.  2.00000000
 
ion      s      p      d    tot
    1  0.001  0.000  0.004  0.005
    2  0.001  0.000  0.006  0.007
    3  0.001  0.000  0.006  0.007
    4  0.001  0.000  0.006  0.007
    5  0.005  0.000  0.002  0.007
    6  0.001  0.000  0.006  0.007
    7  0.001  0.000  0.006  0.007
    8  0.001  0.000  0.006  0.007
    9  0.002  0.000  0.001  0.004
   10  0.004  0.000  0.010  0.014
   11  0.000  0.000  0.021  0.022
   12  0.004  0.000  0.010  0.014
   13  0.000  0.000  0.021  0.022
   14  0.000  0.000  0.021  0.022
   15  0.002  0.000  0.010  0.012
   16  0.004  0.000  0.010  0.014
   17  0.002  0.000  0.010  0.012
   18  0.002  0.000  0.010  0.012
   19  0.002  0.001  0.032  0.034
   20  0.005  0.000  0.123  0.129
   21  0.005  0.000  0.124  0.129
   22  0.014  0.000  0.015  0.029
   23  0.005  0.000  0.124  0.129
   24  0.014  0.000  0.015  0.029
   25  0.002  0.001  0.032  0.034
   26  0.002  0.001  0.032  0.034
   27  0.014  0.000  0.015  0.029
   28  0.001  0.000  0.002  0.003
   29  0.000  0.000  0.004  0.004
   30  0.000  0.000  0.004  0.004
   31  0.000  0.000  0.004  0.004
   32  0.000  0.000  0.004  0.004
   33  0.000  0.000  0.004  0.004
   34  0.000  0.000  0.004  0.004
   35  0.003  0.001  0.004  0.008
   36  0.001  0.001  0.004  0.006
   37  0.000  0.002  0.000  0.003
tot    0.100  0.013  0.709  0.823
 
band    10 # energy   -5.11044806 # occ.  2.00000000
 
ion      s      p      d    tot
    1  0.000  0.000  0.007  0.007
    2  0.001  0.000  0.002  0.003
    3  0.001  0.000  0.002  0.003
    4  0.000  0.000  0.002  0.002
    5  0.000  0.000  0.003  0.003
    6  0.000  0.000  0.002  0.002
    7  0.000  0.000  0.002  0.002
    8  0.000  0.000  0.002  0.002
    9  0.000  0.000  0.001  0.001
   10  0.002  0.001  0.018  0.020
   11  0.001  0.000  0.023  0.024
   12  0.002  0.001  0.018  0.020
   13  0.000  0.000  0.020  0.021
   14  0.000  0.000  0.020  0.020
   15  0.003  0.001  0.008  0.012
   16  0.007  0.001  0.015  0.022
   17  0.001  0.000  0.009  0.010
   18  0.001  0.000  0.009  0.010
   19  0.023  0.000  0.040  0.064
   20  0.006  0.000  0.146  0.151
   21  0.006  0.000  0.140  0.146
   22  0.000  0.001  0.037  0.038
   23  0.024  0.000  0.007  0.032
   24  0.000  0.001  0.037  0.038
   25  0.005  0.001  0.032  0.039
   26  0.006  0.001  0.033  0.040
   27  0.000  0.000  0.035  0.036
   28  0.000  0.000  0.006  0.006
   29  0.000  0.000  0.006  0.006
   30  0.000  0.000  0.006  0.006
   31  0.001  0.001  0.009  0.010
   32  0.001  0.001  0.009  0.010
   33  0.001  0.000  0.003  0.005
   34  0.001  0.000  0.003  0.005
   35  0.000  0.000  0.000  0.000
   36  0.000  0.000  0.003  0.003
   37  0.000  0.000  0.000  0.000
tot    0.092  0.013  0.715  0.820
 
band    11 # energy   -5.11043697 # occ.  2.00000000
 
ion      s      p      d    tot
    1  0.000  0.000  0.007  0.007
    2  0.000  0.000  0.002  0.002
    3  0.000  0.000  0.002  0.002
    4  0.001  0.000  0.002  0.003
    5  0.000  0.000  0.003  0.003
    6  0.001  0.000  0.002  0.003
    7  0.001  0.000  0.002  0.003
    8  0.001  0.000  0.002  0.003
    9  0.000  0.000  0.001  0.001
   10  0.005  0.001  0.016  0.022
   11  0.000  0.000  0.019  0.019
   12  0.005  0.001  0.016  0.022
   13  0.000  0.000  0.022  0.023
   14  0.001  0.000  0.022  0.023
   15  0.000  0.000  0.009  0.009
   16  0.000  0.001  0.019  0.020
   17  0.002  0.000  0.008  0.011
   18  0.002  0.000  0.008  0.011
   19  0.000  0.001  0.030  0.031
   20  0.018  0.000  0.049  0.068
   21  0.017  0.000  0.055  0.073
   22  0.000  0.001  0.036  0.037
   23  0.000  0.000  0.188  0.188
   24  0.000  0.001  0.036  0.037
   25  0.018  0.001  0.038  0.056
   26  0.017  0.001  0.037  0.055
   27  0.000  0.001  0.038  0.039
   28  0.000  0.000  0.006  0.006
   29  0.001  0.001  0.006  0.008
   30  0.001  0.001  0.006  0.008
   31  0.000  0.000  0.003  0.004
   32  0.000  0.000  0.003  0.004
   33  0.000  0.000  0.009  0.009
   34  0.000  0.000  0.009  0.009
   35  0.000  0.000  0.000  0.000
   36  0.000  0.000  0.003  0.003
   37  0.000  0.000  0.000  0.000
tot    0.092  0.013  0.715  0.820
 
band    12 # energy   -5.07450497 # occ.  2.00000000
 
ion      s      p      d    tot
    1  0.000  0.000  0.003  0.003
    2  0.000  0.000  0.002  0.002
    3  0.001  0.000  0.005  0.007
    4  0.000  0.000  0.002  0.002
    5  0.000  0.000  0.008  0.009
    6  0.001  0.001  0.005  0.006
    7  0.001  0.000  0.005  0.006
    8  0.001  0.000  0.004  0.006
    9  0.000  0.000  0.002  0.002
   10  0.005  0.001  0.017  0.022
   11  0.009  0.001  0.056  0.066
   12  0.001  0.000  0.066  0.067
   13  0.006  0.001  0.063  0.070
   14  0.029  0.001  0.013  0.043
   15  0.002  0.001  0.016  0.019
   16  0.002  0.000  0.059  0.061
   17  0.002  0.001  0.013  0.016
   18  0.008  0.000  0.033  0.041
   19  0.000  0.000  0.033  0.034
   20  0.012  0.000  0.044  0.057
   21  0.002  0.001  0.028  0.032
   22  0.003  0.000  0.038  0.041
   23  0.004  0.001  0.031  0.035
   24  0.017  0.001  0.008  0.026
   25  0.001  0.000  0.016  0.017
   26  0.000  0.000  0.036  0.037
   27  0.005  0.000  0.033  0.039
   28  0.000  0.000  0.001  0.001
   29  0.002  0.000  0.005  0.007
   30  0.000  0.000  0.004  0.004
   31  0.002  0.000  0.005  0.007
   32  0.000  0.000  0.003  0.004
   33  0.001  0.000  0.004  0.005
   34  0.000  0.000  0.003  0.004
   35  0.000  0.000  0.007  0.008
   36  0.000  0.000  0.002  0.002
   37  0.000  0.000  0.000  0.000
tot    0.118  0.016  0.672  0.805
 
band    13 # energy   -5.07449385 # occ.  2.00000000
 
ion      s      p      d    tot
    1  0.000  0.000  0.003  0.003
    2  0.001  0.001  0.006  0.008
    3  0.000  0.000  0.002  0.003
    4  0.001  0.001  0.006  0.008
    5  0.000  0.000  0.008  0.009
    6  0.000  0.000  0.003  0.003
    7  0.000  0.000  0.003  0.004
    8  0.000  0.000  0.003  0.004
    9  0.000  0.000  0.002  0.002
   10  0.000  0.000  0.078  0.078
   11  0.020  0.001  0.032  0.053
   12  0.004  0.001  0.028  0.033
   13  0.024  0.001  0.025  0.049
   14  0.000  0.001  0.075  0.076
   15  0.005  0.001  0.025  0.031
   16  0.004  0.001  0.035  0.040
   17  0.006  0.000  0.028  0.035
   18  0.000  0.002  0.008  0.010
   19  0.001  0.000  0.023  0.024
   20  0.000  0.001  0.025  0.026
   21  0.010  0.001  0.040  0.051
   22  0.014  0.001  0.015  0.029
   23  0.009  0.001  0.038  0.047
   24  0.000  0.000  0.045  0.045
   25  0.000  0.000  0.041  0.041
   26  0.001  0.000  0.020  0.022
   27  0.012  0.001  0.019  0.032
   28  0.000  0.000  0.001  0.001
   29  0.000  0.000  0.003  0.003
   30  0.001  0.000  0.004  0.006
   31  0.000  0.000  0.003  0.003
   32  0.001  0.000  0.005  0.007
   33  0.001  0.000  0.004  0.006
   34  0.001  0.000  0.005  0.006
   35  0.000  0.000  0.007  0.008
   36  0.000  0.000  0.002  0.002
   37  0.000  0.000  0.000  0.000
tot    0.118  0.016  0.672  0.805
 
band    14 # energy   -5.07256919 # occ.  2.00000000
 
ion      s      p      d    tot
    1  0.004  0.000  0.001  0.005
    2  0.001  0.000  0.008  0.009
    3  0.001  0.000  0.008  0.009
    4  0.001  0.000  0.008  0.009
    5  0.000  0.001  0.014  0.015
    6  0.001  0.000  0.008  0.009
    7  0.001  0.000  0.008  0.009
    8  0.001  0.000  0.008  0.009
    9  0.003  0.000  0.000  0.003
   10  0.006  0.001  0.006  0.013
   11  0.014  0.001  0.046  0.061
   12  0.006  0.001  0.006  0.013
   13  0.014  0.001  0.046  0.061
   14  0.014  0.001  0.046  0.061
   15  0.000  0.000  0.043  0.043
   16  0.006  0.001  0.006  0.013
   17  0.000  0.000  0.043  0.043
   18  0.000  0.000  0.043  0.043
   19  0.008  0.000  0.029  0.037
   20  0.006  0.001  0.026  0.033
   21  0.006  0.001  0.026  0.033
   22  0.001  0.000  0.033  0.034
   23  0.006  0.001  0.026  0.033
   24  0.001  0.000  0.033  0.034
   25  0.008  0.000  0.029  0.037
   26  0.008  0.000  0.029  0.037
   27  0.001  0.000  0.033  0.034
   28  0.004  0.000  0.000  0.005
   29  0.000  0.000  0.007  0.008
   30  0.000  0.000  0.007  0.008
   31  0.000  0.000  0.007  0.008
   32  0.000  0.000  0.007  0.008
   33  0.000  0.000  0.007  0.008
   34  0.000  0.000  0.007  0.008
   35  0.000  0.000  0.004  0.005
   36  0.000  0.000  0.000  0.001
   37  0.000  0.000  0.000  0.000
tot    0.127  0.016  0.656  0.799
 
band    15 # energy   -5.06040806 # occ.  2.00000000
 
ion      s      p      d    tot
    1  0.010  0.000  0.017  0.027
    2  0.010  0.000  0.023  0.033
    3  0.010  0.000  0.023  0.033
    4  0.010  0.000  0.023  0.033
    5  0.013  0.000  0.018  0.031
    6  0.010  0.000  0.023  0.033
    7  0.010  0.000  0.023  0.033
    8  0.010  0.000  0.023  0.033
    9  0.006  0.000  0.035  0.042
   10  0.003  0.001  0.024  0.027
   11  0.000  0.000  0.015  0.015
   12  0.003  0.001  0.024  0.027
   13  0.000  0.000  0.015  0.015
   14  0.000  0.000  0.015  0.015
   15  0.006  0.001  0.025  0.031
   16  0.003  0.001  0.024  0.027
   17  0.006  0.001  0.025  0.031
   18  0.006  0.001  0.025  0.031
   19  0.003  0.000  0.004  0.007
   20  0.000  0.000  0.015  0.016
   21  0.000  0.000  0.015  0.016
   22  0.002  0.000  0.008  0.011
   23  0.000  0.000  0.015  0.016
   24  0.002  0.000  0.008  0.011
   25  0.003  0.000  0.004  0.007
   26  0.003  0.000  0.004  0.007
   27  0.002  0.000  0.008  0.011
   28  0.002  0.000  0.013  0.014
   29  0.005  0.000  0.015  0.020
   30  0.005  0.000  0.015  0.020
   31  0.005  0.000  0.015  0.020
   32  0.005  0.000  0.015  0.020
   33  0.005  0.000  0.015  0.020
   34  0.005  0.000  0.015  0.020
   35  0.007  0.000  0.014  0.021
   36  0.003  0.000  0.002  0.005
   37  0.000  0.000  0.000  0.000
tot    0.170  0.009  0.600  0.779
 
band    16 # energy   -5.05638826 # occ.  2.00000000
 
ion      s      p      d    tot
    1  0.000  0.001  0.019  0.020
    2  0.001  0.000  0.006  0.007
    3  0.001  0.000  0.006  0.007
    4  0.001  0.000  0.006  0.007
    5  0.000  0.000  0.000  0.001
    6  0.001  0.000  0.006  0.007
    7  0.001  0.000  0.006  0.007
    8  0.001  0.000  0.006  0.007
    9  0.009  0.001  0.001  0.011
   10  0.004  0.000  0.078  0.082
   11  0.002  0.000  0.036  0.039
   12  0.004  0.000  0.079  0.082
   13  0.002  0.000  0.036  0.039
   14  0.002  0.000  0.036  0.039
   15  0.010  0.000  0.010  0.020
   16  0.004  0.000  0.078  0.082
   17  0.010  0.000  0.010  0.020
   18  0.010  0.000  0.010  0.020
   19  0.001  0.000  0.019  0.020
   20  0.004  0.000  0.025  0.029
   21  0.004  0.000  0.025  0.029
   22  0.000  0.000  0.016  0.016
   23  0.004  0.000  0.025  0.029
   24  0.000  0.000  0.016  0.016
   25  0.001  0.000  0.019  0.020
   26  0.001  0.000  0.019  0.020
   27  0.000  0.000  0.016  0.016
   28  0.012  0.001  0.002  0.015
   29  0.000  0.000  0.018  0.019
   30  0.000  0.000  0.018  0.019
   31  0.000  0.000  0.018  0.019
   32  0.000  0.000  0.018  0.019
   33  0.000  0.000  0.018  0.019
   34  0.000  0.000  0.018  0.019
   35  0.000  0.000  0.004  0.004
   36  0.002  0.000  0.000  0.002
   37  0.000  0.000  0.000  0.000
tot    0.091  0.010  0.726  0.827
 
band    17 # energy   -5.03982275 # occ.  2.00000000
 
ion      s      p      d    tot
    1  0.000  0.001  0.008  0.008
    2  0.003  0.001  0.006  0.010
    3  0.001  0.000  0.005  0.007
    4  0.004  0.001  0.005  0.010
    5  0.000  0.000  0.009  0.009
    6  0.000  0.000  0.007  0.008
    7  0.002  0.000  0.004  0.007
    8  0.001  0.000  0.008  0.009
    9  0.000  0.000  0.010  0.010
   10  0.018  0.000  0.009  0.027
   11  0.001  0.000  0.017  0.019
   12  0.003  0.000  0.053  0.055
   13  0.000  0.000  0.013  0.014
   14  0.002  0.000  0.027  0.030
   15  0.002  0.000  0.036  0.038
   16  0.007  0.000  0.040  0.047
   17  0.001  0.000  0.043  0.044
   18  0.006  0.000  0.018  0.025
   19  0.003  0.000  0.046  0.049
   20  0.001  0.000  0.041  0.042
   21  0.000  0.000  0.025  0.026
   22  0.002  0.000  0.047  0.049
   23  0.000  0.000  0.030  0.031
   24  0.015  0.000  0.011  0.026
   25  0.008  0.000  0.018  0.027
   26  0.001  0.000  0.057  0.058
   27  0.006  0.000  0.036  0.042
   28  0.000  0.000  0.014  0.014
   29  0.001  0.000  0.011  0.012
   30  0.003  0.000  0.006  0.010
   31  0.000  0.000  0.011  0.011
   32  0.005  0.001  0.007  0.013
   33  0.002  0.000  0.007  0.010
   34  0.004  0.001  0.009  0.014
   35  0.000  0.001  0.005  0.006
   36  0.000  0.000  0.002  0.003
   37  0.000  0.000  0.000  0.000
tot    0.104  0.012  0.700  0.817
 
band    18 # energy   -5.03981758 # occ.  2.00000000
 
ion      s      p      d    tot
    1  0.000  0.001  0.008  0.008
    2  0.000  0.000  0.006  0.006
    3  0.003  0.001  0.007  0.010
    4  0.000  0.000  0.007  0.007
    5  0.000  0.000  0.009  0.009
    6  0.004  0.001  0.004  0.009
    7  0.002  0.001  0.007  0.009
    8  0.003  0.001  0.004  0.008
    9  0.000  0.000  0.010  0.010
   10  0.000  0.000  0.059  0.059
   11  0.002  0.000  0.021  0.023
   12  0.016  0.000  0.015  0.031
   13  0.002  0.000  0.025  0.028
   14  0.000  0.000  0.011  0.012
   15  0.004  0.000  0.029  0.033
   16  0.011  0.000  0.028  0.039
   17  0.006  0.000  0.021  0.027
   18  0.000  0.000  0.046  0.047
   19  0.005  0.000  0.035  0.040
   20  0.000  0.000  0.023  0.023
   21  0.001  0.000  0.039  0.040
   22  0.013  0.000  0.016  0.029
   23  0.001  0.000  0.034  0.035
   24  0.000  0.000  0.052  0.052
   25  0.000  0.000  0.062  0.063
   26  0.007  0.000  0.024  0.031
   27  0.009  0.000  0.027  0.036
   28  0.000  0.000  0.014  0.014
   29  0.004  0.001  0.006  0.011
   30  0.002  0.001  0.011  0.013
   31  0.005  0.001  0.007  0.012
   32  0.000  0.000  0.010  0.010
   33  0.003  0.001  0.010  0.014
   34  0.001  0.000  0.008  0.010
   35  0.000  0.001  0.005  0.006
   36  0.000  0.000  0.002  0.003
   37  0.000  0.000  0.000  0.000
tot    0.104  0.012  0.700  0.817
 
band    19 # energy   -5.03104596 # occ.  2.00000000
 
ion      s      p      d    tot
    1  0.005  0.000  0.001  0.006
    2  0.000  0.000  0.007  0.007
    3  0.000  0.000  0.007  0.007
    4  0.000  0.000  0.007  0.007
    5  0.000  0.000  0.005  0.005
    6  0.000  0.000  0.007  0.007
    7  0.000  0.000  0.007  0.007
    8  0.000  0.000  0.007  0.007
    9  0.000  0.000  0.002  0.002
   10  0.001  0.000  0.021  0.022
   11  0.002  0.000  0.016  0.018
   12  0.001  0.000  0.021  0.022
   13  0.002  0.000  0.016  0.018
   14  0.002  0.000  0.016  0.018
   15  0.000  0.000  0.041  0.041
   16  0.001  0.000  0.021  0.022
   17  0.000  0.000  0.041  0.041
   18  0.000  0.000  0.041  0.041
   19  0.005  0.000  0.052  0.057
   20  0.003  0.000  0.016  0.019
   21  0.003  0.000  0.015  0.019
   22  0.000  0.000  0.060  0.060
   23  0.003  0.000  0.015  0.019
   24  0.000  0.000  0.060  0.060
   25  0.005  0.000  0.052  0.057
   26  0.005  0.000  0.052  0.057
   27  0.000  0.000  0.060  0.060
   28  0.000  0.000  0.018  0.019
   29  0.000  0.000  0.017  0.018
   30  0.000  0.000  0.017  0.018
   31  0.000  0.000  0.017  0.018
   32  0.000  0.000  0.017  0.018
   33  0.000  0.000  0.017  0.018
   34  0.000  0.000  0.017  0.018
   35  0.002  0.000  0.004  0.006
   36  0.003  0.001  0.000  0.004
   37  0.000  0.001  0.000  0.001
tot    0.045  0.007  0.794  0.846
 
band    20 # energy   -5.02481767 # occ.  2.00000000
 
ion      s      p      d    tot
    1  0.000  0.000  0.007  0.007
    2  0.000  0.000  0.009  0.009
    3  0.001  0.000  0.006  0.007
    4  0.000  0.000  0.008  0.009
    5  0.000  0.000  0.002  0.002
    6  0.001  0.000  0.004  0.006
    7  0.001  0.000  0.006  0.007
    8  0.001  0.000  0.004  0.006
    9  0.000  0.000  0.012  0.012
   10  0.005  0.000  0.046  0.051
   11  0.001  0.000  0.058  0.059
   12  0.001  0.000  0.017  0.019
   13  0.001  0.000  0.056  0.057
   14  0.003  0.000  0.017  0.020
   15  0.003  0.000  0.080  0.084
   16  0.001  0.000  0.016  0.018
   17  0.004  0.000  0.078  0.082
   18  0.014  0.000  0.015  0.030
   19  0.000  0.000  0.047  0.047
   20  0.000  0.000  0.035  0.035
   21  0.000  0.000  0.015  0.015
   22  0.000  0.000  0.035  0.036
   23  0.000  0.000  0.014  0.014
   24  0.001  0.000  0.033  0.035
   25  0.001  0.001  0.010  0.012
   26  0.000  0.000  0.045  0.046
   27  0.000  0.000  0.035  0.036
   28  0.000  0.000  0.013  0.013
   29  0.002  0.000  0.008  0.011
   30  0.001  0.000  0.007  0.008
   31  0.002  0.000  0.008  0.011
   32  0.000  0.000  0.009  0.010
   33  0.001  0.000  0.007  0.008
   34  0.000  0.000  0.009  0.009
   35  0.000  0.000  0.019  0.019
   36  0.000  0.000  0.000  0.000
   37  0.000  0.000  0.000  0.000
tot    0.047  0.007  0.793  0.847
 
band    21 # energy   -5.02480280 # occ.  2.00000000
 
ion      s      p      d    tot
    1  0.000  0.000  0.007  0.007
    2  0.001  0.000  0.004  0.006
    3  0.001  0.000  0.006  0.007
    4  0.001  0.000  0.004  0.006
    5  0.000  0.000  0.002  0.002
    6  0.000  0.000  0.008  0.009
    7  0.000  0.000  0.007  0.007
    8  0.000  0.000  0.008  0.009
    9  0.000  0.000  0.012  0.012
   10  0.000  0.001  0.007  0.007
   11  0.002  0.000  0.030  0.032
   12  0.003  0.000  0.036  0.039
   13  0.002  0.000  0.031  0.033
   14  0.000  0.000  0.070  0.071
   15  0.011  0.000  0.035  0.046
   16  0.004  0.000  0.037  0.041
   17  0.010  0.000  0.038  0.048
   18  0.000  0.000  0.100  0.100
   19  0.001  0.000  0.022  0.023
   20  0.000  0.000  0.007  0.007
   21  0.000  0.000  0.028  0.028
   22  0.001  0.000  0.034  0.035
   23  0.000  0.000  0.029  0.029
   24  0.000  0.000  0.036  0.036
   25  0.000  0.000  0.058  0.058
   26  0.001  0.000  0.023  0.024
   27  0.001  0.000  0.034  0.035
   28  0.000  0.000  0.013  0.013
   29  0.000  0.000  0.008  0.008
   30  0.002  0.000  0.009  0.011
   31  0.000  0.000  0.008  0.008
   32  0.002  0.000  0.007  0.009
   33  0.002  0.000  0.009  0.011
   34  0.002  0.000  0.007  0.009
   35  0.000  0.000  0.019  0.019
   36  0.000  0.000  0.000  0.000