PROCAR new format
# of k-points:   10         # of bands:  252         # of ions:   37

 k-point     1 :    0.00000000 0.00000000 0.00000000     weight = 0.01562500

band     1 # energy  -17.50766839 # occ.  2.00000000
 
ion      s      p      d    tot
    1  0.000  0.000  0.000  0.000
    2  0.000  0.000  0.000  0.000
    3  0.000  0.000  0.000  0.000
    4  0.000  0.000  0.000  0.000
    5  0.000  0.000  0.000  0.000
    6  0.000  0.000  0.000  0.000
    7  0.000  0.000  0.000  0.000
    8  0.000  0.000  0.000  0.000
    9  0.000  0.000  0.000  0.000
   10  0.000  0.000  0.000  0.000
   11  0.000  0.000  0.000  0.000
   12  0.000  0.000  0.000  0.000
   13  0.000  0.000  0.000  0.000
   14  0.000  0.000  0.000  0.000
   15  0.000  0.000  0.000  0.000
   16  0.000  0.000  0.000  0.000
   17  0.000  0.000  0.000  0.000
   18  0.000  0.000  0.000  0.000
   19  0.000  0.000  0.000  0.000
   20  0.000  0.000  0.000  0.000
   21  0.000  0.000  0.000  0.000
   22  0.000  0.000  0.000  0.000
   23  0.000  0.000  0.000  0.000
   24  0.000  0.000  0.000  0.000
   25  0.000  0.000  0.000  0.000
   26  0.000  0.000  0.000  0.000
   27  0.000  0.000  0.000  0.000
   28  0.000  0.000  0.000  0.000
   29  0.000  0.000  0.000  0.000
   30  0.000  0.000  0.000  0.000
   31  0.000  0.000  0.000  0.000
   32  0.000  0.000  0.000  0.000
   33  0.000  0.000  0.000  0.000
   34  0.000  0.000  0.000  0.000
   35  0.000  0.000  0.000  0.000
   36  0.050  0.068  0.140  0.257
   37  0.772  0.011  0.000  0.783
tot    0.822  0.079  0.140  1.042
 
band     2 # energy   -8.86975727 # occ.  2.00000000
 
ion      s      p      d    tot
    1  0.006  0.001  0.000  0.007
    2  0.006  0.001  0.000  0.007
    3  0.006  0.001  0.000  0.007
    4  0.006  0.001  0.000  0.007
    5  0.006  0.001  0.000  0.007
    6  0.006  0.001  0.000  0.007
    7  0.006  0.001  0.000  0.007
    8  0.006  0.001  0.000  0.007
    9  0.006  0.001  0.000  0.007
   10  0.023  0.000  0.000  0.024
   11  0.023  0.000  0.000  0.024
   12  0.023  0.000  0.000  0.024
   13  0.023  0.000  0.000  0.024
   14  0.023  0.000  0.000  0.024
   15  0.023  0.000  0.000  0.023
   16  0.023  0.000  0.000  0.024
   17  0.023  0.000  0.000  0.023
   18  0.023  0.000  0.000  0.023
   19  0.025  0.000  0.000  0.025
   20  0.027  0.000  0.000  0.027
   21  0.027  0.000  0.000  0.027
   22  0.024  0.000  0.000  0.025
   23  0.027  0.000  0.000  0.027
   24  0.024  0.000  0.000  0.025
   25  0.025  0.000  0.000  0.025
   26  0.025  0.000  0.000  0.025
   27  0.024  0.000  0.000  0.025
   28  0.007  0.001  0.000  0.008
   29  0.008  0.001  0.000  0.009
   30  0.008  0.001  0.000  0.009
   31  0.008  0.001  0.000  0.009
   32  0.008  0.001  0.000  0.009
   33  0.008  0.001  0.000  0.009
   34  0.008  0.001  0.000  0.009
   35  0.007  0.001  0.000  0.008
   36  0.015  0.003  0.000  0.019
   37  0.001  0.000  0.000  0.001
tot    0.568  0.018  0.001  0.588
 
band     3 # energy   -7.61559550 # occ.  2.00000000
 
ion      s      p      d    tot
    1  0.018  0.001  0.000  0.019
    2  0.017  0.001  0.000  0.019
    3  0.017  0.001  0.000  0.019
    4  0.017  0.001  0.000  0.019
    5  0.017  0.001  0.000  0.019
    6  0.017  0.001  0.000  0.019
    7  0.017  0.001  0.000  0.019
    8  0.017  0.001  0.000  0.019
    9  0.017  0.001  0.000  0.019
   10  0.012  0.002  0.001  0.014
   11  0.011  0.002  0.001  0.014
   12  0.012  0.002  0.001  0.014
   13  0.011  0.002  0.001  0.014
   14  0.011  0.002  0.001  0.014
   15  0.012  0.002  0.001  0.014
   16  0.012  0.002  0.001  0.014
   17  0.012  0.002  0.001  0.014
   18  0.012  0.002  0.001  0.014
   19  0.008  0.002  0.000  0.010
   20  0.008  0.003  0.000  0.011
   21  0.008  0.003  0.000  0.011
   22  0.008  0.002  0.000  0.011
   23  0.008  0.003  0.000  0.011
   24  0.008  0.002  0.000  0.011
   25  0.008  0.002  0.000  0.010
   26  0.008  0.002  0.000  0.010
   27  0.008  0.002  0.000  0.011
   28  0.018  0.001  0.001  0.019
   29  0.019  0.001  0.001  0.021
   30  0.019  0.001  0.001  0.021
   31  0.019  0.001  0.001  0.021
   32  0.019  0.001  0.001  0.021
   33  0.019  0.001  0.001  0.021
   34  0.019  0.001  0.001  0.021
   35  0.018  0.001  0.001  0.019
   36  0.035  0.003  0.004  0.041
   37  0.001  0.000  0.000  0.002
tot    0.520  0.055  0.023  0.599
 
band     4 # energy   -6.04343865 # occ.  2.00000000
 
ion      s      p      d    tot
    1  0.015  0.000  0.005  0.019
    2  0.015  0.000  0.005  0.019
    3  0.015  0.000  0.005  0.019
    4  0.015  0.000  0.005  0.019
    5  0.009  0.000  0.005  0.014
    6  0.015  0.000  0.005  0.019
    7  0.015  0.000  0.005  0.019
    8  0.015  0.000  0.005  0.019
    9  0.021  0.000  0.004  0.025
   10  0.002  0.004  0.001  0.007
   11  0.006  0.005  0.001  0.012
   12  0.002  0.004  0.001  0.007
   13  0.006  0.005  0.001  0.012
   14  0.006  0.005  0.001  0.012
   15  0.000  0.003  0.002  0.005
   16  0.002  0.004  0.001  0.007
   17  0.000  0.003  0.002  0.005
   18  0.000  0.003  0.002  0.005
   19  0.003  0.003  0.005  0.011
   20  0.018  0.004  0.006  0.027
   21  0.018  0.004  0.006  0.027
   22  0.002  0.003  0.004  0.009
   23  0.018  0.004  0.006  0.027
   24  0.002  0.003  0.004  0.009
   25  0.003  0.003  0.005  0.011
   26  0.003  0.003  0.005  0.011
   27  0.002  0.003  0.004  0.009
   28  0.018  0.000  0.006  0.024
   29  0.018  0.000  0.009  0.027
   30  0.018  0.000  0.009  0.027
   31  0.018  0.000  0.009  0.027
   32  0.018  0.000  0.009  0.027
   33  0.018  0.000  0.009  0.027
   34  0.018  0.000  0.009  0.027
   35  0.023  0.000  0.006  0.029
   36  0.009  0.001  0.037  0.048
   37  0.000  0.003  0.000  0.003
tot    0.384  0.066  0.202  0.652
 
band     5 # energy   -5.91039554 # occ.  2.00000000
 
ion      s      p      d    tot
    1  0.000  0.002  0.005  0.007
    2  0.007  0.002  0.002  0.011
    3  0.003  0.001  0.002  0.005
    4  0.008  0.002  0.002  0.012
    5  0.000  0.002  0.003  0.005
    6  0.004  0.001  0.002  0.007
    7  0.001  0.001  0.002  0.003
    8  0.001  0.001  0.002  0.004
    9  0.000  0.000  0.002  0.002
   10  0.052  0.004  0.004  0.060
   11  0.003  0.011  0.004  0.017
   12  0.021  0.003  0.009  0.033
   13  0.009  0.007  0.004  0.021
   14  0.023  0.001  0.006  0.030
   15  0.001  0.004  0.007  0.012
   16  0.007  0.002  0.012  0.020
   17  0.002  0.004  0.006  0.012
   18  0.006  0.003  0.003  0.011
   19  0.004  0.012  0.003  0.018
   20  0.068  0.004  0.007  0.078
   21  0.028  0.003  0.015  0.045
   22  0.002  0.005  0.007  0.014
   23  0.009  0.002  0.018  0.029
   24  0.006  0.003  0.003  0.012
   25  0.028  0.001  0.007  0.036
   26  0.012  0.008  0.004  0.024
   27  0.001  0.005  0.008  0.015
   28  0.000  0.003  0.004  0.007
   29  0.012  0.003  0.004  0.019
   30  0.007  0.002  0.003  0.012
   31  0.011  0.003  0.004  0.018
   32  0.003  0.002  0.004  0.009
   33  0.003  0.001  0.003  0.007
   34  0.000  0.001  0.004  0.005
   35  0.000  0.000  0.003  0.003
   36  0.000  0.007  0.021  0.028
   37  0.000  0.001  0.000  0.001
tot    0.340  0.115  0.198  0.653
 
band     6 # energy   -5.91030244 # occ.  2.00000000
 
ion      s      p      d    tot
    1  0.000  0.002  0.005  0.007
    2  0.000  0.001  0.002  0.003
    3  0.005  0.002  0.002  0.009
    4  0.000  0.001  0.002  0.002
    5  0.000  0.002  0.003  0.005
    6  0.004  0.001  0.002  0.007
    7  0.007  0.002  0.002  0.011
    8  0.006  0.002  0.002  0.010
    9  0.000  0.000  0.002  0.002
   10  0.001  0.002  0.013  0.016
   11  0.021  0.002  0.006  0.028
   12  0.032  0.003  0.007  0.042
   13  0.014  0.005  0.005  0.024
   14  0.001  0.012  0.003  0.016
   15  0.005  0.003  0.003  0.011
   16  0.047  0.004  0.005  0.055
   17  0.003  0.003  0.005  0.012
   18  0.000  0.004  0.008  0.012
   19  0.025  0.002  0.006  0.034
   20  0.002  0.002  0.020  0.023
   21  0.041  0.003  0.012  0.056
   22  0.004  0.004  0.006  0.013
   23  0.061  0.003  0.008  0.072
   24  0.000  0.006  0.009  0.015
   25  0.001  0.013  0.002  0.016
   26  0.017  0.006  0.005  0.028
   27  0.005  0.003  0.004  0.012
   28  0.000  0.003  0.004  0.007
   29  0.000  0.001  0.004  0.004
   30  0.005  0.002  0.004  0.012
   31  0.001  0.001  0.003  0.006
   32  0.009  0.002  0.003  0.015
   33  0.009  0.003  0.004  0.016
   34  0.012  0.003  0.004  0.018
   35  0.000  0.000  0.003  0.003
   36  0.000  0.007  0.021  0.028
   37  0.000  0.001  0.000  0.001
tot    0.340  0.115  0.198  0.653
 
band     7 # energy   -5.88091886 # occ.  2.00000000
 
ion      s      p      d    tot
    1  0.001  0.001  0.001  0.003
    2  0.001  0.001  0.004  0.006
    3  0.001  0.001  0.004  0.006
    4  0.001  0.001  0.004  0.006
    5  0.026  0.003  0.000  0.029
    6  0.001  0.001  0.004  0.006
    7  0.001  0.001  0.004  0.006
    8  0.001  0.001  0.004  0.006
    9  0.001  0.001  0.002  0.003
   10  0.007  0.006  0.005  0.018
   11  0.021  0.006  0.005  0.032
   12  0.007  0.006  0.005  0.018
   13  0.021  0.006  0.005  0.032
   14  0.021  0.006  0.005  0.032
   15  0.013  0.001  0.009  0.022
   16  0.007  0.006  0.005  0.018
   17  0.013  0.001  0.009  0.022
   18  0.012  0.001  0.009  0.022
   19  0.022  0.001  0.010  0.033
   20  0.023  0.009  0.003  0.036
   21  0.023  0.009  0.003  0.035
   22  0.003  0.005  0.007  0.015
   23  0.023  0.009  0.003  0.036
   24  0.004  0.005  0.007  0.015
   25  0.022  0.001  0.010  0.033
   26  0.022  0.001  0.010  0.034
   27  0.004  0.005  0.007  0.015
   28  0.004  0.002  0.002  0.008
   29  0.001  0.002  0.006  0.008
   30  0.001  0.002  0.006  0.008
   31  0.001  0.002  0.006  0.008
   32  0.001  0.002  0.006  0.008
   33  0.001  0.002  0.006  0.008
   34  0.001  0.002  0.006  0.008
   35  0.000  0.000  0.000  0.001
   36  0.055  0.008  0.001  0.064
   37  0.002  0.008  0.000  0.010
tot    0.372  0.125  0.177  0.675
 
band     8 # energy   -5.85292543 # occ.  2.00000000
 
ion      s      p      d    tot
    1  0.000  0.001  0.002  0.003
    2  0.009  0.002  0.002  0.013
    3  0.001  0.001  0.002  0.004
    4  0.009  0.002  0.002  0.013
    5  0.000  0.001  0.004  0.005
    6  0.002  0.001  0.002  0.005
    7  0.002  0.001  0.002  0.005
    8  0.003  0.001  0.002  0.006
    9  0.000  0.003  0.004  0.007
   10  0.000  0.011  0.003  0.013
   11  0.023  0.003  0.006  0.032
   12  0.001  0.003  0.005  0.009
   13  0.026  0.003  0.005  0.034
   14  0.000  0.000  0.014  0.014
   15  0.035  0.004  0.006  0.044
   16  0.001  0.003  0.004  0.009
   17  0.039  0.003  0.006  0.048
   18  0.000  0.008  0.008  0.016
   19  0.026  0.003  0.006  0.035
   20  0.000  0.014  0.001  0.015
   21  0.003  0.003  0.005  0.012
   22  0.046  0.004  0.006  0.056
   23  0.002  0.004  0.005  0.012
   24  0.000  0.008  0.009  0.017
   25  0.000  0.000  0.017  0.017
   26  0.028  0.004  0.005  0.037
   27  0.042  0.004  0.006  0.052
   28  0.000  0.001  0.006  0.007
   29  0.014  0.003  0.004  0.021
   30  0.003  0.002  0.004  0.009
   31  0.014  0.003  0.004  0.021
   32  0.003  0.001  0.004  0.008
   33  0.004  0.002  0.004  0.010
   34  0.004  0.001  0.004  0.009
   35  0.000  0.004  0.006  0.010
   36  0.000  0.002  0.010  0.012
   37  0.000  0.000  0.000  0.000
tot    0.342  0.116  0.182  0.640
 
band     9 # energy   -5.85284727 # occ.  2.00000000
 
ion      s      p      d    tot
    1  0.000  0.001  0.002  0.003
    2  0.000  0.001  0.002  0.002
    3  0.007  0.002  0.002  0.011
    4  0.000  0.001  0.002  0.003
    5  0.000  0.001  0.004  0.005
    6  0.006  0.002  0.002  0.010
    7  0.007  0.002  0.002  0.011
    8  0.006  0.002  0.002  0.009
    9  0.000  0.003  0.004  0.007
   10  0.002  0.001  0.005  0.007
   11  0.009  0.001  0.011  0.021
   12  0.000  0.008  0.003  0.012
   13  0.007  0.001  0.011  0.019
   14  0.032  0.004  0.002  0.039
   15  0.014  0.006  0.007  0.027
   16  0.001  0.008  0.003  0.012
   17  0.010  0.006  0.007  0.024
   18  0.049  0.002  0.005  0.056
   19  0.010  0.002  0.013  0.025
   20  0.003  0.001  0.007  0.010
   21  0.001  0.011  0.002  0.014
   22  0.013  0.007  0.008  0.027
   23  0.001  0.010  0.003  0.014
   24  0.059  0.002  0.005  0.066
   25  0.036  0.005  0.002  0.043
   26  0.008  0.001  0.014  0.023
   27  0.017  0.006  0.008  0.031
   28  0.000  0.001  0.006  0.007
   29  0.000  0.001  0.004  0.005
   30  0.011  0.002  0.003  0.017
   31  0.000  0.001  0.004  0.005
   32  0.011  0.003  0.004  0.018
   33  0.010  0.002  0.003  0.016
   34  0.010  0.003  0.004  0.017
   35  0.000  0.004  0.006  0.010
   36  0.000  0.002  0.010  0.012
   37  0.000  0.000  0.000  0.000
tot    0.342  0.116  0.182  0.640
 
band    10 # energy   -5.83504228 # occ.  2.00000000
 
ion      s      p      d    tot
    1  0.020  0.002  0.000  0.022
    2  0.000  0.002  0.004  0.006
    3  0.000  0.002  0.004  0.006
    4  0.000  0.002  0.004  0.006
    5  0.000  0.000  0.000  0.001
    6  0.000  0.002  0.004  0.006
    7  0.000  0.002  0.004  0.006
    8  0.000  0.002  0.004  0.006
    9  0.010  0.002  0.001  0.013
   10  0.023  0.003  0.008  0.034
   11  0.001  0.002  0.010  0.012
   12  0.023  0.003  0.008  0.034
   13  0.001  0.002  0.010  0.012
   14  0.001  0.002  0.010  0.012
   15  0.021  0.009  0.002  0.031
   16  0.023  0.003  0.008  0.034
   17  0.021  0.009  0.002  0.031
   18  0.021  0.009  0.002  0.031
   19  0.013  0.009  0.003  0.024
   20  0.001  0.001  0.015  0.017
   21  0.001  0.001  0.015  0.017
   22  0.033  0.004  0.006  0.043
   23  0.001  0.001  0.015  0.017
   24  0.033  0.004  0.006  0.043
   25  0.013  0.009  0.003  0.024
   26  0.013  0.009  0.003  0.024
   27  0.033  0.004  0.006  0.043
   28  0.017  0.002  0.000  0.019
   29  0.000  0.002  0.005  0.007
   30  0.000  0.002  0.005  0.007
   31  0.000  0.002  0.005  0.007
   32  0.000  0.002  0.005  0.007
   33  0.000  0.002  0.005  0.007
   34  0.000  0.002  0.005  0.007
   35  0.015  0.003  0.002  0.020
   36  0.003  0.000  0.000  0.003
   37  0.000  0.001  0.000  0.001
tot    0.344  0.112  0.186  0.642
 
band    11 # energy   -5.19099921 # occ.  2.00000000
 
ion      s      p      d    tot
    1  0.013  0.000  0.007  0.020
    2  0.005  0.001  0.010  0.017
    3  0.005  0.001  0.010  0.017
    4  0.005  0.001  0.010  0.017
    5  0.002  0.003  0.010  0.015
    6  0.005  0.001  0.010  0.017
    7  0.005  0.001  0.010  0.017
    8  0.005  0.001  0.010  0.017
    9  0.022  0.000  0.005  0.027
   10  0.004  0.000  0.024  0.028
   11  0.021  0.002  0.016  0.038
   12  0.004  0.000  0.024  0.028
   13  0.021  0.002  0.016  0.038
   14  0.021  0.002  0.016  0.038
   15  0.000  0.001  0.018  0.019
   16  0.004  0.000  0.024  0.028
   17  0.000  0.001  0.018  0.019
   18  0.000  0.001  0.018  0.019
   19  0.001  0.000  0.012  0.013
   20  0.010  0.003  0.031  0.044
   21  0.010  0.003  0.031  0.044
   22  0.002  0.000  0.015  0.017
   23  0.010  0.003  0.031  0.044
   24  0.002  0.000  0.015  0.017
   25  0.001  0.000  0.012  0.013
   26  0.001  0.000  0.012  0.013
   27  0.002  0.000  0.015  0.017
   28  0.005  0.000  0.003  0.008
   29  0.002  0.001  0.006  0.008
   30  0.002  0.001  0.006  0.008
   31  0.002  0.001  0.006  0.008
   32  0.002  0.001  0.006  0.008
   33  0.002  0.001  0.006  0.008
   34  0.002  0.001  0.006  0.008
   35  0.007  0.000  0.003  0.010
   36  0.009  0.004  0.034  0.047
   37  0.002  0.020  0.000  0.022
tot    0.214  0.057  0.504  0.775
 
band    12 # energy   -5.17359012 # occ.  2.00000000
 
ion      s      p      d    tot
    1  0.000  0.002  0.009  0.011
    2  0.018  0.004  0.005  0.026
    3  0.001  0.001  0.004  0.006
    4  0.017  0.003  0.004  0.024
    5  0.000  0.001  0.009  0.009
    6  0.006  0.002  0.004  0.012
    7  0.004  0.002  0.004  0.010
    8  0.010  0.003  0.005  0.017
    9  0.000  0.005  0.008  0.013
   10  0.000  0.005  0.011  0.017
   11  0.007  0.002  0.009  0.018
   12  0.004  0.001  0.007  0.012
   13  0.009  0.002  0.007  0.018
   14  0.000  0.001  0.016  0.017
   15  0.018  0.003  0.009  0.030
   16  0.003  0.002  0.008  0.014
   17  0.024  0.003  0.006  0.034
   18  0.000  0.001  0.019  0.020
   19  0.004  0.004  0.009  0.017
   20  0.000  0.003  0.029  0.031
   21  0.000  0.000  0.013  0.014
   22  0.008  0.004  0.007  0.019
   23  0.000  0.001  0.017  0.018
   24  0.000  0.001  0.027  0.028
   25  0.000  0.000  0.008  0.008
   26  0.005  0.005  0.010  0.020
   27  0.006  0.003  0.012  0.021
   28  0.000  0.003  0.009  0.012
   29  0.027  0.003  0.011  0.040
   30  0.000  0.002  0.011  0.014
   31  0.023  0.003  0.011  0.037
   32  0.011  0.002  0.011  0.024
   33  0.003  0.003  0.011  0.017
   34  0.018  0.002  0.011  0.031
   35  0.000  0.006  0.007  0.013
   36  0.000  0.001  0.038  0.039
   37  0.000  0.001  0.000  0.001
tot    0.227  0.090  0.396  0.714
 
band    13 # energy   -5.17354402 # occ.  2.00000000
 
ion      s      p      d    tot
    1  0.000  0.002  0.009  0.011
    2  0.000  0.001  0.004  0.006
    3  0.017  0.003  0.005  0.026
    4  0.002  0.002  0.004  0.008
    5  0.000  0.001  0.009  0.009
    6  0.013  0.003  0.004  0.020
    7  0.015  0.003  0.005  0.022
    8  0.008  0.002  0.004  0.015
    9  0.000  0.005  0.008  0.013
   10  0.005  0.000  0.007  0.012
   11  0.004  0.002  0.012  0.018
   12  0.001  0.005  0.011  0.016
   13  0.002  0.002  0.014  0.018
   14  0.010  0.002  0.006  0.018
   15  0.010  0.002  0.013  0.026
   16  0.002  0.003  0.010  0.015
   17  0.004  0.002  0.017  0.022
   18  0.028  0.004  0.004  0.036
   19  0.002  0.002  0.009  0.013
   20  0.000  0.000  0.011  0.011
   21  0.000  0.002  0.026  0.028
   22  0.001  0.001  0.024  0.027
   23  0.000  0.002  0.022  0.024
   24  0.009  0.005  0.003  0.017
   25  0.006  0.005  0.010  0.022
   26  0.001  0.001  0.008  0.010
   27  0.003  0.002  0.019  0.024
   28  0.000  0.003  0.009  0.012
   29  0.001  0.002  0.011  0.014
   30  0.027  0.003  0.011  0.040
   31  0.005  0.002  0.011  0.017
   32  0.016  0.003  0.011  0.030
   33  0.024  0.002  0.011  0.037
   34  0.009  0.003  0.011  0.023
   35  0.000  0.006  0.007  0.013
   36  0.000  0.001  0.038  0.039
   37  0.000  0.001  0.000  0.001
tot    0.227  0.090  0.397  0.714
 
band    14 # energy   -5.12236855 # occ.  2.00000000
 
ion      s      p      d    tot
    1  0.000  0.004  0.009  0.013
    2  0.022  0.004  0.006  0.031
    3  0.003  0.002  0.005  0.010
    4  0.022  0.004  0.006  0.031
    5  0.000  0.006  0.010  0.016
    6  0.009  0.003  0.005  0.017
    7  0.003  0.002  0.005  0.010
    8  0.008  0.003  0.005  0.016
    9  0.000  0.000  0.012  0.012
   10  0.025  0.005  0.007  0.037
   11  0.004  0.003  0.019  0.026
   12  0.006  0.001  0.019  0.026
   13  0.005  0.003  0.018  0.026
   14  0.018  0.002  0.006  0.026
   15  0.000  0.003  0.013  0.016
   16  0.006  0.001  0.019  0.026
   17  0.000  0.003  0.013  0.016
   18  0.001  0.001  0.008  0.010
   19  0.001  0.002  0.021  0.024
   20  0.016  0.007  0.006  0.029
   21  0.004  0.002  0.025  0.031
   22  0.001  0.001  0.010  0.012
   23  0.004  0.002  0.025  0.031
   24  0.003  0.002  0.011  0.016
   25  0.004  0.001  0.004  0.009
   26  0.001  0.002  0.021  0.023
   27  0.001  0.001  0.010  0.012
   28  0.000  0.003  0.010  0.013
   29  0.017  0.004  0.007  0.028
   30  0.002  0.001  0.006  0.009
   31  0.017  0.004  0.007  0.028
   32  0.007  0.002  0.008  0.017
   33  0.002  0.001  0.006  0.009
   34  0.007  0.002  0.008  0.017
   35  0.000  0.000  0.011  0.011
   36  0.000  0.010  0.019  0.029
   37  0.000  0.001  0.000  0.001
tot    0.220  0.099  0.397  0.716
 
band    15 # energy   -5.12228678 # occ.  2.00000000
 
ion      s      p      d    tot
    1  0.000  0.004  0.009  0.013
    2  0.000  0.002  0.005  0.007
    3  0.019  0.004  0.006  0.028
    4  0.000  0.002  0.005  0.007
    5  0.000  0.006  0.010  0.016
    6  0.014  0.003  0.005  0.022
    7  0.019  0.004  0.006  0.029
    8  0.014  0.003  0.005  0.022
    9  0.000  0.000  0.012  0.012
   10  0.000  0.000  0.023  0.023
   11  0.014  0.003  0.010  0.026
   12  0.019  0.004  0.011  0.033
   13  0.013  0.003  0.010  0.026
   14  0.000  0.004  0.023  0.026
   15  0.000  0.001  0.010  0.012
   16  0.019  0.004  0.011  0.033
   17  0.000  0.002  0.010  0.012
   18  0.000  0.004  0.015  0.019
   19  0.003  0.001  0.010  0.014
   20  0.000  0.000  0.031  0.031
   21  0.012  0.005  0.012  0.030
   22  0.002  0.002  0.010  0.015
   23  0.012  0.005  0.012  0.030
   24  0.000  0.001  0.010  0.011
   25  0.000  0.002  0.026  0.028
   26  0.003  0.001  0.010  0.014
   27  0.002  0.002  0.010  0.015
   28  0.000  0.003  0.010  0.013
   29  0.001  0.001  0.007  0.008
   30  0.015  0.003  0.008  0.027
   31  0.000  0.001  0.007  0.008
   32  0.010  0.002  0.006  0.019
   33  0.016  0.004  0.008  0.027
   34  0.011  0.002  0.006  0.019
   35  0.000  0.000  0.011  0.011
   36  0.000  0.010  0.019  0.029
   37  0.000  0.001  0.000  0.001
tot    0.220  0.099  0.397  0.716
 
band    16 # energy   -5.11305626 # occ.  2.00000000
 
ion      s      p      d    tot
    1  0.012  0.003  0.004  0.020
    2  0.001  0.002  0.009  0.013
    3  0.001  0.002  0.009  0.013
    4  0.001  0.002  0.009  0.013
    5  0.036  0.002  0.001  0.039
    6  0.001  0.002  0.009  0.013
    7  0.001  0.002  0.009  0.013
    8  0.001  0.002  0.009  0.013
    9  0.001  0.000  0.003  0.004
   10  0.012  0.002  0.015  0.029
   11  0.003  0.003  0.013  0.019
   12  0.012  0.003  0.015  0.029
   13  0.003  0.003  0.013  0.019
   14  0.003  0.003  0.013  0.019
   15  0.005  0.000  0.017  0.022
   16  0.012  0.003  0.015  0.029
   17  0.005  0.000  0.017  0.022
   18  0.005  0.000  0.017  0.022
   19  0.013  0.003  0.010  0.027
   20  0.000  0.002  0.030  0.032
   21  0.000  0.002  0.030  0.032
   22  0.000  0.000  0.013  0.013
   23  0.000  0.002  0.030  0.032
   24  0.000  0.000  0.013  0.013
   25  0.013  0.003  0.010  0.027
   26  0.013  0.003  0.010  0.027
   27  0.000  0.000  0.013  0.013
   28  0.016  0.003  0.003  0.023
   29  0.001  0.002  0.013  0.016
   30  0.001  0.002  0.013  0.016
   31  0.001  0.002  0.013  0.016
   32  0.001  0.002  0.013  0.016
   33  0.001  0.002  0.013  0.016
   34  0.001  0.002  0.013  0.016
   35  0.000  0.000  0.001  0.002
   36  0.062  0.004  0.000  0.065
   37  0.002  0.008  0.000  0.010
tot    0.242  0.082  0.441  0.765
 
band    17 # energy   -5.08756103 # occ.  2.00000000
 
ion      s      p      d    tot
    1  0.021  0.001  0.000  0.023
    2  0.000  0.003  0.010  0.013
    3  0.000  0.003  0.010  0.013
    4  0.000  0.003  0.010  0.013
    5  0.008  0.000  0.001  0.009
    6  0.000  0.003  0.010  0.013
    7  0.000  0.003  0.010  0.013
    8  0.000  0.003  0.010  0.013
    9  0.030  0.005  0.002  0.037
   10  0.004  0.002  0.011  0.017
   11  0.000  0.001  0.018  0.019
   12  0.004  0.002  0.011  0.017
   13  0.000  0.001  0.018  0.019
   14  0.000  0.001  0.018  0.019
   15  0.015  0.004  0.013  0.032
   16  0.004  0.002  0.011  0.017
   17  0.015  0.004  0.013  0.032
   18  0.015  0.004  0.013  0.032
   19  0.000  0.002  0.021  0.023
   20  0.001  0.000  0.012  0.013
   21  0.001  0.000  0.012  0.013
   22  0.013  0.004  0.012  0.029
   23  0.001  0.000  0.012  0.013
   24  0.013  0.004  0.012  0.029
   25  0.000  0.002  0.021  0.023
   26  0.000  0.002  0.021  0.023
   27  0.013  0.004  0.012  0.029
   28  0.025  0.001  0.001  0.026
   29  0.000  0.003  0.013  0.016
   30  0.000  0.003  0.013  0.016
   31  0.000  0.003  0.013  0.016
   32  0.000  0.003  0.013  0.016
   33  0.000  0.003  0.013  0.016
   34  0.000  0.003  0.013  0.016
   35  0.031  0.004  0.002  0.037
   36  0.008  0.000  0.000  0.009
   37  0.000  0.001  0.000  0.001
tot    0.226  0.086  0.404  0.716
 
band    18 # energy   -4.54463260 # occ.  2.00000000
 
ion      s      p      d    tot
    1  0.000  0.001  0.024  0.025
    2  0.016  0.002  0.007  0.024
    3  0.006  0.001  0.007  0.014
    4  0.015  0.002  0.007  0.024
    5  0.000  0.001  0.013  0.014
    6  0.003  0.001  0.007  0.011
    7  0.005  0.001  0.007  0.013
    8  0.002  0.001  0.007  0.010
    9  0.000  0.003  0.004  0.007
   10  0.000  0.000  0.056  0.056
   11  0.000  0.003  0.015  0.018
   12  0.000  0.000  0.020  0.020
   13  0.000  0.003  0.014  0.017
   14  0.000  0.000  0.004  0.004
   15  0.000  0.005  0.013  0.019
   16  0.000  0.000  0.015  0.015
   17  0.000  0.005  0.015  0.020
   18  0.000  0.000  0.026  0.026
   19  0.005  0.003  0.011  0.019
   20  0.000  0.000  0.069  0.069
   21  0.000  0.000  0.032  0.033
   22  0.004  0.001  0.015  0.019
   23  0.000  0.000  0.027  0.028
   24  0.000  0.000  0.012  0.012
   25  0.000  0.000  0.021  0.022
   26  0.005  0.002  0.013  0.020
   27  0.004  0.001  0.015  0.020
   28  0.000  0.001  0.003  0.004
   29  0.005  0.000  0.024  0.029
   30  0.001  0.001  0.018  0.020
   31  0.006  0.000  0.024  0.031
   32  0.012  0.000  0.021  0.033
   33  0.001  0.001  0.018  0.020
   34  0.011  0.000  0.020  0.032
   35  0.000  0.001  0.013  0.013
   36  0.000  0.000  0.051  0.051
   37  0.000  0.005  0.000  0.005
tot    0.102  0.048  0.667  0.817
 
band    19 # energy   -4.54458581 # occ.  2.00000000
 
ion      s      p      d    tot
    1  0.000  0.001  0.024  0.025
    2  0.000  0.001  0.007  0.008
    3  0.009  0.001  0.007  0.018
    4  0.000  0.001  0.007  0.008
    5  0.000  0.001  0.013  0.014
    6  0.013  0.001  0.007  0.021
    7  0.011  0.001  0.007  0.019
    8  0.014  0.002  0.007  0.022
    9  0.000  0.003  0.004  0.007
   10  0.000  0.000  0.005  0.005
   11  0.000  0.001  0.007  0.008
   12  0.000  0.000  0.041  0.041
   13  0.000  0.001  0.008  0.009
   14  0.000  0.004  0.018  0.022
   15  0.000  0.001  0.023  0.024
   16  0.000  0.000  0.046  0.046
   17  0.000  0.002  0.021  0.023
   18  0.000  0.007  0.010  0.017
   19  0.001  0.001  0.019  0.021
   20  0.000  0.000  0.017  0.017
   21  0.000  0.000  0.053  0.054
   22  0.002  0.001  0.013  0.015
   23  0.000  0.000  0.058  0.059
   24  0.005  0.001  0.016  0.022
   25  0.007  0.003  0.009  0.019
   26  0.002  0.001  0.018  0.021
   27  0.001  0.001  0.013  0.014
   28  0.000  0.001  0.003  0.004
   29  0.007  0.001  0.018  0.026
   30  0.012  0.000  0.024  0.035
   31  0.006  0.001  0.017  0.024
   32  0.000  0.001  0.021  0.022
   33  0.011  0.000  0.024  0.035
   34  0.001  0.000  0.022  0.023
   35  0.000  0.001  0.013  0.013
   36  0.000  0.000  0.051  0.051
   37  0.000  0.005  0.000  0.005
tot    0.102  0.048  0.667  0.817
 
band    20 # energy   -4.44126148 # occ.  2.00000000
 
ion      s      p      d    tot
    1  0.029  0.001  0.000  0.031
    2  0.000  0.002  0.017  0.018
    3  0.000  0.002  0.017  0.018
    4  0.000  0.002  0.017  0.018
    5  0.020  0.001  0.001  0.022
    6  0.000  0.002  0.017  0.018
    7  0.000  0.002  0.017  0.018
    8  0.000  0.002  0.017  0.018
    9  0.001  0.000  0.000  0.001
   10  0.000  0.002  0.034  0.037
   11  0.000  0.004  0.029  0.033
   12  0.000  0.002  0.034  0.037
   13  0.000  0.004  0.029  0.033
   14  0.000  0.004  0.029  0.033
   15  0.000  0.000  0.003  0.004
   16  0.000  0.002  0.034  0.037
   17  0.000  0.000  0.003  0.004
   18  0.000  0.000  0.003  0.004
   19  0.001  0.002  0.017  0.020
   20  0.001  0.003  0.051  0.055
   21  0.001  0.003  0.051  0.055
   22  0.000  0.000  0.009  0.009
   23  0.001  0.003  0.051  0.055
   24  0.000  0.000  0.009  0.009
   25  0.001  0.002  0.017  0.020
   26  0.001  0.002  0.017  0.020
   27  0.000  0.000  0.009  0.009
   28  0.005  0.000  0.003  0.008
   29  0.000  0.001  0.020  0.021
   30  0.000  0.001  0.020  0.021
   31  0.000  0.001  0.020  0.021
   32  0.000  0.001  0.020  0.021
   33  0.000  0.001  0.020  0.021
   34  0.000  0.001  0.020  0.021
   35  0.006  0.000  0.000  0.006
   36  0.041  0.001  0.000  0.042
   37  0.002  0.012  0.000  0.013
tot    0.112  0.063  0.654  0.829
 
band    21 # energy   -4.43846117 # occ.  2.00000000
 
ion      s      p      d    tot
    1  0.004  0.000  0.000  0.004
    2  0.000  0.001  0.011  0.012
    3  0.000  0.001  0.011  0.012
    4  0.000  0.001  0.011  0.012
    5  0.007  0.000  0.000  0.007
    6  0.000  0.001  0.011  0.012
    7  0.000  0.001  0.011  0.012
    8  0.000  0.001  0.011  0.012
    9  0.020  0.001  0.001  0.022
   10  0.000  0.001  0.006  0.008
   11  0.000  0.000  0.012  0.012
   12  0.000  0.001  0.006  0.008
   13  0.000  0.000  0.012  0.012
   14  0.000  0.000  0.012  0.012
   15  0.000  0.003  0.027  0.030
   16  0.000  0.001  0.006  0.008
   17  0.000  0.003  0.027  0.030
   18  0.000  0.003  0.027  0.030
   19  0.000  0.001  0.019  0.021
   20  0.000  0.000  0.030  0.031
   21  0.000  0.000  0.030  0.031
   22  0.002  0.003  0.035  0.040
   23  0.000  0.000  0.030  0.031
   24  0.002  0.003  0.035  0.040
   25  0.000  0.001  0.019  0.021
   26  0.000  0.001  0.019  0.021
   27  0.002  0.003  0.035  0.040
   28  0.015  0.000  0.001  0.016
   29  0.000  0.002  0.032  0.034
   30  0.000  0.002  0.032  0.034
   31  0.000  0.002  0.032  0.034
   32  0.000  0.002  0.032  0.034
   33  0.000  0.002  0.032  0.034
   34  0.000  0.002  0.032  0.034
   35  0.034  0.000  0.009  0.043
   36  0.000  0.000  0.017  0.017