PROCAR new format
# of k-points:   10         # of bands:  252         # of ions:   39

 k-point     1 :    0.00000000 0.00000000 0.00000000     weight = 0.01562500

band     1 # energy  -24.97915120 # occ.  2.00000000
 
ion      s      p      d    tot
    1  0.000  0.000  0.000  0.000
    2  0.000  0.000  0.000  0.000
    3  0.000  0.000  0.000  0.000
    4  0.000  0.000  0.000  0.000
    5  0.000  0.000  0.000  0.000
    6  0.000  0.000  0.000  0.000
    7  0.000  0.000  0.000  0.000
    8  0.000  0.000  0.000  0.000
    9  0.000  0.000  0.000  0.000
   10  0.000  0.000  0.000  0.000
   11  0.000  0.000  0.000  0.000
   12  0.000  0.000  0.000  0.000
   13  0.000  0.000  0.000  0.000
   14  0.000  0.000  0.000  0.000
   15  0.000  0.000  0.000  0.000
   16  0.000  0.000  0.000  0.000
   17  0.000  0.000  0.000  0.000
   18  0.000  0.000  0.000  0.000
   19  0.000  0.000  0.000  0.000
   20  0.000  0.000  0.000  0.000
   21  0.000  0.000  0.000  0.000
   22  0.000  0.000  0.000  0.000
   23  0.000  0.000  0.000  0.000
   24  0.000  0.000  0.000  0.000
   25  0.000  0.000  0.000  0.000
   26  0.000  0.000  0.000  0.000
   27  0.000  0.000  0.000  0.000
   28  0.000  0.000  0.000  0.000
   29  0.000  0.000  0.000  0.000
   30  0.000  0.000  0.000  0.000
   31  0.000  0.000  0.000  0.000
   32  0.000  0.000  0.000  0.000
   33  0.000  0.000  0.000  0.000
   34  0.000  0.000  0.000  0.000
   35  0.000  0.000  0.000  0.000
   36  0.000  0.000  0.000  0.000
   37  0.088  0.065  0.000  0.152
   38  0.722  0.011  0.000  0.734
   39  0.055  0.012  0.000  0.067
tot    0.865  0.088  0.000  0.953
 
band     2 # energy  -15.54781982 # occ.  2.00000000
 
ion      s      p      d    tot
    1  0.000  0.000  0.000  0.000
    2  0.000  0.000  0.000  0.000
    3  0.000  0.000  0.000  0.000
    4  0.000  0.000  0.000  0.000
    5  0.000  0.000  0.000  0.000
    6  0.000  0.000  0.000  0.000
    7  0.000  0.000  0.000  0.000
    8  0.000  0.000  0.000  0.000
    9  0.000  0.000  0.000  0.000
   10  0.000  0.000  0.000  0.000
   11  0.000  0.000  0.000  0.000
   12  0.000  0.000  0.000  0.000
   13  0.000  0.000  0.000  0.000
   14  0.000  0.000  0.000  0.000
   15  0.000  0.000  0.000  0.000
   16  0.000  0.000  0.000  0.000
   17  0.000  0.000  0.000  0.000
   18  0.000  0.000  0.000  0.000
   19  0.000  0.000  0.000  0.000
   20  0.000  0.000  0.000  0.000
   21  0.000  0.000  0.000  0.000
   22  0.000  0.000  0.000  0.000
   23  0.000  0.000  0.000  0.000
   24  0.000  0.000  0.000  0.000
   25  0.000  0.000  0.000  0.000
   26  0.000  0.000  0.000  0.000
   27  0.000  0.000  0.000  0.000
   28  0.000  0.000  0.000  0.000
   29  0.000  0.000  0.000  0.000
   30  0.000  0.000  0.000  0.000
   31  0.000  0.000  0.000  0.000
   32  0.000  0.000  0.000  0.000
   33  0.000  0.000  0.000  0.000
   34  0.000  0.000  0.000  0.000
   35  0.000  0.000  0.000  0.000
   36  0.004  0.003  0.005  0.012
   37  0.162  0.046  0.000  0.208
   38  0.024  0.523  0.000  0.547
   39  0.202  0.033  0.000  0.235
tot    0.392  0.605  0.005  1.002
 
band     3 # energy   -9.46674691 # occ.  2.00000000
 
ion      s      p      d    tot
    1  0.000  0.000  0.000  0.000
    2  0.000  0.000  0.000  0.000
    3  0.000  0.000  0.000  0.000
    4  0.000  0.000  0.000  0.000
    5  0.000  0.000  0.000  0.000
    6  0.000  0.000  0.000  0.000
    7  0.000  0.000  0.000  0.000
    8  0.000  0.000  0.000  0.000
    9  0.000  0.000  0.000  0.000
   10  0.000  0.000  0.000  0.001
   11  0.000  0.000  0.000  0.000
   12  0.000  0.000  0.000  0.001
   13  0.000  0.000  0.000  0.000
   14  0.000  0.000  0.000  0.000
   15  0.000  0.000  0.000  0.000
   16  0.000  0.000  0.000  0.001
   17  0.000  0.000  0.000  0.000
   18  0.000  0.000  0.000  0.000
   19  0.001  0.000  0.000  0.001
   20  0.006  0.001  0.003  0.011
   21  0.006  0.001  0.003  0.011
   22  0.001  0.000  0.000  0.001
   23  0.006  0.001  0.003  0.011
   24  0.001  0.000  0.000  0.001
   25  0.001  0.000  0.000  0.001
   26  0.001  0.000  0.000  0.001
   27  0.001  0.000  0.000  0.001
   28  0.000  0.000  0.000  0.000
   29  0.002  0.000  0.001  0.003
   30  0.002  0.000  0.001  0.003
   31  0.002  0.000  0.001  0.003
   32  0.002  0.000  0.001  0.003
   33  0.002  0.000  0.001  0.003
   34  0.002  0.000  0.001  0.003
   35  0.000  0.000  0.000  0.000
   36  0.164  0.051  0.272  0.487
   37  0.162  0.182  0.000  0.344
   38  0.009  0.050  0.000  0.059
   39  0.013  0.001  0.000  0.015
tot    0.389  0.289  0.287  0.965
 
band     4 # energy   -8.36402330 # occ.  2.00000000
 
ion      s      p      d    tot
    1  0.007  0.001  0.000  0.008
    2  0.007  0.001  0.000  0.007
    3  0.007  0.001  0.000  0.007
    4  0.007  0.001  0.000  0.007
    5  0.007  0.001  0.000  0.007
    6  0.007  0.001  0.000  0.007
    7  0.007  0.001  0.000  0.007
    8  0.007  0.001  0.000  0.007
    9  0.007  0.001  0.000  0.007
   10  0.027  0.000  0.000  0.027
   11  0.027  0.000  0.000  0.027
   12  0.027  0.000  0.000  0.027
   13  0.027  0.000  0.000  0.027
   14  0.027  0.000  0.000  0.027
   15  0.027  0.000  0.000  0.027
   16  0.027  0.000  0.000  0.027
   17  0.027  0.000  0.000  0.027
   18  0.027  0.000  0.000  0.027
   19  0.022  0.000  0.000  0.023
   20  0.021  0.000  0.000  0.022
   21  0.021  0.000  0.000  0.022
   22  0.024  0.000  0.000  0.024
   23  0.021  0.000  0.000  0.022
   24  0.024  0.000  0.000  0.024
   25  0.022  0.000  0.000  0.023
   26  0.022  0.000  0.000  0.023
   27  0.024  0.000  0.000  0.024
   28  0.004  0.000  0.000  0.005
   29  0.004  0.000  0.000  0.004
   30  0.004  0.000  0.000  0.004
   31  0.004  0.000  0.000  0.004
   32  0.004  0.000  0.000  0.004
   33  0.004  0.000  0.000  0.004
   34  0.004  0.000  0.000  0.004
   35  0.004  0.000  0.000  0.005
   36  0.000  0.008  0.019  0.027
   37  0.010  0.010  0.000  0.020
   38  0.001  0.002  0.000  0.003
   39  0.001  0.000  0.000  0.001
tot    0.547  0.032  0.023  0.602
 
band     5 # energy   -7.72368855 # occ.  2.00000000
 
ion      s      p      d    tot
    1  0.000  0.000  0.000  0.000
    2  0.000  0.000  0.000  0.000
    3  0.000  0.000  0.000  0.000
    4  0.000  0.000  0.000  0.000
    5  0.000  0.000  0.000  0.000
    6  0.000  0.000  0.000  0.000
    7  0.000  0.000  0.000  0.000
    8  0.000  0.000  0.000  0.000
    9  0.000  0.000  0.000  0.000
   10  0.000  0.000  0.000  0.000
   11  0.000  0.000  0.000  0.000
   12  0.000  0.000  0.000  0.000
   13  0.000  0.000  0.000  0.000
   14  0.000  0.000  0.000  0.000
   15  0.000  0.000  0.000  0.000
   16  0.000  0.000  0.000  0.000
   17  0.000  0.000  0.000  0.000
   18  0.000  0.000  0.000  0.000
   19  0.000  0.000  0.000  0.000
   20  0.000  0.000  0.000  0.001
   21  0.000  0.000  0.000  0.000
   22  0.000  0.000  0.000  0.000
   23  0.000  0.000  0.000  0.000
   24  0.000  0.000  0.000  0.000
   25  0.000  0.000  0.000  0.000
   26  0.000  0.000  0.000  0.000
   27  0.000  0.000  0.000  0.000
   28  0.000  0.000  0.000  0.000
   29  0.000  0.000  0.001  0.002
   30  0.000  0.000  0.000  0.000
   31  0.000  0.000  0.001  0.002
   32  0.000  0.000  0.001  0.002
   33  0.000  0.000  0.000  0.000
   34  0.000  0.000  0.001  0.002
   35  0.000  0.000  0.000  0.000
   36  0.000  0.003  0.032  0.035
   37  0.000  0.130  0.000  0.130
   38  0.000  0.512  0.000  0.512
   39  0.000  0.007  0.000  0.007
tot    0.002  0.652  0.037  0.691
 
band     6 # energy   -7.72350213 # occ.  2.00000000
 
ion      s      p      d    tot
    1  0.000  0.000  0.000  0.000
    2  0.000  0.000  0.000  0.000
    3  0.000  0.000  0.000  0.000
    4  0.000  0.000  0.000  0.000
    5  0.000  0.000  0.000  0.000
    6  0.000  0.000  0.000  0.000
    7  0.000  0.000  0.000  0.000
    8  0.000  0.000  0.000  0.000
    9  0.000  0.000  0.000  0.000
   10  0.000  0.000  0.000  0.000
   11  0.000  0.000  0.000  0.000
   12  0.000  0.000  0.000  0.000
   13  0.000  0.000  0.000  0.000
   14  0.000  0.000  0.000  0.000
   15  0.000  0.000  0.000  0.000
   16  0.000  0.000  0.000  0.000
   17  0.000  0.000  0.000  0.000
   18  0.000  0.000  0.000  0.000
   19  0.000  0.000  0.000  0.000
   20  0.000  0.000  0.000  0.000
   21  0.000  0.000  0.000  0.000
   22  0.000  0.000  0.000  0.000
   23  0.000  0.000  0.000  0.000
   24  0.000  0.000  0.000  0.000
   25  0.000  0.000  0.000  0.000
   26  0.000  0.000  0.000  0.000
   27  0.000  0.000  0.000  0.000
   28  0.000  0.000  0.000  0.000
   29  0.000  0.000  0.000  0.001
   30  0.001  0.000  0.001  0.002
   31  0.000  0.000  0.000  0.001
   32  0.000  0.000  0.000  0.001
   33  0.001  0.000  0.001  0.002
   34  0.000  0.000  0.000  0.001
   35  0.000  0.000  0.000  0.000
   36  0.000  0.003  0.032  0.035
   37  0.000  0.130  0.000  0.130
   38  0.000  0.512  0.000  0.512
   39  0.000  0.007  0.000  0.007
tot    0.002  0.652  0.037  0.691
 
band     7 # energy   -7.21099687 # occ.  2.00000000
 
ion      s      p      d    tot
    1  0.017  0.000  0.001  0.019
    2  0.016  0.000  0.001  0.018
    3  0.016  0.000  0.001  0.018
    4  0.016  0.000  0.001  0.018
    5  0.016  0.000  0.001  0.017
    6  0.016  0.000  0.001  0.018
    7  0.016  0.000  0.001  0.018
    8  0.016  0.000  0.001  0.018
    9  0.016  0.000  0.001  0.017
   10  0.010  0.001  0.002  0.014
   11  0.009  0.001  0.002  0.013
   12  0.010  0.001  0.002  0.014
   13  0.009  0.001  0.002  0.013
   14  0.009  0.001  0.002  0.013
   15  0.009  0.002  0.002  0.013
   16  0.010  0.001  0.002  0.014
   17  0.009  0.002  0.002  0.013
   18  0.009  0.002  0.002  0.013
   19  0.014  0.001  0.003  0.018
   20  0.012  0.001  0.003  0.016
   21  0.012  0.001  0.003  0.016
   22  0.016  0.001  0.003  0.020
   23  0.012  0.001  0.003  0.016
   24  0.016  0.001  0.003  0.020
   25  0.014  0.001  0.003  0.018
   26  0.014  0.001  0.003  0.018
   27  0.016  0.001  0.003  0.020
   28  0.015  0.001  0.001  0.016
   29  0.015  0.001  0.001  0.016
   30  0.015  0.001  0.001  0.016
   31  0.015  0.001  0.001  0.016
   32  0.015  0.001  0.001  0.016
   33  0.015  0.001  0.001  0.016
   34  0.015  0.001  0.001  0.016
   35  0.015  0.001  0.000  0.016
   36  0.004  0.005  0.021  0.030
   37  0.005  0.004  0.000  0.009
   38  0.000  0.001  0.000  0.001
   39  0.000  0.000  0.000  0.000
tot    0.484  0.041  0.086  0.610
 
band     8 # energy   -6.29440050 # occ.  2.00000000
 
ion      s      p      d    tot
    1  0.006  0.000  0.016  0.022
    2  0.013  0.000  0.012  0.025
    3  0.013  0.000  0.012  0.025
    4  0.013  0.000  0.012  0.025
    5  0.009  0.000  0.010  0.019
    6  0.013  0.000  0.012  0.025
    7  0.013  0.000  0.012  0.025
    8  0.013  0.000  0.012  0.025
    9  0.029  0.000  0.008  0.037
   10  0.011  0.001  0.010  0.022
   11  0.009  0.002  0.008  0.019
   12  0.010  0.001  0.010  0.022
   13  0.009  0.002  0.008  0.019
   14  0.009  0.002  0.008  0.019
   15  0.001  0.001  0.011  0.013
   16  0.010  0.001  0.010  0.022
   17  0.001  0.001  0.011  0.013
   18  0.001  0.001  0.011  0.013
   19  0.001  0.001  0.009  0.011
   20  0.014  0.001  0.008  0.023
   21  0.014  0.001  0.008  0.023
   22  0.001  0.001  0.004  0.007
   23  0.014  0.001  0.008  0.023
   24  0.001  0.001  0.004  0.007
   25  0.001  0.001  0.009  0.011
   26  0.001  0.001  0.009  0.011
   27  0.001  0.001  0.004  0.007
   28  0.012  0.000  0.004  0.017
   29  0.011  0.000  0.008  0.019
   30  0.011  0.000  0.008  0.019
   31  0.011  0.000  0.008  0.019
   32  0.011  0.000  0.008  0.019
   33  0.011  0.000  0.008  0.019
   34  0.011  0.000  0.008  0.019
   35  0.020  0.000  0.005  0.025
   36  0.002  0.003  0.012  0.017
   37  0.000  0.000  0.000  0.000
   38  0.000  0.000  0.000  0.000
   39  0.000  0.000  0.000  0.000
tot    0.335  0.027  0.323  0.685
 
band     9 # energy   -6.28313017 # occ.  2.00000000
 
ion      s      p      d    tot
    1  0.000  0.001  0.009  0.009
    2  0.003  0.001  0.002  0.007
    3  0.000  0.000  0.003  0.004
    4  0.003  0.001  0.002  0.007
    5  0.000  0.001  0.005  0.006
    6  0.006  0.001  0.003  0.010
    7  0.000  0.000  0.003  0.004
    8  0.006  0.001  0.003  0.010
    9  0.000  0.000  0.001  0.001
   10  0.039  0.002  0.005  0.047
   11  0.011  0.003  0.019  0.033
   12  0.010  0.001  0.027  0.038
   13  0.011  0.003  0.019  0.033
   14  0.046  0.001  0.011  0.058
   15  0.000  0.002  0.007  0.010
   16  0.010  0.001  0.028  0.038
   17  0.000  0.002  0.007  0.010
   18  0.000  0.000  0.011  0.012
   19  0.003  0.003  0.006  0.013
   20  0.066  0.001  0.010  0.077
   21  0.017  0.002  0.029  0.047
   22  0.003  0.001  0.020  0.025
   23  0.016  0.002  0.029  0.047
   24  0.013  0.001  0.005  0.020
   25  0.014  0.000  0.014  0.028
   26  0.003  0.003  0.006  0.013
   27  0.003  0.001  0.020  0.025
   28  0.000  0.000  0.001  0.002
   29  0.007  0.001  0.004  0.012
   30  0.002  0.001  0.003  0.006
   31  0.007  0.001  0.004  0.012
   32  0.001  0.000  0.003  0.004
   33  0.002  0.001  0.003  0.006
   34  0.001  0.000  0.003  0.004
   35  0.000  0.000  0.004  0.004
   36  0.000  0.003  0.013  0.016
   37  0.000  0.000  0.000  0.000
   38  0.000  0.001  0.000  0.001
   39  0.000  0.000  0.000  0.000
tot    0.307  0.044  0.344  0.695
 
band    10 # energy   -6.28306985 # occ.  2.00000000
 
ion      s      p      d    tot
    1  0.000  0.001  0.008  0.009
    2  0.003  0.001  0.003  0.007
    3  0.006  0.001  0.003  0.010
    4  0.003  0.001  0.003  0.007
    5  0.000  0.001  0.005  0.006
    6  0.001  0.000  0.003  0.003
    7  0.006  0.001  0.003  0.010
    8  0.001  0.000  0.003  0.003
    9  0.000  0.000  0.001  0.001
   10  0.000  0.000  0.035  0.035
   11  0.034  0.001  0.014  0.049
   12  0.030  0.002  0.013  0.044
   13  0.034  0.001  0.014  0.049
   14  0.000  0.004  0.021  0.025
   15  0.000  0.001  0.010  0.011
   16  0.030  0.002  0.012  0.044
   17  0.000  0.001  0.010  0.011
   18  0.000  0.003  0.006  0.009
   19  0.010  0.001  0.011  0.023
   20  0.000  0.002  0.036  0.037
   21  0.049  0.001  0.016  0.067
   22  0.010  0.001  0.010  0.022
   23  0.049  0.001  0.016  0.067
   24  0.000  0.001  0.025  0.026
   25  0.000  0.004  0.003  0.008
   26  0.010  0.001  0.011  0.023
   27  0.010  0.001  0.010  0.022
   28  0.000  0.000  0.001  0.002
   29  0.000  0.000  0.003  0.003
   30  0.004  0.001  0.003  0.009
   31  0.000  0.000  0.003  0.003
   32  0.006  0.001  0.004  0.010
   33  0.004  0.001  0.003  0.009
   34  0.006  0.001  0.004  0.010
   35  0.000  0.000  0.004  0.004
   36  0.000  0.003  0.013  0.016
   37  0.000  0.000  0.000  0.000
   38  0.000  0.001  0.000  0.001
   39  0.000  0.000  0.000  0.000
tot    0.307  0.044  0.344  0.695
 
band    11 # energy   -6.25003258 # occ.  2.00000000
 
ion      s      p      d    tot
    1  0.026  0.000  0.005  0.031
    2  0.008  0.000  0.012  0.020
    3  0.008  0.000  0.012  0.020
    4  0.008  0.000  0.012  0.020
    5  0.007  0.000  0.012  0.019
    6  0.008  0.000  0.012  0.020
    7  0.008  0.000  0.012  0.020
    8  0.008  0.000  0.012  0.020
    9  0.001  0.001  0.012  0.013
   10  0.000  0.000  0.032  0.033
   11  0.004  0.000  0.023  0.028
   12  0.000  0.000  0.032  0.033
   13  0.004  0.000  0.023  0.028
   14  0.004  0.000  0.023  0.028
   15  0.026  0.001  0.013  0.040
   16  0.000  0.000  0.032  0.033
   17  0.026  0.001  0.013  0.040
   18  0.026  0.001  0.012  0.040
   19  0.007  0.001  0.013  0.021
   20  0.011  0.000  0.018  0.029
   21  0.011  0.000  0.018  0.029
   22  0.004  0.001  0.015  0.019
   23  0.011  0.000  0.018  0.029
   24  0.004  0.001  0.015  0.019
   25  0.007  0.001  0.013  0.021
   26  0.007  0.001  0.013  0.021
   27  0.004  0.001  0.015  0.019
   28  0.000  0.000  0.001  0.001
   29  0.001  0.000  0.003  0.004
   30  0.001  0.000  0.003  0.004
   31  0.001  0.000  0.003  0.004
   32  0.001  0.000  0.003  0.004
   33  0.001  0.000  0.003  0.004
   34  0.001  0.000  0.003  0.004
   35  0.008  0.000  0.000  0.008
   36  0.000  0.004  0.001  0.005
   37  0.001  0.001  0.000  0.002
   38  0.000  0.000  0.000  0.000
   39  0.000  0.000  0.000  0.000
tot    0.253  0.021  0.461  0.735
 
band    12 # energy   -6.23724197 # occ.  2.00000000
 
ion      s      p      d    tot
    1  0.001  0.000  0.000  0.001
    2  0.000  0.000  0.004  0.004
    3  0.000  0.000  0.004  0.004
    4  0.000  0.000  0.004  0.004
    5  0.009  0.001  0.000  0.010
    6  0.000  0.000  0.004  0.004
    7  0.000  0.000  0.004  0.004
    8  0.000  0.000  0.004  0.004
    9  0.006  0.001  0.002  0.009
   10  0.000  0.001  0.018  0.019
   11  0.017  0.002  0.001  0.020
   12  0.000  0.001  0.018  0.019
   13  0.017  0.002  0.001  0.020
   14  0.017  0.002  0.001  0.020
   15  0.013  0.001  0.017  0.031
   16  0.000  0.001  0.018  0.019
   17  0.013  0.001  0.017  0.031
   18  0.013  0.001  0.017  0.030
   19  0.017  0.001  0.016  0.033
   20  0.006  0.001  0.023  0.029
   21  0.006  0.001  0.023  0.030
   22  0.009  0.002  0.016  0.027
   23  0.006  0.001  0.023  0.030
   24  0.009  0.002  0.016  0.027
   25  0.017  0.001  0.016  0.033
   26  0.017  0.001  0.016  0.033
   27  0.009  0.002  0.016  0.027
   28  0.001  0.001  0.012  0.014
   29  0.009  0.000  0.011  0.020
   30  0.009  0.000  0.011  0.020
   31  0.009  0.000  0.011  0.020
   32  0.009  0.000  0.011  0.020
   33  0.009  0.000  0.011  0.020
   34  0.009  0.000  0.011  0.020
   35  0.005  0.000  0.005  0.011
   36  0.020  0.003  0.030  0.053
   37  0.002  0.002  0.000  0.004
   38  0.000  0.000  0.000  0.000
   39  0.000  0.000  0.000  0.000
tot    0.283  0.034  0.407  0.724
 
band    13 # energy   -6.22249716 # occ.  2.00000000
 
ion      s      p      d    tot
    1  0.000  0.001  0.003  0.004
    2  0.004  0.001  0.003  0.008
    3  0.000  0.000  0.003  0.004
    4  0.004  0.001  0.003  0.008
    5  0.000  0.000  0.005  0.005
    6  0.007  0.001  0.004  0.013
    7  0.000  0.000  0.003  0.004
    8  0.007  0.001  0.004  0.013
    9  0.000  0.001  0.010  0.012
   10  0.000  0.005  0.003  0.008
   11  0.008  0.001  0.011  0.021
   12  0.015  0.001  0.013  0.029
   13  0.008  0.001  0.012  0.021
   14  0.000  0.001  0.026  0.027
   15  0.047  0.001  0.014  0.063
   16  0.016  0.001  0.013  0.030
   17  0.046  0.001  0.015  0.062
   18  0.000  0.001  0.040  0.041
   19  0.029  0.002  0.011  0.042
   20  0.000  0.003  0.008  0.011
   21  0.000  0.001  0.012  0.013
   22  0.031  0.001  0.014  0.046
   23  0.000  0.001  0.012  0.013
   24  0.000  0.004  0.019  0.022
   25  0.000  0.000  0.037  0.037
   26  0.029  0.002  0.012  0.042
   27  0.031  0.001  0.013  0.046
   28  0.000  0.000  0.006  0.007
   29  0.005  0.001  0.003  0.009
   30  0.003  0.001  0.003  0.006
   31  0.005  0.001  0.003  0.009
   32  0.000  0.000  0.002  0.003
   33  0.003  0.001  0.003  0.006
   34  0.000  0.000  0.002  0.003
   35  0.000  0.001  0.005  0.005
   36  0.000  0.000  0.001  0.001
   37  0.000  0.000  0.000  0.000
   38  0.000  0.000  0.000  0.000
   39  0.000  0.000  0.000  0.000
tot    0.301  0.042  0.350  0.694
 
band    14 # energy   -6.22246285 # occ.  2.00000000
 
ion      s      p      d    tot
    1  0.000  0.001  0.003  0.004
    2  0.004  0.001  0.004  0.009
    3  0.008  0.001  0.004  0.013
    4  0.004  0.001  0.004  0.008
    5  0.000  0.000  0.005  0.005
    6  0.001  0.000  0.003  0.004
    7  0.008  0.001  0.004  0.013
    8  0.001  0.000  0.003  0.004
    9  0.000  0.001  0.010  0.012
   10  0.022  0.000  0.016  0.038
   11  0.003  0.001  0.022  0.026
   12  0.005  0.003  0.007  0.015
   13  0.003  0.001  0.021  0.026
   14  0.011  0.001  0.006  0.018
   15  0.015  0.001  0.031  0.048
   16  0.004  0.003  0.006  0.014
   17  0.016  0.001  0.031  0.048
   18  0.062  0.001  0.007  0.070
   19  0.010  0.001  0.029  0.039
   20  0.000  0.001  0.014  0.015
   21  0.000  0.002  0.009  0.011
   22  0.011  0.003  0.016  0.031
   23  0.000  0.002  0.009  0.011
   24  0.040  0.001  0.013  0.053
   25  0.038  0.002  0.003  0.043
   26  0.010  0.001  0.028  0.039
   27  0.011  0.003  0.017  0.030
   28  0.000  0.000  0.006  0.007
   29  0.000  0.000  0.002  0.003
   30  0.003  0.001  0.002  0.005
   31  0.000  0.000  0.002  0.003
   32  0.005  0.001  0.003  0.009
   33  0.003  0.001  0.002  0.005
   34  0.005  0.001  0.003  0.009
   35  0.000  0.001  0.005  0.005
   36  0.000  0.000  0.001  0.001
   37  0.000  0.000  0.000  0.000
   38  0.000  0.000  0.000  0.000
   39  0.000  0.000  0.000  0.000
tot    0.301  0.042  0.350  0.694
 
band    15 # energy   -6.22072221 # occ.  2.00000000
 
ion      s      p      d    tot
    1  0.006  0.001  0.003  0.011
    2  0.000  0.000  0.005  0.006
    3  0.000  0.001  0.005  0.006
    4  0.000  0.000  0.005  0.006
    5  0.013  0.001  0.000  0.014
    6  0.000  0.001  0.005  0.006
    7  0.000  0.001  0.005  0.006
    8  0.000  0.001  0.005  0.006
    9  0.001  0.000  0.002  0.003
   10  0.026  0.002  0.002  0.030
   11  0.009  0.000  0.026  0.035
   12  0.028  0.002  0.001  0.032
   13  0.009  0.000  0.026  0.035
   14  0.010  0.000  0.027  0.037
   15  0.000  0.001  0.018  0.019
   16  0.028  0.002  0.001  0.032
   17  0.000  0.001  0.018  0.019
   18  0.000  0.001  0.017  0.018
   19  0.010  0.002  0.013  0.024
   20  0.006  0.002  0.019  0.027
   21  0.006  0.002  0.020  0.028
   22  0.018  0.000  0.021  0.039
   23  0.006  0.002  0.020  0.028
   24  0.020  0.000  0.020  0.040
   25  0.011  0.002  0.013  0.026
   26  0.010  0.002  0.013  0.024
   27  0.018  0.000  0.021  0.039
   28  0.022  0.001  0.001  0.024
   29  0.004  0.000  0.007  0.011
   30  0.004  0.000  0.007  0.012
   31  0.004  0.000  0.007  0.011
   32  0.004  0.000  0.007  0.011
   33  0.004  0.000  0.007  0.012
   34  0.004  0.000  0.007  0.011
   35  0.000  0.001  0.010  0.011
   36  0.001  0.000  0.006  0.008
   37  0.000  0.000  0.000  0.000
   38  0.000  0.000  0.000  0.000
   39  0.000  0.000  0.000  0.000
tot    0.286  0.033  0.388  0.707
 
band    16 # energy   -5.78762359 # occ.  2.00000000
 
ion      s      p      d    tot
    1  0.000  0.001  0.004  0.005
    2  0.001  0.001  0.005  0.007
    3  0.010  0.001  0.004  0.016
    4  0.001  0.001  0.005  0.007
    5  0.000  0.002  0.010  0.011
    6  0.004  0.001  0.004  0.008
    7  0.010  0.001  0.004  0.016
    8  0.004  0.001  0.004  0.008
    9  0.000  0.000  0.009  0.009
   10  0.000  0.001  0.048  0.049
   11  0.018  0.001  0.020  0.039
   12  0.006  0.001  0.019  0.027
   13  0.018  0.001  0.020  0.039
   14  0.000  0.000  0.052  0.052
   15  0.003  0.000  0.020  0.023
   16  0.006  0.001  0.019  0.027
   17  0.003  0.000  0.020  0.023
   18  0.000  0.001  0.012  0.013
   19  0.003  0.000  0.018  0.022
   20  0.000  0.000  0.071  0.071
   21  0.016  0.001  0.022  0.039
   22  0.004  0.001  0.018  0.023
   23  0.016  0.001  0.022  0.039
   24  0.000  0.001  0.035  0.035
   25  0.000  0.001  0.010  0.011
   26  0.003  0.000  0.018  0.022
   27  0.004  0.001  0.018  0.023
   28  0.000  0.000  0.007  0.007
   29  0.003  0.001  0.004  0.008
   30  0.009  0.001  0.005  0.015
   31  0.003  0.001  0.004  0.008
   32  0.001  0.001  0.004  0.006
   33  0.009  0.001  0.005  0.015
   34  0.001  0.001  0.004  0.006
   35  0.000  0.000  0.003  0.003
   36  0.000  0.003  0.013  0.016
   37  0.000  0.000  0.000  0.000
   38  0.000  0.000  0.000  0.000
   39  0.000  0.000  0.000  0.000
tot    0.156  0.032  0.561  0.749
 
band    17 # energy   -5.78759359 # occ.  2.00000000
 
ion      s      p      d    tot
    1  0.000  0.001  0.004  0.005
    2  0.009  0.001  0.004  0.014
    3  0.000  0.000  0.004  0.005
    4  0.009  0.001  0.004  0.014
    5  0.000  0.002  0.010  0.011
    6  0.006  0.001  0.005  0.012
    7  0.000  0.000  0.004  0.005
    8  0.006  0.001  0.005  0.012
    9  0.000  0.000  0.009  0.009
   10  0.008  0.002  0.010  0.020
   11  0.006  0.000  0.041  0.048
   12  0.002  0.001  0.039  0.042
   13  0.006  0.000  0.041  0.048
   14  0.024  0.001  0.009  0.035
   15  0.001  0.001  0.014  0.016
   16  0.002  0.001  0.039  0.042
   17  0.001  0.001  0.014  0.016
   18  0.003  0.000  0.023  0.026
   19  0.001  0.001  0.013  0.015
   20  0.021  0.002  0.006  0.028
   21  0.005  0.000  0.055  0.060
   22  0.001  0.001  0.029  0.031
   23  0.005  0.000  0.055  0.060
   24  0.005  0.001  0.013  0.019
   25  0.005  0.000  0.020  0.025
   26  0.001  0.001  0.013  0.015
   27  0.001  0.001  0.029  0.031
   28  0.000  0.000  0.007  0.007
   29  0.006  0.001  0.004  0.011
   30  0.000  0.000  0.004  0.004
   31  0.006  0.001  0.004  0.011
   32  0.007  0.001  0.005  0.013
   33  0.000  0.000  0.004  0.004
   34  0.007  0.001  0.005  0.013
   35  0.000  0.000  0.003  0.003
   36  0.000  0.003  0.013  0.016
   37  0.000  0.000  0.000  0.000
   38  0.000  0.000  0.000  0.000
   39  0.000  0.000  0.000  0.000
tot    0.156  0.032  0.561  0.749
 
band    18 # energy   -5.77937170 # occ.  2.00000000
 
ion      s      p      d    tot
    1  0.019  0.002  0.001  0.022
    2  0.000  0.001  0.007  0.008
    3  0.000  0.001  0.007  0.008
    4  0.000  0.001  0.007  0.008
    5  0.002  0.001  0.002  0.005
    6  0.000  0.001  0.007  0.008
    7  0.000  0.001  0.007  0.008
    8  0.000  0.001  0.007  0.008
    9  0.007  0.000  0.000  0.008
   10  0.008  0.002  0.011  0.020
   11  0.007  0.001  0.030  0.038
   12  0.008  0.002  0.011  0.020
   13  0.007  0.001  0.030  0.038
   14  0.007  0.001  0.030  0.037
   15  0.000  0.000  0.036  0.036
   16  0.008  0.002  0.011  0.020
   17  0.000  0.000  0.036  0.036
   18  0.000  0.000  0.035  0.036
   19  0.009  0.001  0.005  0.015
   20  0.000  0.000  0.043  0.043
   21  0.000  0.000  0.043  0.043
   22  0.009  0.001  0.033  0.043
   23  0.000  0.000  0.043  0.043
   24  0.009  0.001  0.033  0.043
   25  0.009  0.001  0.005  0.015
   26  0.009  0.001  0.005  0.015
   27  0.009  0.001  0.033  0.043
   28  0.017  0.002  0.000  0.019
   29  0.000  0.001  0.008  0.008
   30  0.000  0.001  0.008  0.008
   31  0.000  0.001  0.008  0.008
   32  0.000  0.001  0.008  0.008
   33  0.000  0.001  0.008  0.008
   34  0.000  0.001  0.008  0.008
   35  0.002  0.001  0.003  0.005
   36  0.005  0.001  0.003  0.009
   37  0.000  0.000  0.000  0.000
   38  0.000  0.000  0.000  0.000
   39  0.000  0.000  0.000  0.000
tot    0.152  0.030  0.571  0.753
 
band    19 # energy   -5.73941232 # occ.  2.00000000
 
ion      s      p      d    tot
    1  0.000  0.001  0.014  0.015
    2  0.009  0.001  0.004  0.014
    3  0.001  0.000  0.005  0.006
    4  0.009  0.001  0.004  0.015
    5  0.000  0.000  0.006  0.006
    6  0.005  0.001  0.005  0.011
    7  0.001  0.000  0.005  0.006
    8  0.005  0.001  0.005  0.011
    9  0.000  0.001  0.006  0.007
   10  0.000  0.001  0.034  0.035
   11  0.000  0.001  0.019  0.020
   12  0.010  0.000  0.022  0.032
   13  0.000  0.001  0.019  0.020
   14  0.000  0.001  0.016  0.017
   15  0.011  0.002  0.019  0.032
   16  0.010  0.000  0.022  0.032
   17  0.011  0.002  0.020  0.033
   18  0.000  0.000  0.061  0.061
   19  0.015  0.001  0.019  0.035
   20  0.000  0.002  0.020  0.022
   21  0.000  0.001  0.022  0.022
   22  0.015  0.001  0.021  0.036
   23  0.000  0.001  0.022  0.022
   24  0.000  0.001  0.030  0.031
   25  0.000  0.000  0.064  0.064
   26  0.014  0.001  0.020  0.035
   27  0.015  0.001  0.020  0.036
   28  0.000  0.001  0.005  0.006
   29  0.006  0.001  0.004  0.011
   30  0.000  0.000  0.005  0.005
   31  0.006  0.001  0.004  0.011
   32  0.006  0.001  0.003  0.010
   33  0.000  0.000  0.005  0.005
   34  0.006  0.001  0.003  0.010
   35  0.000  0.001  0.009  0.010
   36  0.000  0.000  0.003  0.003
   37  0.000  0.000  0.000  0.000
   38  0.000  0.000  0.000  0.000
   39  0.000  0.000  0.000  0.000
tot    0.154  0.030  0.563  0.748
 
band    20 # energy   -5.73940898 # occ.  2.00000000
 
ion      s      p      d    tot
    1  0.000  0.001  0.014  0.015
    2  0.001  0.001  0.005  0.007
    3  0.009  0.001  0.005  0.015
    4  0.001  0.001  0.005  0.007
    5  0.000  0.000  0.006  0.006
    6  0.005  0.001  0.004  0.010
    7  0.009  0.001  0.005  0.015
    8  0.005  0.001  0.004  0.010
    9  0.000  0.001  0.006  0.007
   10  0.013  0.000  0.017  0.031
   11  0.000  0.001  0.017  0.018
   12  0.003  0.001  0.030  0.034
   13  0.000  0.001  0.017  0.019
   14  0.000  0.001  0.020  0.021
   15  0.004  0.001  0.047  0.052
   16  0.003  0.001  0.030  0.034
   17  0.004  0.001  0.047  0.051
   18  0.015  0.002  0.006  0.023
   19  0.005  0.001  0.049  0.055
   20  0.000  0.000  0.022  0.023
   21  0.000  0.001  0.021  0.022
   22  0.005  0.001  0.027  0.033
   23  0.000  0.001  0.021  0.022
   24  0.020  0.001  0.017  0.038
   25  0.020  0.002  0.004  0.025
   26  0.005  0.001  0.049  0.054
   27  0.005  0.001  0.027  0.033
   28  0.000  0.001  0.005  0.006
   29  0.002  0.000  0.004  0.006
   30  0.008  0.001  0.003  0.012
   31  0.002  0.000  0.004  0.006
   32  0.002  0.001  0.005  0.007
   33  0.008  0.001  0.003  0.012
   34  0.002  0.001  0.005  0.008
   35  0.000  0.001  0.009  0.010
   36  0.000  0.000  0.003  0.003
   37  0.000  0.000  0.000  0.000
   38  0.000  0.000  0.000  0.000
   39  0.000  0.000  0.000  0.000