 vasp.6.2.0 18Jan21 (build Jun 12 2021 23:27:24) complex                        
  
 executed on             LinuxIFC date 2022.05.28  01:28:08
 running on   28 total cores
 distrk:  each k-point on   28 cores,    1 groups
 distr:  one band on NCORE=   1 cores,   28 groups


--------------------------------------------------------------------------------------------------------


 INCAR:
   ISMEAR = -5
   SIGMA = 0.1
   ISPIN = 1
   EDIFF = 1.d-5
   EDIFFG = -0.01
   NSW = 0
   NELM = 150
   ENCUT = 500
   ISIF = 2
   IBRION = 2
   LREAL = Auto
   ALGO = Fast
   ICHARG = 11
   LORBIT = 10
   LCHARG = .F.
   LWAVE = .F.

 POTCAR:    PAW_PBE Ag 02Apr2005                  
 POTCAR:    PAW_PBE Cr 06Sep2000                  
 POTCAR:    PAW_PBE H 15Jun2001                   
 POTCAR:    PAW_PBE O 08Apr2002                   
 -----------------------------------------------------------------------------
|                                                                             |
|           W    W    AA    RRRRR   N    N  II  N    N   GGGG   !!!           |
|           W    W   A  A   R    R  NN   N  II  NN   N  G    G  !!!           |
|           W    W  A    A  R    R  N N  N  II  N N  N  G       !!!           |
|           W WW W  AAAAAA  RRRRR   N  N N  II  N  N N  G  GGG   !            |
|           WW  WW  A    A  R   R   N   NN  II  N   NN  G    G                |
|           W    W  A    A  R    R  N    N  II  N    N   GGGG   !!!           |
|                                                                             |
|     For optimal performance we recommend to set                             |
|       NCORE = 2 up to number-of-cores-per-socket                            |
|     NCORE specifies how many cores store one orbital (NPAR=cpu/NCORE).      |
|     This setting can greatly improve the performance of VASP for DFT.       |
|     The default, NCORE=1 might be grossly inefficient on modern             |
|     multi-core architectures or massively parallel machines. Do your        |
|     own testing! More info at https://www.vasp.at/wiki/index.php/NCORE      |
|     Unfortunately you need to use the default for GW and RPA                |
|     calculations (for HF NCORE is supported but not extensively tested      |
|     yet).                                                                   |
|                                                                             |
 -----------------------------------------------------------------------------

 POTCAR:    PAW_PBE Ag 02Apr2005                  
   VRHFIN =Ag : s1 d10                                                                              
   LEXCH  = PE                                                                                      
   EATOM  =  1037.2675 eV,   76.2370 Ry                                                             
                                                                                                    
   TITEL  = PAW_PBE Ag 02Apr2005                                                                    
   LULTRA =        F    use ultrasoft PP ?                                                          
   IUNSCR =        1    unscreen: 0-lin 1-nonlin 2-no                                               
   RPACOR =    2.000    partial core radius                                                         
   POMASS =  107.868; ZVAL   =   11.000    mass and valenz                                          
   RCORE  =    2.500    outmost cutoff radius                                                       
   RWIGS  =    2.840; RWIGS  =    1.503    wigner-seitz radius (au A)                               
   ENMAX  =  249.844; ENMIN  =  187.383 eV                                                          
   ICORE  =        3    local potential                                                             
   LCOR   =        T    correct aug charges                                                         
   LPAW   =        T    paw PP                                                                      
   EAUG   =  412.496                                                                                
   DEXC   =    0.000                                                                                
   RMAX   =    2.560    core radius for proj-oper                                                   
   RAUG   =    1.300    factor for augmentation sphere                                              
   RDEP   =    2.576    radius for radial grids                                                     
   RDEPT  =    2.072    core radius for aug-charge                                                  
                                                                                                    
   Atomic configuration                                                                             
   12 entries                                                                                       
     n  l   j            E        occ.                                                              
     1  0  0.50    -25324.9161   2.0000                                                             
     2  0  0.50     -3728.5341   2.0000                                                             
     2  1  1.50     -3344.0404   6.0000                                                             
     3  0  0.50      -683.5581   2.0000                                                             
     3  1  1.50      -557.3225   6.0000                                                             
     3  2  2.50      -358.3853  10.0000                                                             
     4  0  0.50       -95.0341   2.0000                                                             
     4  1  1.50       -58.5511   6.0000                                                             
     4  2  2.50        -7.4440  10.0000                                                             
     5  0  0.50        -4.4045   1.0000                                                             
     5  1  0.50        -1.3606   0.0000                                                             
     4  3  2.50        -1.3606   0.0000                                                             
   Description                                                                                      
     l       E           TYP  RCUT    TYP  RCUT                                                     
     2     -7.4439781     23  2.400                                                                 
     2     -8.8045607     23  2.400                                                                 
     0     -4.4044681     23  2.400                                                                 
     0      1.9520038     23  2.400                                                                 
     1     -1.3605826     23  2.500                                                                 
     1     27.2116520     23  2.500                                                                 
     3     -4.0817478     23  2.400                                                                 
  local pseudopotential read in
  partial core-charges read in
  partial kinetic energy density read in
  atomic valenz-charges read in
  non local Contribution for L=           2  read in
    real space projection operators read in
  non local Contribution for L=           2  read in
    real space projection operators read in
  non local Contribution for L=           0  read in
    real space projection operators read in
  non local Contribution for L=           0  read in
    real space projection operators read in
  non local Contribution for L=           1  read in
    real space projection operators read in
  non local Contribution for L=           1  read in
    real space projection operators read in
    PAW grid and wavefunctions read in
 
   number of l-projection  operators is LMAX  =           6
   number of lm-projection operators is LMMAX =          18
 
 POTCAR:    PAW_PBE Cr 06Sep2000                  
   VRHFIN =Cr : d5 s1                                                                               
   LEXCH  = PE                                                                                      
   EATOM  =   276.8859 eV,   20.3505 Ry                                                             
                                                                                                    
   TITEL  = PAW_PBE Cr 06Sep2000                                                                    
   LULTRA =        F    use ultrasoft PP ?                                                          
   IUNSCR =        1    unscreen: 0-lin 1-nonlin 2-no                                               
   RPACOR =    2.080    partial core radius                                                         
   POMASS =   51.996; ZVAL   =    6.000    mass and valenz                                          
   RCORE  =    2.500    outmost cutoff radius                                                       
   RWIGS  =    2.500; RWIGS  =    1.323    wigner-seitz radius (au A)                               
   ENMAX  =  227.080; ENMIN  =  170.310 eV                                                          
   RCLOC  =    1.721    cutoff for local pot                                                        
   LCOR   =        T    correct aug charges                                                         
   LPAW   =        T    paw PP                                                                      
   EAUG   =  402.108                                                                                
   DEXC   =    0.000                                                                                
   RMAX   =    2.552    core radius for proj-oper                                                   
   RAUG   =    1.300    factor for augmentation sphere                                              
   RDEP   =    2.609    radius for radial grids                                                     
   RDEPT  =    2.065    core radius for aug-charge                                                  
                                                                                                    
   Atomic configuration                                                                             
    9 entries                                                                                       
     n  l   j            E        occ.                                                              
     1  0  0.50     -5880.4963   2.0000                                                             
     2  0  0.50      -667.0865   2.0000                                                             
     2  1  1.50      -560.6250   6.0000                                                             
     3  0  0.50       -73.9860   2.0000                                                             
     3  1  1.50       -45.4378   6.0000                                                             
     3  2  2.50        -2.9137   5.0000                                                             
     4  0  0.50        -4.0071   1.0000                                                             
     4  1  0.50        -1.2789   0.0000                                                             
     4  3  2.50        -1.3606   0.0000                                                             
   Description                                                                                      
     l       E           TYP  RCUT    TYP  RCUT                                                     
     2     -2.9136677     23  2.500                                                                 
     2     -4.2742503     23  2.500                                                                 
     0     -4.0071322     23  2.500                                                                 
     0      9.4498801     23  2.500                                                                 
     1     -5.4423304     23  2.500                                                                 
     1     27.2116520     23  2.500                                                                 
  local pseudopotential read in
  partial core-charges read in
  partial kinetic energy density read in
  atomic valenz-charges read in
  non local Contribution for L=           2  read in
    real space projection operators read in
  non local Contribution for L=           2  read in
    real space projection operators read in
  non local Contribution for L=           0  read in
    real space projection operators read in
  non local Contribution for L=           0  read in
    real space projection operators read in
  non local Contribution for L=           1  read in
    real space projection operators read in
  non local Contribution for L=           1  read in
    real space projection operators read in
    PAW grid and wavefunctions read in
 
   number of l-projection  operators is LMAX  =           6
   number of lm-projection operators is LMMAX =          18
 
 POTCAR:    PAW_PBE H 15Jun2001                   
   VRHFIN =H: ultrasoft test                                                                        
   LEXCH  = PE                                                                                      
   EATOM  =    12.4884 eV,    0.9179 Ry                                                             
                                                                                                    
   TITEL  = PAW_PBE H 15Jun2001                                                                     
   LULTRA =        F    use ultrasoft PP ?                                                          
   IUNSCR =        0    unscreen: 0-lin 1-nonlin 2-no                                               
   RPACOR =    0.000    partial core radius                                                         
   POMASS =    1.000; ZVAL   =    1.000    mass and valenz                                          
   RCORE  =    1.100    outmost cutoff radius                                                       
   RWIGS  =    0.700; RWIGS  =    0.370    wigner-seitz radius (au A)                               
   ENMAX  =  250.000; ENMIN  =  200.000 eV                                                          
   RCLOC  =    0.701    cutoff for local pot                                                        
   LCOR   =        T    correct aug charges                                                         
   LPAW   =        T    paw PP                                                                      
   EAUG   =  400.000                                                                                
   RMAX   =    1.123    core radius for proj-oper                                                   
   RAUG   =    1.200    factor for augmentation sphere                                              
   RDEP   =    1.112    radius for radial grids                                                     
   RDEPT  =    0.926    core radius for aug-charge                                                  
                                                                                                    
   Atomic configuration                                                                             
    2 entries                                                                                       
     n  l   j            E        occ.                                                              
     1  0  0.50        -6.4927   1.0000                                                             
     2  1  0.50        -3.4015   0.0000                                                             
   Description                                                                                      
     l       E           TYP  RCUT    TYP  RCUT                                                     
     0     -6.4927494     23  1.100                                                                 
     0      6.8029130     23  1.100                                                                 
     1     -4.0817478     23  1.100                                                                 
  local pseudopotential read in
  atomic valenz-charges read in
  non local Contribution for L=           0  read in
    real space projection operators read in
  non local Contribution for L=           0  read in
    real space projection operators read in
  non local Contribution for L=           1  read in
    real space projection operators read in
    PAW grid and wavefunctions read in
 
   number of l-projection  operators is LMAX  =           3
   number of lm-projection operators is LMMAX =           5
 
 POTCAR:    PAW_PBE O 08Apr2002                   
   VRHFIN =O: s2p4                                                                                  
   LEXCH  = PE                                                                                      
   EATOM  =   432.3788 eV,   31.7789 Ry                                                             
                                                                                                    
   TITEL  = PAW_PBE O 08Apr2002                                                                     
   LULTRA =        F    use ultrasoft PP ?                                                          
   IUNSCR =        1    unscreen: 0-lin 1-nonlin 2-no                                               
   RPACOR =    1.200    partial core radius                                                         
   POMASS =   16.000; ZVAL   =    6.000    mass and valenz                                          
   RCORE  =    1.520    outmost cutoff radius                                                       
   RWIGS  =    1.550; RWIGS  =    0.820    wigner-seitz radius (au A)                               
   ENMAX  =  400.000; ENMIN  =  300.000 eV                                                          
   ICORE  =        2    local potential                                                             
   LCOR   =        T    correct aug charges                                                         
   LPAW   =        T    paw PP                                                                      
   EAUG   =  605.392                                                                                
   DEXC   =    0.000                                                                                
   RMAX   =    1.553    core radius for proj-oper                                                   
   RAUG   =    1.300    factor for augmentation sphere                                              
   RDEP   =    1.550    radius for radial grids                                                     
   RDEPT  =    1.329    core radius for aug-charge                                                  
                                                                                                    
   Atomic configuration                                                                             
    4 entries                                                                                       
     n  l   j            E        occ.                                                              
     1  0  0.50      -514.6923   2.0000                                                             
     2  0  0.50       -23.9615   2.0000                                                             
     2  1  0.50        -9.0305   4.0000                                                             
     3  2  1.50        -9.5241   0.0000                                                             
   Description                                                                                      
     l       E           TYP  RCUT    TYP  RCUT                                                     
     0    -23.9615318     23  1.200                                                                 
     0     -9.5240782     23  1.200                                                                 
     1     -9.0304911     23  1.520                                                                 
     1      8.1634956     23  1.520                                                                 
     2     -9.5240782      7  1.500                                                                 
  local pseudopotential read in
  partial core-charges read in
  partial kinetic energy density read in
  kinetic energy density of atom read in
  atomic valenz-charges read in
  non local Contribution for L=           0  read in
    real space projection operators read in
  non local Contribution for L=           0  read in
    real space projection operators read in
  non local Contribution for L=           1  read in
    real space projection operators read in
  non local Contribution for L=           1  read in
    real space projection operators read in
    PAW grid and wavefunctions read in
 
   number of l-projection  operators is LMAX  =           4
   number of lm-projection operators is LMMAX =           8
 
 Optimization of the real space projectors (new method)

 maximal supplied QI-value         = 15.12
 optimisation between [QCUT,QGAM] = [ 11.34, 22.83] = [ 36.00,145.93] Ry 
 Optimized for a Real-space Cutoff    1.43 Angstroem

   l    n(q)    QCUT    max X(q) W(low)/X(q) W(high)/X(q)  e(spline) 
   2      9    11.338    53.897    0.16E-03    0.20E-03    0.28E-06
   2      9    11.338    52.416    0.16E-03    0.20E-03    0.29E-06
   0     10    11.338   122.045    0.31E-04    0.76E-04    0.15E-06
   0     10    11.338    73.629    0.30E-04    0.72E-04    0.15E-06
   1      9    11.338    15.255    0.20E-03    0.19E-04    0.17E-06
   1      9    11.338     9.562    0.16E-03    0.15E-04    0.14E-06
 Optimization of the real space projectors (new method)

 maximal supplied QI-value         = 15.12
 optimisation between [QCUT,QGAM] = [ 11.34, 22.83] = [ 36.00,145.93] Ry 
 Optimized for a Real-space Cutoff    1.43 Angstroem

   l    n(q)    QCUT    max X(q) W(low)/X(q) W(high)/X(q)  e(spline) 
   2      9    11.338    94.395    0.18E-03    0.10E-02    0.64E-06
   2      9    11.338    88.078    0.18E-03    0.10E-02    0.65E-06
   0     10    11.338    50.173    0.13E-03    0.16E-03    0.96E-07
   0     10    11.338    24.906    0.12E-03    0.14E-03    0.88E-07
   1      9    11.338    12.133    0.13E-03    0.15E-03    0.24E-06
   1      9    11.338     7.290    0.10E-03    0.10E-03    0.18E-06
 Optimization of the real space projectors (new method)

 maximal supplied QI-value         = 34.20
 optimisation between [QCUT,QGAM] = [ 11.29, 22.57] = [ 35.68,142.71] Ry 
 Optimized for a Real-space Cutoff    1.16 Angstroem

   l    n(q)    QCUT    max X(q) W(low)/X(q) W(high)/X(q)  e(spline) 
   0      8    11.287    19.460    0.40E-03    0.73E-03    0.16E-06
   0      8    11.287    12.209    0.38E-03    0.70E-03    0.15E-06
   1      7    11.287     4.655    0.22E-03    0.25E-04    0.22E-06
 Optimization of the real space projectors (new method)

 maximal supplied QI-value         = 24.76
 optimisation between [QCUT,QGAM] = [ 11.39, 22.77] = [ 36.31,145.25] Ry 
 Optimized for a Real-space Cutoff    1.00 Angstroem

   l    n(q)    QCUT    max X(q) W(low)/X(q) W(high)/X(q)  e(spline) 
   0      7    11.387    20.381    0.39E-03    0.13E-02    0.15E-06
   0      7    11.387    15.268    0.42E-03    0.14E-02    0.17E-06
   1      6    11.387     5.964    0.41E-03    0.11E-02    0.17E-06
   1      6    11.387     5.382    0.39E-03    0.87E-03    0.15E-06
  PAW_PBE Ag 02Apr2005                  :
 energy of atom  1       EATOM=-1037.2675
 kinetic energy error for atom=    0.0052 (will be added to EATOM!!)
  PAW_PBE Cr 06Sep2000                  :
 energy of atom  2       EATOM= -276.8859
 kinetic energy error for atom=    0.0012 (will be added to EATOM!!)
  PAW_PBE H 15Jun2001                   :
 energy of atom  3       EATOM=  -12.4884
 kinetic energy error for atom=    0.0020 (will be added to EATOM!!)
  PAW_PBE O 08Apr2002                   :
 energy of atom  4       EATOM= -432.3788
 kinetic energy error for atom=    0.0224 (will be added to EATOM!!)
 
 
 POSCAR: Ag-Cr-H2O
  positions in direct lattice
  velocities in cartesian coordinates
 exchange correlation table for  LEXCH =        8
   RHO(1)=    0.500       N(1)  =     2000
   RHO(2)=  100.500       N(2)  =     4000

 VTST: version 3.2, (02/03/18)

 CHAIN: initializing optimizer
 
 OPT: Using VASP Conjugate-Gradient optimizer
 CHAIN: Read ICHAIN            0
 
 POSCAR: Ag-Cr-H2O
  positions in direct lattice
  velocities in cartesian coordinates
 


--------------------------------------------------------------------------------------------------------


 ion  position               nearest neighbor table
   1  0.000  0.000  0.212-   2 2.93   8 2.93   7 2.93   6 2.93   4 2.93  12 2.93  16 2.93  10 2.93
                             3 2.93
   2  0.333  0.000  0.212-   1 2.93   8 2.93   9 2.93   3 2.93   4 2.93   5 2.93  10 2.93  17 2.93
                            11 2.93
   3  0.667  0.000  0.212-   9 2.93   2 2.93   5 2.93  11 2.93   7 2.93  18 2.93   1 2.93   6 2.93
                            12 2.93
   4  0.000  0.333  0.212-   5 2.93   6 2.93   2 2.93   1 2.93   7 2.93  13 2.93  15 2.93   9 2.93
                            10 2.93
   5  0.333  0.333  0.212-   4 2.93   3 2.93   7 2.93   2 2.93   8 2.93  14 2.93  13 2.93  11 2.93
                             6 2.93
   6  0.667  0.333  0.212-   4 2.93   9 2.93   1 2.93  15 2.93   8 2.93  12 2.93   3 2.93   5 2.93
                            14 2.93
   7  0.000  0.667  0.212-   8 2.93   1 2.93   5 2.93   3 2.93   4 2.93  16 2.93  18 2.93  13 2.93
                             9 2.93
   8  0.333  0.667  0.212-   7 2.93   1 2.93   2 2.93   9 2.93   5 2.93  16 2.93   6 2.93  17 2.93
                            14 2.93
   9  0.667  0.667  0.212-   3 2.93   2 2.93   8 2.93   6 2.93  17 2.93   4 2.93  15 2.93   7 2.93
                            18 2.93
  10  0.111  0.111  0.308-  20 2.91  19 2.92  26 2.92  12 2.93  16 2.93  15 2.93  17 2.93  13 2.93
                            11 2.93   2 2.93   1 2.93   4 2.93
  11  0.444  0.111  0.308-  21 2.90  20 2.90  27 2.92  14 2.93  17 2.93  18 2.93   3 2.93  12 2.93
                            13 2.93  10 2.93   5 2.93   2 2.93
  12  0.778  0.111  0.308-  21 2.91  25 2.92  19 2.92  10 2.93  16 2.93  18 2.93  15 2.93  11 2.93
                             1 2.93  14 2.93   6 2.93   3 2.93
  13  0.111  0.444  0.308-  20 2.90  23 2.90  22 2.92  15 2.93  14 2.93  18 2.93  10 2.93  11 2.93
                            16 2.93   4 2.93   5 2.93   7 2.93
  14  0.444  0.444  0.308-  23 2.90  21 2.90  24 2.92  13 2.93  11 2.93  16 2.93   5 2.93  12 2.93
                            17 2.93   8 2.93  15 2.93   6 2.93
  15  0.778  0.444  0.308-  24 2.92  22 2.92  19 2.92  13 2.93  10 2.93  12 2.93  17 2.93  18 2.93
                             4 2.93   6 2.93   9 2.93  14 2.93
  16  0.111  0.778  0.308-  23 2.91  26 2.92  25 2.92  18 2.93  12 2.93  10 2.93  14 2.93  17 2.93
                            13 2.93   7 2.93   8 2.93   1 2.93
  17  0.444  0.778  0.308-  27 2.92  24 2.92  26 2.92  11 2.93  10 2.93   9 2.93  18 2.93  15 2.93
                            16 2.93   2 2.93  14 2.93   8 2.93
  18  0.778  0.778  0.308-  22 2.92  27 2.92  25 2.92  16 2.93  12 2.93  13 2.93  11 2.93  17 2.93
                            15 2.93   7 2.93   3 2.93   9 2.93
  19  0.889  0.222  0.403-  28 2.91  15 2.92  10 2.92  12 2.92  24 2.93  22 2.93  26 2.93  25 2.93
                            20 2.94  21 2.94  32 2.96  31 2.96
  20  0.223  0.223  0.402-  36 2.73  13 2.90  11 2.90  21 2.91  23 2.91  10 2.91  31 2.91  29 2.91
                            27 2.93  22 2.93  19 2.94  26 2.94
  21  0.554  0.223  0.402-  36 2.73  11 2.90  14 2.90  20 2.91  23 2.91  12 2.91  30 2.91  32 2.91
                            27 2.93  24 2.93  25 2.94  19 2.94
  22  0.888  0.556  0.403-  35 2.91  18 2.92  15 2.92  13 2.92  24 2.92  27 2.92  25 2.93  19 2.93
                            33 2.93  31 2.93  23 2.93  20 2.93
  23  0.223  0.554  0.402-  36 2.73  14 2.90  13 2.90  21 2.91  20 2.91  16 2.91  34 2.91  33 2.91
                            22 2.93  24 2.93  26 2.94  25 2.94
  24  0.556  0.556  0.403-  35 2.91  15 2.92  17 2.92  14 2.92  27 2.92  22 2.92  19 2.93  26 2.93
                            32 2.93  34 2.93  23 2.93  21 2.93
  25  0.889  0.889  0.403-  28 2.91  18 2.92  16 2.92  12 2.92  22 2.93  27 2.93  26 2.93  19 2.93
                            23 2.94  21 2.94  33 2.96  30 2.96
  26  0.222  0.889  0.403-  28 2.91  17 2.92  16 2.92  10 2.92  27 2.93  24 2.93  25 2.93  19 2.93
                            23 2.94  20 2.94  34 2.96  29 2.96
  27  0.556  0.888  0.403-  35 2.91  17 2.92  18 2.92  11 2.92  24 2.92  22 2.92  26 2.93  25 2.93
                            29 2.93  30 2.93  20 2.93  21 2.93
  28  0.000  0.000  0.498-  26 2.91  25 2.91  19 2.91  29 2.96  34 2.96  33 2.96  32 2.96  31 2.96
                            30 2.96
  29  0.333  0.007  0.499-  30 2.87  31 2.87  36 2.88  20 2.91  27 2.93  26 2.96  35 2.96  28 2.96
                            34 3.06
  30  0.659  0.007  0.499-  29 2.87  32 2.87  36 2.88  21 2.91  27 2.93  25 2.96  35 2.96  28 2.96
                            33 3.06
  31  0.007  0.333  0.499-  33 2.87  29 2.87  36 2.88  20 2.91  22 2.93  19 2.96  35 2.96  28 2.96
                            32 3.06
  32  0.659  0.333  0.499-  34 2.87  30 2.87  36 2.88  21 2.91  24 2.93  19 2.96  35 2.96  28 2.96
                            31 3.06
  33  0.007  0.659  0.499-  31 2.87  34 2.87  36 2.88  23 2.91  22 2.93  25 2.96  35 2.96  28 2.96
                            30 3.06
  34  0.333  0.659  0.499-  32 2.87  33 2.87  36 2.88  23 2.91  24 2.93  26 2.96  35 2.96  28 2.96
                            29 3.06
  35  0.667  0.667  0.498-  24 2.91  27 2.91  22 2.91  30 2.96  32 2.96  29 2.96  34 2.96  31 2.96
                            33 2.96
  36  0.333  0.333  0.488-  39 2.13  21 2.73  20 2.73  23 2.73  31 2.88  33 2.88  30 2.88  29 2.88
                            34 2.88  32 2.88
  37  0.276  0.268  0.583-  39 0.98
  38  0.455  0.268  0.584-  39 0.98
  39  0.331  0.338  0.574-  37 0.98  38 0.98  36 2.13
 
  LATTYP: Found a hexagonal cell.
 ALAT       =     8.7913665772
 C/A-ratio  =     2.8382349142
  
  Lattice vectors:
  
 A1 = (  -4.3956832886,  -7.6135467898,   0.0000000000)
 A2 = (   8.7913665771,   0.0000000000,   0.0000000000)
 A3 = (   0.0000000000,   0.0000000000,  24.9519635625)


Analysis of symmetry for initial positions (statically):
=====================================================================
 Subroutine PRICEL returns:
 Original cell was already a primitive cell.
 

 Routine SETGRP: Setting up the symmetry group for a 
 hexagonal supercell.


 Subroutine GETGRP returns: Found  1 space group operations
 (whereof  1 operations were pure point group operations)
 out of a pool of 24 trial point group operations.


The static configuration has the point symmetry C_1 .


Analysis of symmetry for dynamics (positions and initial velocities):
=====================================================================
 Subroutine PRICEL returns:
 Original cell was already a primitive cell.
 

 Routine SETGRP: Setting up the symmetry group for a 
 hexagonal supercell.


 Subroutine GETGRP returns: Found  1 space group operations
 (whereof  1 operations were pure point group operations)
 out of a pool of 24 trial point group operations.


The dynamic configuration has the point symmetry C_1 .


Analysis of constrained symmetry for selective dynamics:
=====================================================================
 Subroutine PRICEL returns:
 Original cell was already a primitive cell.
 

 Routine SETGRP: Setting up the symmetry group for a 
 hexagonal supercell.


 Subroutine GETGRP returns: Found  1 space group operations
 (whereof  1 operations were pure point group operations)
 out of a pool of 24 trial point group operations.


The constrained configuration has the point symmetry C_1 .


 Subroutine INISYM returns: Found  1 space group operations
 (whereof  1 operations are pure point group operations),
 and found     1 'primitive' translations


----------------------------------------------------------------------------------------

                                     Primitive cell                                     

  volume of cell :    1670.1218

  direct lattice vectors                    reciprocal lattice vectors
     8.791366577  0.000000000  0.000000000     0.113747958 -0.065672414  0.000000000
     4.395683289  7.613546790  0.000000000     0.000000000  0.131344829  0.000000000
     0.000000000  0.000000000 24.951963562     0.000000000  0.000000000  0.040077006

  length of vectors
     8.791366577  8.791366577 24.951963562     0.131344829  0.131344829  0.040077006

  position of ions in fractional coordinates (direct lattice)
     0.000000000  0.000000000  0.211694287
     0.333333313  0.000000000  0.211694287
     0.666666627  0.000000000  0.211694287
     0.000000000  0.333333343  0.211694287
     0.333333313  0.333333343  0.211694287
     0.666666687  0.333333343  0.211694287
     0.000000000  0.666666687  0.211694287
     0.333333313  0.666666687  0.211694287
     0.666666627  0.666666687  0.211694287
     0.111111104  0.111111112  0.307586829
     0.444444448  0.111111112  0.307586829
     0.777777791  0.111111112  0.307586829
     0.111111097  0.444444448  0.307586829
     0.444444418  0.444444448  0.307586829
     0.777777791  0.444444448  0.307586829
     0.111111104  0.777777791  0.307586829
     0.444444448  0.777777791  0.307586829
     0.777777791  0.777777791  0.307586829
     0.888767793  0.222464430  0.403110932
     0.222890716  0.222890731  0.402336511
     0.554218509  0.222890731  0.402336511
     0.888473127  0.555763466  0.402942203
     0.222890731  0.554218569  0.402336511
     0.555763466  0.555763466  0.402942203
     0.888767793  0.888767793  0.403110932
     0.222464400  0.888767793  0.403110932
     0.555763406  0.888473127  0.402942203
     0.000000000  0.000000000  0.498013995
     0.333374766  0.007169798  0.498814244
     0.659455376  0.007169798  0.498814244
     0.007169798  0.333374796  0.498814244
     0.659455436  0.333374796  0.498814244
     0.007169798  0.659455436  0.498814244
     0.333374766  0.659455436  0.498814244
     0.666666627  0.666666687  0.498119522
     0.333333313  0.333333343  0.488414136
     0.276125821  0.268077892  0.583483327
     0.455412064  0.267880573  0.583512454
     0.330661866  0.338298357  0.573939967

  ion indices of the primitive-cell ions
   primitive index   ion index
                 1           1
                 2           2
                 3           3
                 4           4
                 5           5
                 6           6
                 7           7
                 8           8
                 9           9
                10          10
                11          11
                12          12
                13          13
                14          14
                15          15
                16          16
                17          17
                18          18
                19          19
                20          20
                21          21
                22          22
                23          23
                24          24
                25          25
                26          26
                27          27
                28          28
                29          29
                30          30
                31          31
                32          32
                33          33
                34          34
                35          35
                36          36
                37          37
                38          38
                39          39

----------------------------------------------------------------------------------------

 
 
 KPOINTS: Automatic mesh                          

Automatic generation of k-mesh.
 Grid dimensions read from file:
 generate k-points for:    8    8    1

 Generating k-lattice:

  Cartesian coordinates                     Fractional coordinates (reciprocal lattice)
     0.014218495 -0.008209052  0.000000000     0.125000000  0.000000000  0.000000000
     0.000000000  0.016418104  0.000000000     0.000000000  0.125000000  0.000000000
     0.000000000  0.000000000  0.040077006     0.000000000  0.000000000  1.000000000

  Length of vectors
     0.016418104  0.016418104  0.040077006

  Shift w.r.t. Gamma in fractional coordinates (k-lattice)
     0.000000000  0.000000000  0.000000000

 TETIRR: Found    192 inequivalent tetrahedra from      384
 
 Subroutine IBZKPT returns following result:
 ===========================================
 
 Found     34 irreducible k-points:
 
 Following reciprocal coordinates:
            Coordinates               Weight
  0.000000  0.000000  0.000000      1.000000
  0.125000  0.000000  0.000000      2.000000
  0.125000  0.125000  0.000000      2.000000
  0.000000  0.125000  0.000000      2.000000
  0.250000  0.000000  0.000000      2.000000
  0.250000  0.250000  0.000000      2.000000
  0.000000  0.250000  0.000000      2.000000
  0.375000  0.000000  0.000000      2.000000
  0.375000  0.375000  0.000000      2.000000
  0.000000  0.375000  0.000000      2.000000
  0.500000  0.000000  0.000000      1.000000
  0.500000  0.500000  0.000000      1.000000
  0.000000  0.500000  0.000000      1.000000
  0.250000  0.125000  0.000000      2.000000
  0.125000  0.250000  0.000000      2.000000
 -0.125000  0.125000  0.000000      2.000000
  0.375000  0.125000  0.000000      2.000000
  0.250000  0.375000  0.000000      2.000000
 -0.125000  0.250000  0.000000      2.000000
  0.250000 -0.125000  0.000000      2.000000
 -0.125000 -0.375000  0.000000      2.000000
 -0.375000 -0.250000  0.000000      2.000000
  0.500000  0.125000  0.000000      2.000000
  0.375000  0.500000  0.000000      2.000000
 -0.125000  0.375000  0.000000      2.000000
  0.375000 -0.125000  0.000000      2.000000
 -0.125000  0.500000  0.000000      2.000000
  0.500000 -0.375000  0.000000      2.000000
  0.500000  0.250000  0.000000      2.000000
  0.250000  0.500000  0.000000      2.000000
 -0.250000  0.250000  0.000000      2.000000
 -0.375000  0.250000  0.000000      2.000000
  0.375000 -0.375000  0.000000      2.000000
 -0.250000  0.375000  0.000000      2.000000
 
 Following cartesian coordinates:
            Coordinates               Weight
  0.000000  0.000000  0.000000      1.000000
  0.014218 -0.008209  0.000000      2.000000
  0.014218  0.008209  0.000000      2.000000
  0.000000  0.016418  0.000000      2.000000
  0.028437 -0.016418  0.000000      2.000000
  0.028437  0.016418  0.000000      2.000000
  0.000000  0.032836  0.000000      2.000000
  0.042655 -0.024627  0.000000      2.000000
  0.042655  0.024627  0.000000      2.000000
  0.000000  0.049254  0.000000      2.000000
  0.056874 -0.032836  0.000000      1.000000
  0.056874  0.032836  0.000000      1.000000
  0.000000  0.065672  0.000000      1.000000
  0.028437 -0.000000  0.000000      2.000000
  0.014218  0.024627  0.000000      2.000000
 -0.014218  0.024627  0.000000      2.000000
  0.042655 -0.008209  0.000000      2.000000
  0.028437  0.032836  0.000000      2.000000
 -0.014218  0.041045  0.000000      2.000000
  0.028437 -0.032836  0.000000      2.000000
 -0.014218 -0.041045  0.000000      2.000000
 -0.042655 -0.008209  0.000000      2.000000
  0.056874 -0.016418  0.000000      2.000000
  0.042655  0.041045  0.000000      2.000000
 -0.014218  0.057463  0.000000      2.000000
  0.042655 -0.041045  0.000000      2.000000
 -0.014218  0.073881  0.000000      2.000000
  0.056874 -0.082091  0.000000      2.000000
  0.056874 -0.000000  0.000000      2.000000
  0.028437  0.049254  0.000000      2.000000
 -0.028437  0.049254  0.000000      2.000000
 -0.042655  0.057463  0.000000      2.000000
  0.042655 -0.073881  0.000000      2.000000
 -0.028437  0.065672  0.000000      2.000000
 


--------------------------------------------------------------------------------------------------------




 Dimension of arrays:
   k-points           NKPTS =     34   k-points in BZ     NKDIM =     34   number of bands    NBANDS=    252
   number of dos      NEDOS =    301   number of ions     NIONS =     39
   non local maximal  LDIM  =      6   non local SUM 2l+1 LMDIM =     18
   total plane-waves  NPLWV = 322560
   max r-space proj   IRMAX =   2422   max aug-charges    IRDMAX=  10065
   dimension x,y,z NGX =    48 NGY =   48 NGZ =  140
   dimension x,y,z NGXF=    96 NGYF=   96 NGZF=  280
   support grid    NGXF=    96 NGYF=   96 NGZF=  280
   ions per type =              35   1   2   1
   NGX,Y,Z   is equivalent  to a cutoff of   9.08,  9.08,  9.33 a.u.
   NGXF,Y,Z  is equivalent  to a cutoff of  18.15, 18.15, 18.66 a.u.

 SYSTEM =  unknown system                          
 POSCAR =  Ag-Cr-H2O                               

 Startparameter for this run:
   NWRITE =      2    write-flag & timer
   PREC   = normal    normal or accurate (medium, high low for compatibility)
   ISTART =      0    job   : 0-new  1-cont  2-samecut
   ICHARG =     11    charge: 1-file 2-atom 10-const
   ISPIN  =      1    spin polarized calculation?
   LNONCOLLINEAR =      F non collinear calculations
   LSORBIT =      F    spin-orbit coupling
   INIWAV =      1    electr: 0-lowe 1-rand  2-diag
   LASPH  =      F    aspherical Exc in radial PAW
   METAGGA=      F    non-selfconsistent MetaGGA calc.

 Electronic Relaxation 1
   ENCUT  =  500.0 eV  36.75 Ry    6.06 a.u.  16.03 16.03 45.49*2*pi/ulx,y,z
   ENINI  =  500.0     initial cutoff
   ENAUG  =  605.4 eV  augmentation charge cutoff
   NELM   =    150;   NELMIN=  2; NELMDL= -5     # of ELM steps 
   EDIFF  = 0.1E-04   stopping-criterion for ELM
   LREAL  =      T    real-space projection
   NLSPLINE    = F    spline interpolate recip. space projectors
   LCOMPAT=      F    compatible to vasp.4.4
   GGA_COMPAT  = T    GGA compatible to vasp.4.4-vasp.4.6
   LMAXPAW     = -100 max onsite density
   LMAXMIX     =    2 max onsite mixed and CHGCAR
   VOSKOWN=      0    Vosko Wilk Nusair interpolation
   ROPT   =   -0.00050  -0.00050  -0.00050  -0.00050
 Ionic relaxation
   EDIFFG = -.1E-01   stopping-criterion for IOM
   NSW    =      0    number of steps for IOM
   NBLOCK =      1;   KBLOCK =      1    inner block; outer block 
   IBRION =     -1    ionic relax: 0-MD 1-quasi-New 2-CG
   NFREE  =      1    steps in history (QN), initial steepest desc. (CG)
   ISIF   =      2    stress and relaxation
   IWAVPR =     10    prediction:  0-non 1-charg 2-wave 3-comb
   ISYM   =      2    0-nonsym 1-usesym 2-fastsym
   LCORR  =      T    Harris-Foulkes like correction to forces

   POTIM  = 0.5000    time-step for ionic-motion
   TEIN   =    0.0    initial temperature
   TEBEG  =    0.0;   TEEND  =   0.0 temperature during run
   SMASS  =  -3.00    Nose mass-parameter (am)
   estimated Nose-frequenzy (Omega)   =  0.10E-29 period in steps = 0.13E+47 mass=  -0.177E-26a.u.
   SCALEE = 1.0000    scale energy and forces
   NPACO  =    256;   APACO  = 16.0  distance and # of slots for P.C.
   PSTRESS=    0.0 pullay stress

  Mass of Ions in am
   POMASS = 107.87 52.00  1.00 16.00
  Ionic Valenz
   ZVAL   =  11.00  6.00  1.00  6.00
  Atomic Wigner-Seitz radii
   RWIGS  =  -1.00 -1.00 -1.00 -1.00
  virtual crystal weights 
   VCA    =   1.00  1.00  1.00  1.00
   NELECT =     399.0000    total number of electrons
   NUPDOWN=      -1.0000    fix difference up-down

 DOS related values:
   EMIN   =  10.00;   EMAX   =-10.00  energy-range for DOS
   EFERMI =   0.00
   ISMEAR =    -5;   SIGMA  =   0.10  broadening in eV -4-tet -1-fermi 0-gaus

 Electronic relaxation 2 (details)
   IALGO  =     68    algorithm
   LDIAG  =      T    sub-space diagonalisation (order eigenvalues)
   LSUBROT=      F    optimize rotation matrix (better conditioning)
   TURBO    =      0    0=normal 1=particle mesh
   IRESTART =      0    0=no restart 2=restart with 2 vectors
   NREBOOT  =      0    no. of reboots
   NMIN     =      0    reboot dimension
   EREF     =   0.00    reference energy to select bands
   IMIX   =      4    mixing-type and parameters
     AMIX     =   0.40;   BMIX     =  1.00
     AMIX_MAG =   1.60;   BMIX_MAG =  1.00
     AMIN     =   0.10
     WC   =   100.;   INIMIX=   1;  MIXPRE=   1;  MAXMIX= -45

 Intra band minimization:
   WEIMIN = 0.0000     energy-eigenvalue tresh-hold
   EBREAK =  0.99E-08  absolut break condition
   DEPER  =   0.30     relativ break condition  

   TIME   =   0.40     timestep for ELM

  volume/ion in A,a.u.               =      42.82       288.99
  Fermi-wavevector in a.u.,A,eV,Ry     =   1.015819  1.919620 14.039697  1.031889
  Thomas-Fermi vector in A             =   2.149127
 
 Write flags
   LWAVE        =      F    write WAVECAR
   LDOWNSAMPLE  =      F    k-point downsampling of WAVECAR
   LCHARG       =      F    write CHGCAR
   LVTOT        =      F    write LOCPOT, total local potential
   LVHAR        =      F    write LOCPOT, Hartree potential only
   LELF         =      F    write electronic localiz. function (ELF)
   LORBIT       =     10    0 simple, 1 ext, 2 COOP (PROOUT), +10 PAW based schemes


 Dipole corrections
   LMONO  =      F    monopole corrections only (constant potential shift)
   LDIPOL =      F    correct potential (dipole corrections)
   IDIPOL =      0    1-x, 2-y, 3-z, 4-all directions 
   EPSILON=  1.0000000 bulk dielectric constant

 Exchange correlation treatment:
   GGA     =    --    GGA type
   LEXCH   =     8    internal setting for exchange type
   VOSKOWN=      0    Vosko Wilk Nusair interpolation
   LHFCALC =     F    Hartree Fock is set to
   LHFONE  =     F    Hartree Fock one center treatment
   AEXX    =    0.0000 exact exchange contribution

 Linear response parameters
   LEPSILON=     F    determine dielectric tensor
   LRPA    =     F    only Hartree local field effects (RPA)
   LNABLA  =     F    use nabla operator in PAW spheres
   LVEL    =     F    velocity operator in full k-point grid
   LINTERFAST=   F  fast interpolation
   KINTER  =     0    interpolate to denser k-point grid
   CSHIFT  =0.1000    complex shift for real part using Kramers Kronig
   OMEGAMAX=  -1.0    maximum frequency
   DEG_THRESHOLD= 0.2000000E-02 threshold for treating states as degnerate
   RTIME   =   -0.100 relaxation time in fs
  (WPLASMAI=    0.000 imaginary part of plasma frequency in eV, 0.658/RTIME)
   DFIELD  = 0.0000000 0.0000000 0.0000000 field for delta impulse in time
 
 Orbital magnetization related:
   ORBITALMAG=     F  switch on orbital magnetization
   LCHIMAG   =     F  perturbation theory with respect to B field
   DQ        =  0.001000  dq finite difference perturbation B field
   LLRAUG    =     F  two centre corrections for induced B field



--------------------------------------------------------------------------------------------------------


 Static calculation
 charge density and potential remain constant during run
 non-spin polarized calculation
 RMM-DIIS sequential band-by-band and
  variant of blocked Davidson during initial phase
 perform sub-space diagonalisation
    before iterative eigenvector-optimisation
 no mixing
 using additional bands           52
 real space projection scheme for non local part
 use partial core corrections
 calculate Harris-corrections to forces 
   (improved forces if not selfconsistent)
 use gradient corrections 
 WARNING: stress and forces are not correct
  (second derivative of E(xc) not defined)
 use of overlap-Matrix (Vanderbilt PP)
 Fermi weights with tetrahedron method with Bloechl corrections


--------------------------------------------------------------------------------------------------------


  energy-cutoff  :      500.00
  volume of cell :     1670.12
      direct lattice vectors                 reciprocal lattice vectors
     8.791366577  0.000000000  0.000000000     0.113747958 -0.065672414  0.000000000
     4.395683289  7.613546790  0.000000000     0.000000000  0.131344829  0.000000000
     0.000000000  0.000000000 24.951963562     0.000000000  0.000000000  0.040077006

  length of vectors
     8.791366577  8.791366577 24.951963562     0.131344829  0.131344829  0.040077006


 
 k-points in units of 2pi/SCALE and weight: Automatic mesh                          
   0.00000000  0.00000000  0.00000000       0.016
   0.01421849 -0.00820905  0.00000000       0.031
   0.01421849  0.00820905  0.00000000       0.031
   0.00000000  0.01641810  0.00000000       0.031
   0.02843699 -0.01641810  0.00000000       0.031
   0.02843699  0.01641810  0.00000000       0.031
   0.00000000  0.03283621  0.00000000       0.031
   0.04265548 -0.02462716  0.00000000       0.031
   0.04265548  0.02462716  0.00000000       0.031
   0.00000000  0.04925431  0.00000000       0.031
   0.05687398 -0.03283621  0.00000000       0.016
   0.05687398  0.03283621  0.00000000       0.016
   0.00000000  0.06567241  0.00000000       0.016
   0.02843699 -0.00000000  0.00000000       0.031
   0.01421849  0.02462716  0.00000000       0.031
  -0.01421849  0.02462716  0.00000000       0.031
   0.04265548 -0.00820905  0.00000000       0.031
   0.02843699  0.03283621  0.00000000       0.031
  -0.01421849  0.04104526  0.00000000       0.031
   0.02843699 -0.03283621  0.00000000       0.031
  -0.01421849 -0.04104526  0.00000000       0.031
  -0.04265548 -0.00820905  0.00000000       0.031
   0.05687398 -0.01641810  0.00000000       0.031
   0.04265548  0.04104526  0.00000000       0.031
  -0.01421849  0.05746336  0.00000000       0.031
   0.04265548 -0.04104526  0.00000000       0.031
  -0.01421849  0.07388147  0.00000000       0.031
   0.05687398 -0.08209052  0.00000000       0.031
   0.05687398 -0.00000000  0.00000000       0.031
   0.02843699  0.04925431  0.00000000       0.031
  -0.02843699  0.04925431  0.00000000       0.031
  -0.04265548  0.05746336  0.00000000       0.031
   0.04265548 -0.07388147  0.00000000       0.031
  -0.02843699  0.06567241  0.00000000       0.031
 
 k-points in reciprocal lattice and weights: Automatic mesh                          
   0.00000000  0.00000000  0.00000000       0.016
   0.12500000  0.00000000  0.00000000       0.031
   0.12500000  0.12500000  0.00000000       0.031
   0.00000000  0.12500000  0.00000000       0.031
   0.25000000  0.00000000  0.00000000       0.031
   0.25000000  0.25000000  0.00000000       0.031
   0.00000000  0.25000000  0.00000000       0.031
   0.37500000  0.00000000  0.00000000       0.031
   0.37500000  0.37500000  0.00000000       0.031
   0.00000000  0.37500000  0.00000000       0.031
   0.50000000  0.00000000  0.00000000       0.016
   0.50000000  0.50000000  0.00000000       0.016
   0.00000000  0.50000000  0.00000000       0.016
   0.25000000  0.12500000  0.00000000       0.031
   0.12500000  0.25000000  0.00000000       0.031
  -0.12500000  0.12500000  0.00000000       0.031
   0.37500000  0.12500000  0.00000000       0.031
   0.25000000  0.37500000  0.00000000       0.031
  -0.12500000  0.25000000  0.00000000       0.031
   0.25000000 -0.12500000  0.00000000       0.031
  -0.12500000 -0.37500000  0.00000000       0.031
  -0.37500000 -0.25000000  0.00000000       0.031
   0.50000000  0.12500000  0.00000000       0.031
   0.37500000  0.50000000  0.00000000       0.031
  -0.12500000  0.37500000  0.00000000       0.031
   0.37500000 -0.12500000  0.00000000       0.031
  -0.12500000  0.50000000  0.00000000       0.031
   0.50000000 -0.37500000  0.00000000       0.031
   0.50000000  0.25000000  0.00000000       0.031
   0.25000000  0.50000000  0.00000000       0.031
  -0.25000000  0.25000000  0.00000000       0.031
  -0.37500000  0.25000000  0.00000000       0.031
   0.37500000 -0.37500000  0.00000000       0.031
  -0.25000000  0.37500000  0.00000000       0.031
 
 position of ions in fractional coordinates (direct lattice) 
   0.00000000  0.00000000  0.21169429
   0.33333331  0.00000000  0.21169429
   0.66666663  0.00000000  0.21169429
   0.00000000  0.33333334  0.21169429
   0.33333331  0.33333334  0.21169429
   0.66666669  0.33333334  0.21169429
   0.00000000  0.66666669  0.21169429
   0.33333331  0.66666669  0.21169429
   0.66666663  0.66666669  0.21169429
   0.11111110  0.11111111  0.30758683
   0.44444445  0.11111111  0.30758683
   0.77777779  0.11111111  0.30758683
   0.11111110  0.44444445  0.30758683
   0.44444442  0.44444445  0.30758683
   0.77777779  0.44444445  0.30758683
   0.11111110  0.77777779  0.30758683
   0.44444445  0.77777779  0.30758683
   0.77777779  0.77777779  0.30758683
   0.88876779  0.22246443  0.40311093
   0.22289072  0.22289073  0.40233651
   0.55421851  0.22289073  0.40233651
   0.88847313  0.55576347  0.40294220
   0.22289073  0.55421857  0.40233651
   0.55576347  0.55576347  0.40294220
   0.88876779  0.88876779  0.40311093
   0.22246440  0.88876779  0.40311093
   0.55576341  0.88847313  0.40294220
   0.00000000  0.00000000  0.49801400
   0.33337477  0.00716980  0.49881424
   0.65945538  0.00716980  0.49881424
   0.00716980  0.33337480  0.49881424
   0.65945544  0.33337480  0.49881424
   0.00716980  0.65945544  0.49881424
   0.33337477  0.65945544  0.49881424
   0.66666663  0.66666669  0.49811952
   0.33333331  0.33333334  0.48841414
   0.27612582  0.26807789  0.58348333
   0.45541206  0.26788057  0.58351245
   0.33066187  0.33829836  0.57393997
 
 position of ions in cartesian coordinates  (Angst):
   0.00000000  0.00000000  5.28218814
   2.93045535  0.00000000  5.28218814
   5.86091070  0.00000000  5.28218814
   1.46522781  2.53784900  5.28218814
   4.39568315  2.53784900  5.28218814
   7.32613904  2.53784900  5.28218814
   2.93045562  5.07569801  5.28218814
   5.86091096  5.07569801  5.28218814
   8.79136632  5.07569801  5.28218814
   1.46522770  0.84594965  7.67489535
   4.39568332  0.84594965  7.67489535
   7.32613893  0.84594965  7.67489535
   2.93045542  3.38379860  7.67489535
   5.86091083  3.38379860  7.67489535
   8.79136671  3.38379860  7.67489535
   4.39568328  5.92164760  7.67489535
   7.32613890  5.92164760  7.67489535
  10.25659451  5.92164760  7.67489535
   8.79136665  1.69374335 10.05840929
   2.93927105  1.69698901 10.03908597
   5.85209513  1.69698901 10.03908597
  10.25385314  4.23133116 10.05419916
   4.39568342  4.21956900 10.03908597
   7.32888055  4.23133116 10.05419916
  11.72022521  6.76667518 10.05840929
   5.86250783  6.76667518 10.05840929
   8.79136631  6.76443172 10.05419916
   0.00000000  0.00000000 12.42642706
   2.96233593  0.05458759 12.44639484
   5.82903012  0.05458759 12.44639484
   1.52844234  2.53816460 12.44639484
   7.26292450  2.53816460 12.44639484
   2.96178957  5.02079482 12.44639484
   5.82957701  5.02079482 12.44639484
   8.79136632  5.07569801 12.42906015
   4.39568315  2.53784900 12.18689171
   3.60590882  2.04102357 14.55905472
   5.18121256  2.03952128 14.55978150
   4.39402211  2.57565037 14.32092914
 


--------------------------------------------------------------------------------------------------------


 k-point   1 :   0.0000 0.0000 0.0000  plane waves:   42349
 k-point   2 :   0.1250 0.0000 0.0000  plane waves:   42346
 k-point   3 :   0.1250 0.1250 0.0000  plane waves:   42346
 k-point   4 :   0.0000 0.1250 0.0000  plane waves:   42346
 k-point   5 :   0.2500 0.0000 0.0000  plane waves:   42376
 k-point   6 :   0.2500 0.2500 0.0000  plane waves:   42376
 k-point   7 :   0.0000 0.2500 0.0000  plane waves:   42376
 k-point   8 :   0.3750 0.0000 0.0000  plane waves:   42380
 k-point   9 :   0.3750 0.3750 0.0000  plane waves:   42380
 k-point  10 :   0.0000 0.3750 0.0000  plane waves:   42380
 k-point  11 :   0.5000 0.0000 0.0000  plane waves:   42416
 k-point  12 :   0.5000 0.5000 0.0000  plane waves:   42416
 k-point  13 :   0.0000 0.5000 0.0000  plane waves:   42416
 k-point  14 :   0.2500 0.1250 0.0000  plane waves:   42390
 k-point  15 :   0.1250 0.2500 0.0000  plane waves:   42390
 k-point  16 :  -0.1250 0.1250 0.0000  plane waves:   42390
 k-point  17 :   0.3750 0.1250 0.0000  plane waves:   42414
 k-point  18 :   0.2500 0.3750 0.0000  plane waves:   42414
 k-point  19 :  -0.1250 0.2500 0.0000  plane waves:   42414
 k-point  20 :   0.2500-0.1250 0.0000  plane waves:   42414
 k-point  21 :  -0.1250-0.3750 0.0000  plane waves:   42414
 k-point  22 :  -0.3750-0.2500 0.0000  plane waves:   42414
 k-point  23 :   0.5000 0.1250 0.0000  plane waves:   42428
 k-point  24 :   0.3750 0.5000 0.0000  plane waves:   42428
 k-point  25 :  -0.1250 0.3750 0.0000  plane waves:   42428
 k-point  26 :   0.3750-0.1250 0.0000  plane waves:   42428
 k-point  27 :  -0.1250 0.5000 0.0000  plane waves:   42428
 k-point  28 :   0.5000-0.3750 0.0000  plane waves:   42428
 k-point  29 :   0.5000 0.2500 0.0000  plane waves:   42438
 k-point  30 :   0.2500 0.5000 0.0000  plane waves:   42438
 k-point  31 :  -0.2500 0.2500 0.0000  plane waves:   42438
 k-point  32 :  -0.3750 0.2500 0.0000  plane waves:   42416
 k-point  33 :   0.3750-0.3750 0.0000  plane waves:   42416
 k-point  34 :  -0.2500 0.3750 0.0000  plane waves:   42416

 maximum and minimum number of plane-waves per node :     42438    42346

 maximum number of plane-waves:     42438
 maximum index in each direction: 
   IXMAX=   16   IYMAX=   16   IZMAX=   45
   IXMIN=  -16   IYMIN=  -16   IZMIN=  -45


 serial   3D FFT for wavefunctions
 parallel 3D FFT for charge:
    minimum data exchange during FFTs selected (reduces bandwidth)


 total amount of memory used by VASP MPI-rank0   282166. kBytes
=======================================================================

   base      :      30000. kBytes
   nonlr-proj:      14914. kBytes
   fftplans  :       4808. kBytes
   grid      :      20723. kBytes
   one-center:        606. kBytes
   wavefun   :     211115. kBytes
 
     INWAV:  cpu time    0.0000: real time    0.0000
 initial charge density was supplied:
 number of electron     399.0000031 magnetization 
 keeping initial charge density in first step


--------------------------------------------------------------------------------------------------------


 Maximum index for non-local projection operator         2320
 Maximum index for augmentation-charges          701 (set IRDMAX)


--------------------------------------------------------------------------------------------------------


 First call to EWALD:  gamma=   0.149
 Maximum number of real-space cells 4x 4x 2
 Maximum number of reciprocal cells 2x 2x 5

    FEWALD:  cpu time    0.0013: real time    0.0013


--------------------------------------- Iteration      1(   1)  ---------------------------------------


    POTLOK:  cpu time    0.0493: real time    0.0497
    SETDIJ:  cpu time    0.0046: real time    0.0047
     EDDAV:  cpu time   26.5764: real time   26.5791
 BZINTS: Fermi energy:    9.201647;  399.000000 electrons
         Band energy: 0.106321E+04;  BLOECHL correction:   -0.017273
       DOS:  cpu time    0.0593: real time    0.0594
    --------------------------------------------
      LOOP:  cpu time   26.6896: real time   26.6929

 eigenvalue-minimisations  : 17136
 total energy-change (2. order) : 0.2445879E+04  (-0.1790049E+05)
 number of electron     399.0000031 magnetization 
 augmentation part      399.0000031 magnetization 

 Free energy of the ion-electron system (eV)
  ---------------------------------------------------
  alpha Z        PSCENC =       669.72160418
  Ewald energy   TEWEN  =    138263.86121240
  -Hartree energ DENC   =   -175767.07488557
  -exchange      EXHF   =         0.00000000
  -V(xc)+E(xc)   XCENC  =      -375.23809002
  PAW double counting   =     39163.58183471   -37610.57955495
  entropy T*S    EENTRO =         0.00000000
  eigenvalues    EBANDS =      1063.21203259
  atomic energy  EATOM  =     37038.39481224
  Solvation  Ediel_sol  =         0.00000000
  ---------------------------------------------------
  free energy    TOTEN  =      2445.87896559 eV

  energy without entropy =     2445.87896559  energy(sigma->0) =     2445.87896559


--------------------------------------------------------------------------------------------------------




--------------------------------------- Iteration      1(   2)  ---------------------------------------


     EDDAV:  cpu time   27.2911: real time   27.2921
 BZINTS: Fermi energy:    1.190776;  399.000000 electrons
         Band energy:-0.138435E+04;  BLOECHL correction:   -0.027614
       DOS:  cpu time    0.0560: real time    0.0560
    --------------------------------------------
      LOOP:  cpu time   27.3471: real time   27.3481

 eigenvalue-minimisations  : 17724
 total energy-change (2. order) :-0.2447566E+04  (-0.2316972E+04)
 number of electron     399.0000031 magnetization 
 augmentation part      399.0000031 magnetization 

 Free energy of the ion-electron system (eV)
  ---------------------------------------------------
  alpha Z        PSCENC =       669.72160418
  Ewald energy   TEWEN  =    138263.86121240
  -Hartree energ DENC   =   -175767.07488557
  -exchange      EXHF   =         0.00000000
  -V(xc)+E(xc)   XCENC  =      -375.23809002
  PAW double counting   =     39163.58183471   -37610.57955495
  entropy T*S    EENTRO =         0.00000000
  eigenvalues    EBANDS =     -1384.35375513
  atomic energy  EATOM  =     37038.39481224
  Solvation  Ediel_sol  =         0.00000000
  ---------------------------------------------------
  free energy    TOTEN  =        -1.68682214 eV

  energy without entropy =       -1.68682214  energy(sigma->0) =       -1.68682214


--------------------------------------------------------------------------------------------------------




--------------------------------------- Iteration      1(   3)  ---------------------------------------


     EDDAV:  cpu time   30.7385: real time   30.7397
 BZINTS: Fermi energy:    0.489678;  399.000000 electrons
         Band energy:-0.149062E+04;  BLOECHL correction:   -0.014084
       DOS:  cpu time    0.0486: real time    0.0486
    --------------------------------------------
      LOOP:  cpu time   30.7872: real time   30.7884

 eigenvalue-minimisations  : 20468
 total energy-change (2. order) :-0.1062660E+03  (-0.1037554E+03)
 number of electron     399.0000031 magnetization 
 augmentation part      399.0000031 magnetization 

 Free energy of the ion-electron system (eV)
  ---------------------------------------------------
  alpha Z        PSCENC =       669.72160418
  Ewald energy   TEWEN  =    138263.86121240
  -Hartree energ DENC   =   -175767.07488557
  -exchange      EXHF   =         0.00000000
  -V(xc)+E(xc)   XCENC  =      -375.23809002
  PAW double counting   =     39163.58183471   -37610.57955495
  entropy T*S    EENTRO =         0.00000000
  eigenvalues    EBANDS =     -1490.61971233
  atomic energy  EATOM  =     37038.39481224
  Solvation  Ediel_sol  =         0.00000000
  ---------------------------------------------------
  free energy    TOTEN  =      -107.95277934 eV

  energy without entropy =     -107.95277934  energy(sigma->0) =     -107.95277934


--------------------------------------------------------------------------------------------------------




--------------------------------------- Iteration      1(   4)  ---------------------------------------


     EDDAV:  cpu time   28.4884: real time   28.4895
 BZINTS: Fermi energy:    0.473015;  399.000000 electrons
         Band energy:-0.149251E+04;  BLOECHL correction:   -0.013745
       DOS:  cpu time    0.0581: real time    0.0581
    --------------------------------------------
      LOOP:  cpu time   28.5465: real time   28.5476

 eigenvalue-minimisations  : 18676
 total energy-change (2. order) :-0.1892755E+01  (-0.1888195E+01)
 number of electron     399.0000031 magnetization 
 augmentation part      399.0000031 magnetization 

 Free energy of the ion-electron system (eV)
  ---------------------------------------------------
  alpha Z        PSCENC =       669.72160418
  Ewald energy   TEWEN  =    138263.86121240
  -Hartree energ DENC   =   -175767.07488557
  -exchange      EXHF   =         0.00000000
  -V(xc)+E(xc)   XCENC  =      -375.23809002
  PAW double counting   =     39163.58183471   -37610.57955495
  entropy T*S    EENTRO =         0.00000000
  eigenvalues    EBANDS =     -1492.51246756
  atomic energy  EATOM  =     37038.39481224
  Solvation  Ediel_sol  =         0.00000000
  ---------------------------------------------------
  free energy    TOTEN  =      -109.84553456 eV

  energy without entropy =     -109.84553456  energy(sigma->0) =     -109.84553456


--------------------------------------------------------------------------------------------------------




--------------------------------------- Iteration      1(   5)  ---------------------------------------


     EDDAV:  cpu time   30.4333: real time   30.4346
 BZINTS: Fermi energy:    0.472636;  399.000000 electrons
         Band energy:-0.149256E+04;  BLOECHL correction:   -0.013742
       DOS:  cpu time    0.0535: real time    0.0535
    --------------------------------------------
      LOOP:  cpu time   30.4868: real time   30.4881

 eigenvalue-minimisations  : 20244
 total energy-change (2. order) :-0.4809769E-01  (-0.4808779E-01)
 number of electron     399.0000031 magnetization 
 augmentation part      399.0000031 magnetization 

 Free energy of the ion-electron system (eV)
  ---------------------------------------------------
  alpha Z        PSCENC =       669.72160418
  Ewald energy   TEWEN  =    138263.86121240
  -Hartree energ DENC   =   -175767.07488557
  -exchange      EXHF   =         0.00000000
  -V(xc)+E(xc)   XCENC  =      -375.23809002
  PAW double counting   =     39163.58183471   -37610.57955495
  entropy T*S    EENTRO =         0.00000000
  eigenvalues    EBANDS =     -1492.56056525
  atomic energy  EATOM  =     37038.39481224
  Solvation  Ediel_sol  =         0.00000000
  ---------------------------------------------------
  free energy    TOTEN  =      -109.89363225 eV

  energy without entropy =     -109.89363225  energy(sigma->0) =     -109.89363225


--------------------------------------------------------------------------------------------------------




--------------------------------------- Iteration      1(   6)  ---------------------------------------


    EDDIAG:  cpu time    5.2568: real time    5.2603
  RMM-DIIS:  cpu time   15.1550: real time   15.1556
    ORTHCH:  cpu time    0.9814: real time    0.9814
 BZINTS: Fermi energy:    0.472626;  399.000000 electrons
         Band energy:-0.149256E+04;  BLOECHL correction:   -0.013741
       DOS:  cpu time    0.0585: real time    0.0585
    --------------------------------------------
      LOOP:  cpu time   21.4517: real time   21.4558

 eigenvalue-minimisations  : 17529
 total energy-change (2. order) :-0.2098180E-02  (-0.2098082E-02)
 number of electron     399.0000031 magnetization 
 augmentation part      399.0000031 magnetization 

 Free energy of the ion-electron system (eV)
  ---------------------------------------------------
  alpha Z        PSCENC =       669.72160418
  Ewald energy   TEWEN  =    138263.86121240
  -Hartree energ DENC   =   -175767.07488557
  -exchange      EXHF   =         0.00000000
  -V(xc)+E(xc)   XCENC  =      -375.23809002
  PAW double counting   =     39163.58183471   -37610.57955495
  entropy T*S    EENTRO =         0.00000000
  eigenvalues    EBANDS =     -1492.56266343
  atomic energy  EATOM  =     37038.39481224
  Solvation  Ediel_sol  =         0.00000000
  ---------------------------------------------------
  free energy    TOTEN  =      -109.89573043 eV

  energy without entropy =     -109.89573043  energy(sigma->0) =     -109.89573043


--------------------------------------------------------------------------------------------------------




--------------------------------------- Iteration      1(   7)  ---------------------------------------


    EDDIAG:  cpu time    5.2570: real time    5.2574
  RMM-DIIS:  cpu time   22.9594: real time   22.9602
    ORTHCH:  cpu time    0.9815: real time    0.9815
 BZINTS: Fermi energy:    0.472621;  399.000000 electrons
         Band energy:-0.149256E+04;  BLOECHL correction:   -0.013740
       DOS:  cpu time    0.0535: real time    0.0535
    --------------------------------------------
      LOOP:  cpu time   29.2514: real time   29.2527

 eigenvalue-minimisations  : 26194
 total energy-change (2. order) :-0.1040574E-02  (-0.1015294E-02)
 number of electron     399.0000031 magnetization 
 augmentation part      399.0000031 magnetization 

 Free energy of the ion-electron system (eV)
  ---------------------------------------------------
  alpha Z        PSCENC =       669.72160418
  Ewald energy   TEWEN  =    138263.86121240
  -Hartree energ DENC   =   -175767.07488557
  -exchange      EXHF   =         0.00000000
  -V(xc)+E(xc)   XCENC  =      -375.23809002
  PAW double counting   =     39163.58183471   -37610.57955495
  entropy T*S    EENTRO =         0.00000000
  eigenvalues    EBANDS =     -1492.56370400
  atomic energy  EATOM  =     37038.39481224
  Solvation  Ediel_sol  =         0.00000000
  ---------------------------------------------------
  free energy    TOTEN  =      -109.89677101 eV

  energy without entropy =     -109.89677101  energy(sigma->0) =     -109.89677101


--------------------------------------------------------------------------------------------------------




--------------------------------------- Iteration      1(   8)  ---------------------------------------


    EDDIAG:  cpu time    5.2548: real time    5.2553
  RMM-DIIS:  cpu time   20.3197: real time   20.3204
    ORTHCH:  cpu time    0.9807: real time    0.9808
 BZINTS: Fermi energy:    0.472621;  399.000000 electrons
         Band energy:-0.149256E+04;  BLOECHL correction:   -0.013740
       DOS:  cpu time    0.0573: real time    0.0574
    --------------------------------------------
      LOOP:  cpu time   26.6125: real time   26.6138

 eigenvalue-minimisations  : 22429
 total energy-change (2. order) :-0.8734540E-04  (-0.8762662E-04)
 number of electron     399.0000031 magnetization 
 augmentation part      399.0000031 magnetization 

 Free energy of the ion-electron system (eV)
  ---------------------------------------------------
  alpha Z        PSCENC =       669.72160418
  Ewald energy   TEWEN  =    138263.86121240
  -Hartree energ DENC   =   -175767.07488557
  -exchange      EXHF   =         0.00000000
  -V(xc)+E(xc)   XCENC  =      -375.23809002
  PAW double counting   =     39163.58183471   -37610.57955495
  entropy T*S    EENTRO =         0.00000000
  eigenvalues    EBANDS =     -1492.56379135
  atomic energy  EATOM  =     37038.39481224
  Solvation  Ediel_sol  =         0.00000000
  ---------------------------------------------------
  free energy    TOTEN  =      -109.89685835 eV

  energy without entropy =     -109.89685835  energy(sigma->0) =     -109.89685835


--------------------------------------------------------------------------------------------------------




--------------------------------------- Iteration      1(   9)  ---------------------------------------


    EDDIAG:  cpu time    5.2613: real time    5.2616
  RMM-DIIS:  cpu time   16.6796: real time   16.6802
    ORTHCH:  cpu time    0.9805: real time    0.9805
 BZINTS: Fermi energy:    0.472621;  399.000000 electrons
         Band energy:-0.149256E+04;  BLOECHL correction:   -0.013740
       DOS:  cpu time    0.0535: real time    0.0535
    --------------------------------------------
      LOOP:  cpu time   22.9749: real time   22.9758

 eigenvalue-minimisations  : 17058
 total energy-change (2. order) :-0.1590984E-04  (-0.1625778E-04)
 number of electron     399.0000031 magnetization 
 augmentation part      399.0000031 magnetization 

 Free energy of the ion-electron system (eV)
  ---------------------------------------------------
  alpha Z        PSCENC =       669.72160418
  Ewald energy   TEWEN  =    138263.86121240
  -Hartree energ DENC   =   -175767.07488557
  -exchange      EXHF   =         0.00000000
  -V(xc)+E(xc)   XCENC  =      -375.23809002
  PAW double counting   =     39163.58183471   -37610.57955495
  entropy T*S    EENTRO =         0.00000000
  eigenvalues    EBANDS =     -1492.56380726
  atomic energy  EATOM  =     37038.39481224
  Solvation  Ediel_sol  =         0.00000000
  ---------------------------------------------------
  free energy    TOTEN  =      -109.89687426 eV

  energy without entropy =     -109.89687426  energy(sigma->0) =     -109.89687426


--------------------------------------------------------------------------------------------------------




--------------------------------------- Iteration      1(  10)  ---------------------------------------


    EDDIAG:  cpu time    5.2552: real time    5.2555
  RMM-DIIS:  cpu time   11.7981: real time   11.7985
    ORTHCH:  cpu time    0.9816: real time    0.9816
 BZINTS: Fermi energy:    0.472621;  399.000000 electrons
         Band energy:-0.149256E+04;  BLOECHL correction:   -0.013740
       DOS:  cpu time    0.0585: real time    0.0585
    --------------------------------------------
      LOOP:  cpu time   18.0934: real time   18.0942

 eigenvalue-minimisations  : 10998
 total energy-change (2. order) :-0.1754379E-05  (-0.1806446E-05)
 number of electron     399.0000031 magnetization 
 augmentation part      399.0000031 magnetization 

 Free energy of the ion-electron system (eV)
  ---------------------------------------------------
  alpha Z        PSCENC =       669.72160418
  Ewald energy   TEWEN  =    138263.86121240
  -Hartree energ DENC   =   -175767.07488557
  -exchange      EXHF   =         0.00000000
  -V(xc)+E(xc)   XCENC  =      -375.23809002
  PAW double counting   =     39163.58183471   -37610.57955495
  entropy T*S    EENTRO =         0.00000000
  eigenvalues    EBANDS =     -1492.56380901
  atomic energy  EATOM  =     37038.39481224
  Solvation  Ediel_sol  =         0.00000000
  ---------------------------------------------------
  free energy    TOTEN  =      -109.89687602 eV

  energy without entropy =     -109.89687602  energy(sigma->0) =     -109.89687602


--------------------------------------------------------------------------------------------------------




 average (electrostatic) potential at core
  the test charge radii are     1.1249  1.1394  0.5201  0.7215
  (the norm of the test charge is              1.0000)
       1 -78.4392       2 -78.4176       3 -78.4175       4 -78.4179       5 -78.4111
       6 -78.4176       7 -78.4223       8 -78.4221       9 -78.4381      10 -78.6583
      11 -78.6305      12 -78.6581      13 -78.6328      14 -78.6327      15 -78.6477
      16 -78.6623      17 -78.6513      18 -78.6512      19 -78.6382      20 -78.7201
      21 -78.7202      22 -78.6285      23 -78.7252      24 -78.6286      25 -78.6399
      26 -78.6400      27 -78.6302      28 -78.4244      29 -78.4678      30 -78.4676
      31 -78.4553      32 -78.4548      33 -78.4224      34 -78.4223      35 -78.4044
      36 -48.4445      37 -41.2447      38 -41.2417      39 -77.8240
 
 
 
 E-fermi :   0.4726     XC(G=0):  -5.3860     alpha+bet : -5.0016

 Fermi energy:         0.4726208726

 k-point     1 :       0.0000    0.0000    0.0000
  band No.  band energies     occupation 
      1     -22.3639      2.00000
      2     -10.1483      2.00000
      3      -6.8962      2.00000
      4      -6.6360      2.00000
      5      -5.7899      2.00000
      6      -5.5143      2.00000
      7      -5.4130      2.00000
      8      -5.3734      2.00000
      9      -5.3711      2.00000
     10      -5.3704      2.00000
     11      -5.3676      2.00000
     12      -5.3671      2.00000
     13      -5.3486      2.00000
     14      -5.3479      2.00000
     15      -5.3316      2.00000
     16      -5.3315      2.00000
     17      -5.3274      2.00000
     18      -5.3187      2.00000
     19      -5.3184      2.00000
     20      -5.1808      2.00000
     21      -5.1668      2.00000
     22      -5.1616      2.00000
     23      -5.1614      2.00000
     24      -5.1567      2.00000
     25      -5.1560      2.00000
     26      -5.0982      2.00000
     27      -4.9916      2.00000
     28      -4.9768      2.00000
     29      -4.9760      2.00000
     30      -4.9439      2.00000
     31      -4.9428      2.00000
     32      -4.9403      2.00000
     33      -4.9399      2.00000
     34      -4.9344      2.00000
     35      -4.9204      2.00000
     36      -4.9202      2.00000
     37      -4.9100      2.00000
     38      -4.9097      2.00000
     39      -4.8365      2.00000
     40      -4.8174      2.00000
     41      -4.8151      2.00000
     42      -4.7233      2.00000
     43      -4.6983      2.00000
     44      -4.6973      2.00000
     45      -4.5949      2.00000
     46      -4.5948      2.00000
     47      -4.5798      2.00000
     48      -4.5792      2.00000
     49      -4.5781      2.00000
     50      -4.5633      2.00000
     51      -4.5595      2.00000
     52      -4.5591      2.00000
     53      -4.5256      2.00000
     54      -4.5240      2.00000
     55      -4.4225      2.00000
     56      -4.4182      2.00000
     57      -4.4005      2.00000
     58      -4.3954      2.00000
     59      -4.2029      2.00000
     60      -4.1963      2.00000
     61      -4.1943      2.00000
     62      -4.1913      2.00000
     63      -4.1862      2.00000
     64      -4.1839      2.00000
     65      -4.1660      2.00000
     66      -4.1545      2.00000
     67      -4.1544      2.00000
     68      -4.1236      2.00000
     69      -4.1235      2.00000
     70      -4.0360      2.00000
     71      -4.0327      2.00000
     72      -4.0306      2.00000
     73      -4.0238      2.00000
     74      -4.0227      2.00000
     75      -4.0137      2.00000
     76      -4.0118      2.00000
[...]
  0.000   0.000   0.000   0.000   0.000   0.000   0.000   0.000   0.000   0.000   1.000   0.000   0.000   0.000   0.000   0.000
  0.000   0.000   0.000   0.000   0.000   0.000   0.000   0.000   0.000   0.000   0.000   0.000   0.000   0.000   0.000   0.000
  0.000   0.000   0.000   0.000   0.000   0.000   0.000   0.000   0.000   0.000   0.000   0.000   0.000   0.000   0.000   0.000
  0.000   0.000   0.000   0.000   0.000   0.000   0.000   0.000   0.000   0.000   0.000   0.000   0.000   0.000   0.000   0.000
  0.000   0.000   0.000   0.000   0.000   0.000   0.000   0.000   0.000   0.000   0.000   0.000   0.000   0.000   0.000   0.000
  0.000   0.000   0.000   0.000   0.000   0.000   0.000   0.000   0.000   0.000   0.000   0.000   0.000   0.000   0.000   0.000
  0.000   0.000   0.000   0.000   0.000   0.000   0.000   0.000   0.000   0.000   0.000   0.000   0.000   0.000   0.000   0.000
  0.000   0.000   0.000   0.000   0.000   0.000   0.000   0.000   0.000   0.000   0.000   0.000   0.000   0.000   0.000   0.000


------------------------ aborting loop because EDIFF is reached ----------------------------------------





 total charge

# of ion       s       p       d       tot
------------------------------------------
    1        0.421   0.202   9.179   9.801
    2        0.417   0.204   9.178   9.799
    3        0.417   0.204   9.178   9.799
    4        0.417   0.204   9.178   9.799
    5        0.420   0.202   9.176   9.799
    6        0.417   0.204   9.178   9.799
    7        0.416   0.204   9.178   9.798
    8        0.416   0.204   9.178   9.798
    9        0.416   0.203   9.179   9.798
   10        0.410   0.269   9.164   9.842
   11        0.409   0.267   9.169   9.845
   12        0.410   0.269   9.164   9.842
   13        0.407   0.268   9.169   9.844
   14        0.407   0.268   9.169   9.844
   15        0.405   0.269   9.166   9.839
   16        0.409   0.269   9.163   9.841
   17        0.404   0.269   9.166   9.839
   18        0.404   0.269   9.166   9.839
   19        0.405   0.265   9.168   9.837
   20        0.436   0.299   9.139   9.874
   21        0.436   0.299   9.139   9.874
   22        0.396   0.274   9.167   9.837
   23        0.436   0.299   9.138   9.873
   24        0.396   0.274   9.167   9.837
   25        0.403   0.265   9.168   9.836
   26        0.403   0.265   9.168   9.836
   27        0.398   0.274   9.167   9.838
   28        0.414   0.201   9.174   9.788
   29        0.436   0.217   9.161   9.814
   30        0.436   0.217   9.161   9.814
   31        0.436   0.216   9.162   9.814
   32        0.436   0.216   9.162   9.814
   33        0.430   0.209   9.168   9.806
   34        0.430   0.209   9.168   9.806
   35        0.407   0.202   9.177   9.785
   36        0.367   0.336   4.144   4.847
   37        0.600   0.117   0.000   0.717
   38        0.600   0.117   0.000   0.717
   39        1.568   3.610   0.000   5.178
--------------------------------------------------
tot         17.691  12.626 324.990 355.307
 
    CHARGE:  cpu time    1.2101: real time    1.2103
    FORLOC:  cpu time    0.0124: real time    0.0124
    FORNL :  cpu time    5.3947: real time    5.3951
    STRESS:  cpu time   16.2018: real time   16.2026
    FORCOR:  cpu time    0.0586: real time    0.0587
    FORHAR:  cpu time    0.0197: real time    0.0198
    OFIELD:  cpu time    0.0003: real time    0.0003

  FORCE on cell =-STRESS in cart. coord.  units (eV):
  Direction    XX          YY          ZZ          XY          YZ          ZX
  --------------------------------------------------------------------------------------
  Alpha Z   669.72160   669.72160   669.72160
  Ewald  160889.32868160821.84005************    -0.05041   -16.69586     0.11170
  Hartree170855.63358170842.46660************    -0.01646     0.58771     0.10376
  E(xc)   -2090.37788 -2090.46129 -2096.06363    -0.00029    -0.00633    -0.00017
  Local  ************************342890.77854     0.05984     9.22021    -0.21726
  n-local  -355.66754  -356.19091  -357.77952    -0.00095     0.06861    -0.00389
  augment  3253.46951  3254.06206  3265.48031     0.00032     0.24465     0.00099
  Kinetic  4948.05821  4965.83462  4999.59405     0.01415     6.48051     0.00158
  Fock        0.00000     0.00000     0.00000     0.00000     0.00000     0.00000
  -------------------------------------------------------------------------------------
  Total      -9.64633    -9.62096    -0.35589     0.00620    -0.10050    -0.00329
  in kB      -9.25389    -9.22956    -0.34142     0.00595    -0.09641    -0.00316
  external pressure =       -6.27 kB  Pullay stress =        0.00 kB


 VOLUME and BASIS-vectors are now :
 -----------------------------------------------------------------------------
  energy-cutoff  :      500.00
  volume of cell :     1670.12
      direct lattice vectors                 reciprocal lattice vectors
     8.791366577  0.000000000  0.000000000     0.113747958 -0.065672414  0.000000000
     4.395683289  7.613546790  0.000000000     0.000000000  0.131344829  0.000000000
     0.000000000  0.000000000 24.951963562     0.000000000  0.000000000  0.040077006

  length of vectors
     8.791366577  8.791366577 24.951963562     0.131344829  0.131344829  0.040077006


 FORCES acting on ions
    electron-ion (+dipol)            ewald-force                    non-local-force                 convergence-correction
 -----------------------------------------------------------------------------------------------
   0.163E-02 0.439E-01 0.272E+04   -.238E-03 -.771E-02 -.272E+04   -.815E-04 0.336E-02 -.202E+01   -.131E-02 -.349E-01 0.202E+00
   -.746E-01 0.136E+00 0.272E+04   -.239E+00 -.211E+00 -.272E+04   0.120E+00 0.150E+00 -.153E+01   0.190E+00 -.698E-01 0.284E+00
   0.739E-01 0.127E+00 0.272E+04   0.239E+00 -.211E+00 -.272E+04   -.119E+00 0.150E+00 -.153E+01   -.190E+00 -.610E-01 0.287E+00
   0.774E-01 -.120E+00 0.272E+04   -.296E+00 -.943E-01 -.272E+04   0.174E+00 0.989E-02 -.155E+01   0.427E-01 0.194E+00 0.262E+00
   -.128E-01 -.137E+00 0.272E+04   0.383E-03 0.114E-01 -.272E+04   -.239E-02 0.219E-01 -.127E+01   0.151E-01 0.953E-01 0.320E+00
   -.696E-01 -.123E+00 0.272E+04   0.295E+00 -.944E-01 -.272E+04   -.174E+00 0.963E-02 -.155E+01   -.503E-01 0.197E+00 0.265E+00
   0.303E-01 0.276E-01 0.272E+04   -.562E-01 0.305E+00 -.272E+04   0.891E-01 -.171E+00 -.163E+01   -.636E-01 -.155E+00 0.249E+00
   -.374E-01 0.330E-01 0.272E+04   0.563E-01 0.305E+00 -.272E+04   -.894E-01 -.171E+00 -.163E+01   0.708E-01 -.161E+00 0.249E+00
   0.120E-01 0.197E-01 0.272E+04   -.578E-04 -.354E-02 -.272E+04   0.255E-02 -.109E-01 -.180E+01   -.147E-01 -.457E-02 0.250E+00
   0.237E+01 0.142E+01 0.921E+03   -.207E+01 -.120E+01 -.921E+03   -.362E+00 -.217E+00 -.764E+00   0.808E-01 0.692E-02 0.635E+00
   -.134E-01 0.253E+01 0.924E+03   0.164E-02 -.257E+01 -.924E+03   -.231E-02 0.766E-01 -.258E+00   0.143E-01 -.635E-01 0.830E+00
   -.236E+01 0.142E+01 0.921E+03   0.207E+01 -.120E+01 -.921E+03   0.362E+00 -.217E+00 -.764E+00   -.874E-01 0.806E-02 0.632E+00
   0.210E+01 -.137E+01 0.923E+03   -.222E+01 0.136E+01 -.924E+03   0.951E-01 -.533E-01 -.312E+00   0.729E-02 0.807E-01 0.813E+00
   -.211E+01 -.136E+01 0.923E+03   0.222E+01 0.135E+01 -.924E+03   -.990E-01 -.529E-01 -.312E+00   0.108E-01 0.751E-01 0.802E+00
   0.700E-02 0.648E+00 0.922E+03   -.197E-02 -.884E+00 -.921E+03   0.159E-03 0.908E-01 -.746E+00   -.514E-02 0.121E+00 0.638E+00
   0.178E-02 -.267E+01 0.921E+03   0.365E-03 0.232E+01 -.920E+03   0.179E-03 0.460E+00 -.803E+00   -.235E-02 -.116E+00 0.649E+00
   0.697E+00 -.302E+00 0.922E+03   -.827E+00 0.408E+00 -.921E+03   0.536E-01 -.418E-01 -.763E+00   0.556E-01 -.532E-01 0.648E+00
   -.699E+00 -.311E+00 0.922E+03   0.827E+00 0.410E+00 -.921E+03   -.541E-01 -.423E-01 -.763E+00   -.536E-01 -.460E-01 0.656E+00
   0.979E-02 -.162E+01 -.898E+03   -.126E-01 0.134E+01 0.896E+03   -.146E-03 0.104E+00 0.637E+00   0.291E-02 0.163E+00 0.107E+01
   -.116E+01 -.103E+01 -.888E+03   0.176E+01 0.137E+01 0.888E+03   -.129E+01 -.715E+00 -.119E+01   0.683E+00 0.379E+00 0.189E+01
   0.116E+01 -.103E+01 -.888E+03   -.174E+01 0.138E+01 0.888E+03   0.129E+01 -.714E+00 -.119E+01   -.702E+00 0.370E+00 0.189E+01
   -.169E+01 0.661E+00 -.891E+03   0.115E+01 -.439E+00 0.890E+03   0.261E+00 -.126E+00 0.353E+00   0.289E+00 -.107E+00 0.111E+01
   0.235E-02 0.105E+01 -.890E+03   0.118E-01 -.183E+01 0.889E+03   0.205E-02 0.154E+01 -.116E+01   -.165E-01 -.745E+00 0.192E+01
   0.168E+01 0.673E+00 -.891E+03   -.116E+01 -.449E+00 0.890E+03   -.266E+00 -.126E+00 0.352E+00   -.264E+00 -.109E+00 0.111E+01
   0.114E+01 0.129E+01 -.899E+03   -.869E+00 -.105E+01 0.897E+03   -.840E-01 -.921E-01 0.761E+00   -.167E+00 -.133E+00 0.107E+01
   -.113E+01 0.129E+01 -.899E+03   0.866E+00 -.107E+01 0.897E+03   0.843E-01 -.923E-01 0.761E+00   0.160E+00 -.127E+00 0.107E+01
   -.137E-01 -.129E+01 -.891E+03   0.290E-02 0.745E+00 0.889E+03   -.224E-02 0.301E+00 0.305E+00   0.132E-01 0.263E+00 0.110E+01
   0.263E-01 0.163E+01 -.266E+04   -.257E-01 -.169E+01 0.266E+04   -.212E-04 0.723E-01 0.175E+01   -.478E-03 -.114E-01 0.221E+00
   0.154E+02 0.252E+02 -.264E+04   -.155E+02 -.252E+02 0.264E+04   -.807E+00 -.125E+01 0.103E+01   0.778E+00 0.115E+01 0.273E+00
   -.155E+02 0.251E+02 -.264E+04   0.155E+02 -.251E+02 0.264E+04   0.807E+00 -.125E+01 0.103E+01   -.779E+00 0.115E+01 0.270E+00
   0.277E+02 -.110E+01 -.264E+04   -.276E+02 0.110E+01 0.264E+04   -.157E+01 -.935E-01 0.104E+01   0.129E+01 0.898E-01 0.283E+00
   -.276E+02 -.110E+01 -.264E+04   0.274E+02 0.110E+01 0.264E+04   0.157E+01 -.938E-01 0.104E+01   -.129E+01 0.909E-01 0.287E+00
   0.985E+01 -.221E+02 -.265E+04   -.102E+02 0.223E+02 0.265E+04   -.479E+00 0.116E+01 0.161E+01   0.748E+00 -.126E+01 0.336E+00
   -.988E+01 -.220E+02 -.265E+04   0.102E+02 0.222E+02 0.265E+04   0.479E+00 0.116E+01 0.161E+01   -.746E+00 -.126E+01 0.343E+00
   0.308E-01 0.684E+00 -.267E+04   -.238E-01 -.658E+00 0.266E+04   0.230E-02 -.834E-02 0.197E+01   -.947E-02 -.177E-01 0.359E+00
   -.102E+00 -.279E+01 -.128E+04   0.101E+00 0.274E+01 0.128E+04   -.116E-02 -.285E-01 0.133E+01   0.131E-02 0.305E-01 0.489E+00
   0.670E+02 0.421E+02 -.297E+03   -.738E+02 -.464E+02 0.299E+03   0.670E+01 0.425E+01 -.192E+01   0.651E-01 0.381E-01 -.141E+00
   -.669E+02 0.422E+02 -.297E+03   0.736E+02 -.465E+02 0.299E+03   -.668E+01 0.426E+01 -.193E+01   -.648E-01 0.383E-01 -.141E+00
   -.128E+00 -.545E+02 -.167E+04   0.179E+00 0.961E+02 0.166E+04   -.472E-01 -.416E+02 0.848E+01   0.205E-02 0.313E-01 -.129E+01
 -----------------------------------------------------------------------------------------------
   0.183E-01 0.333E+02 -.190E+02   -.142E-12 0.426E-12 0.182E-11   -.365E-01 -.334E+02 -.331E+01   0.133E-01 0.372E-01 0.222E+02
 
 
 POSITION                                       TOTAL-FORCE (eV/Angst)
 -----------------------------------------------------------------------------------
      0.00000      0.00000      5.28219         0.000129      0.004876     -0.041952
      2.93046      0.00000      5.28219        -0.004009      0.005751      0.020979
      5.86091      0.00000      5.28219         0.004215      0.005706      0.020949
      1.46523      2.53785      5.28219        -0.001318     -0.010794      0.021552
      4.39568      2.53785      5.28219         0.000326     -0.007857      0.003599
      7.32614      2.53785      5.28219         0.001597     -0.010784      0.021567
      2.93046      5.07570      5.28219        -0.000188      0.006537      0.026784
      5.86091      5.07570      5.28219         0.000409      0.006531      0.026801
      8.79137      5.07570      5.28219        -0.000072      0.000970      0.002869
      1.46523      0.84595      7.67490         0.014737      0.009758     -0.016379
      4.39568      0.84595      7.67490         0.000360     -0.026241     -0.053439
      7.32614      0.84595      7.67490        -0.014481      0.009723     -0.016410
      2.93046      3.38380      7.67490        -0.016858      0.014119     -0.053323
      5.86091      3.38380      7.67490         0.017534      0.014113     -0.053297
      8.79137      3.38380      7.67490         0.000173     -0.023905     -0.006542
      4.39568      5.92165      7.67490         0.000099     -0.012658     -0.023045
      7.32614      5.92165      7.67490        -0.020588      0.010791     -0.003895
     10.25659      5.92165      7.67490         0.020856      0.010752     -0.003889
      8.79137      1.69374     10.05841         0.000118     -0.016613     -0.019096
      2.93927      1.69699     10.03909        -0.005826      0.006390     -0.047609
      5.85210      1.69699     10.03909         0.005726      0.006358     -0.047529
     10.25385      4.23133     10.05420         0.014658     -0.011300     -0.005147
      4.39568      4.21957     10.03909        -0.000095      0.018058     -0.009732
      7.32888      4.23133     10.05420        -0.014044     -0.011362     -0.005109
     11.72023      6.76668     10.05841         0.018834      0.009855     -0.006087
      5.86251      6.76668     10.05841        -0.018579      0.009875     -0.006051
      8.79137      6.76443     10.05420         0.000307      0.021455     -0.016565
      0.00000      0.00000     12.42643         0.000128      0.000658      0.053676
      2.96234      0.05459     12.44639        -0.070803     -0.112095     -0.055991
      5.82903      0.05459     12.44639         0.070959     -0.111420     -0.055526
      1.52844      2.53816     12.44639        -0.126273     -0.005075     -0.062645
      7.26292      2.53816     12.44639         0.125434     -0.005312     -0.061853
      2.96179      5.02079     12.44639        -0.097846      0.122126     -0.076739
      5.82958      5.02079     12.44639         0.097976      0.121843     -0.076688
      8.79137      5.07570     12.42906        -0.000075      0.000516      0.059327
      4.39568      2.53785     12.18689        -0.000725     -0.047848      0.578439
      3.60591      2.04102     14.55905        -0.008843     -0.012069      0.010291
      5.18121      2.03952     14.55978        -0.000062     -0.005680      0.008175
      4.39402      2.57565     14.32093         0.006112      0.014250     -0.030468
 -----------------------------------------------------------------------------------
    total drift:                               -0.004821     -0.010267     -0.101983


--------------------------------------------------------------------------------------------------------



  FREE ENERGIE OF THE ION-ELECTRON SYSTEM (eV)
  ---------------------------------------------------
  free  energy   TOTEN  =      -109.89687602 eV

  energy  without entropy=     -109.89687602  energy(sigma->0) =     -109.89687602
 


--------------------------------------------------------------------------------------------------------


    POTLOK:  cpu time    0.0584: real time    0.0584


--------------------------------------------------------------------------------------------------------


 stress matrix after NEB project (eV)
     -9.64633      0.00620     -0.00329
      0.00620     -9.62096     -0.10050
     -0.00329     -0.10050     -0.35589
  FORCES: max atom, RMS     0.034187    0.006400
  FORCE total and by dimension    0.039970    0.030468
  Stress total and by dimension   13.629437    9.646329
     LOOP+:  cpu time  285.3193: real time  285.3412
 -----------------------------------------------------------------------------
|                                                                             |
|           W    W    AA    RRRRR   N    N  II  N    N   GGGG   !!!           |
|           W    W   A  A   R    R  NN   N  II  NN   N  G    G  !!!           |
|           W    W  A    A  R    R  N N  N  II  N N  N  G       !!!           |
|           W WW W  AAAAAA  RRRRR   N  N N  II  N  N N  G  GGG   !            |
|           WW  WW  A    A  R   R   N   NN  II  N   NN  G    G                |
|           W    W  A    A  R    R  N    N  II  N    N   GGGG   !!!           |
|                                                                             |
|     Tetrahedron method does not include variations of the Fermi             |
|     occupations, so forces and stress will be inaccurate. We suggest        |
|     using a different smearing scheme ISMEAR = 1 or 2 for metals in         |
|     relaxations.                                                            |
|                                                                             |
 -----------------------------------------------------------------------------

    4ORBIT:  cpu time    0.0000: real time    0.0000



 total charge

# of ion       s       p       d       tot
------------------------------------------
    1        0.421   0.202   9.179   9.801
    2        0.417   0.204   9.178   9.799
    3        0.417   0.204   9.178   9.799
    4        0.417   0.204   9.178   9.799
    5        0.420   0.202   9.176   9.799
    6        0.417   0.204   9.178   9.799
    7        0.416   0.204   9.178   9.798
    8        0.416   0.204   9.178   9.798
    9        0.416   0.203   9.179   9.798
   10        0.410   0.269   9.164   9.842
   11        0.409   0.267   9.169   9.845
   12        0.410   0.269   9.164   9.842
   13        0.407   0.268   9.169   9.844
   14        0.407   0.268   9.169   9.844
   15        0.405   0.269   9.166   9.839
   16        0.409   0.269   9.163   9.841
   17        0.404   0.269   9.166   9.839
   18        0.404   0.269   9.166   9.839
   19        0.405   0.265   9.168   9.837
   20        0.436   0.299   9.139   9.874
   21        0.436   0.299   9.139   9.874
   22        0.396   0.274   9.167   9.837
   23        0.436   0.299   9.138   9.873
   24        0.396   0.274   9.167   9.837
   25        0.403   0.265   9.168   9.836
   26        0.403   0.265   9.168   9.836
   27        0.398   0.274   9.167   9.838
   28        0.414   0.201   9.174   9.788
   29        0.436   0.217   9.161   9.814
   30        0.436   0.217   9.161   9.814
   31        0.436   0.216   9.162   9.814
   32        0.436   0.216   9.162   9.814
   33        0.430   0.209   9.168   9.806
   34        0.430   0.209   9.168   9.806
   35        0.407   0.202   9.177   9.785
   36        0.367   0.336   4.144   4.847
   37        0.600   0.117   0.000   0.717
   38        0.600   0.117   0.000   0.717
   39        1.568   3.610   0.000   5.178
--------------------------------------------------
tot         17.691  12.626 324.990 355.307
 
 BZINTS: Fermi energy:    0.472621;  399.000000 electrons
         Band energy:-0.149256E+04;  BLOECHL correction:   -0.013740

 total amount of memory used by VASP MPI-rank0   282166. kBytes
=======================================================================

   base      :      30000. kBytes
   nonlr-proj:      14914. kBytes
   fftplans  :       4808. kBytes
   grid      :      20723. kBytes
   one-center:        606. kBytes
   wavefun   :     211115. kBytes
 
  
  
 General timing and accounting informations for this job:
 ========================================================
  
                  Total CPU time used (sec):      308.745
                            User time (sec):      298.248
                          System time (sec):       10.497
                         Elapsed time (sec):      309.103
  
                   Maximum memory used (kb):      585468.
                   Average memory used (kb):          N/A
  
                          Minor page faults:       143996
                          Major page faults:            0
                 Voluntary context switches:         8771
