PROCAR new format
# of k-points:   10         # of bands:  252         # of ions:   38

 k-point     1 :    0.00000000 0.00000000 0.00000000     weight = 0.01562500

band     1 # energy  -19.97412985 # occ.  2.00000000
 
ion      s      p      d    tot
    1  0.000  0.000  0.000  0.000
    2  0.000  0.000  0.000  0.000
    3  0.000  0.000  0.000  0.000
    4  0.000  0.000  0.000  0.000
    5  0.000  0.000  0.000  0.000
    6  0.000  0.000  0.000  0.000
    7  0.000  0.000  0.000  0.000
    8  0.000  0.000  0.000  0.000
    9  0.000  0.000  0.000  0.000
   10  0.000  0.000  0.000  0.000
   11  0.000  0.000  0.000  0.000
   12  0.000  0.000  0.000  0.000
   13  0.000  0.000  0.000  0.000
   14  0.000  0.000  0.000  0.000
   15  0.000  0.000  0.000  0.000
   16  0.000  0.000  0.000  0.000
   17  0.000  0.000  0.000  0.000
   18  0.000  0.000  0.000  0.000
   19  0.000  0.000  0.000  0.000
   20  0.000  0.000  0.000  0.000
   21  0.000  0.000  0.000  0.000
   22  0.000  0.000  0.000  0.000
   23  0.000  0.000  0.000  0.000
   24  0.000  0.000  0.000  0.000
   25  0.000  0.000  0.000  0.000
   26  0.000  0.000  0.000  0.000
   27  0.000  0.000  0.000  0.000
   28  0.000  0.000  0.000  0.000
   29  0.000  0.000  0.000  0.000
   30  0.000  0.000  0.000  0.000
   31  0.000  0.000  0.000  0.000
   32  0.000  0.000  0.000  0.000
   33  0.000  0.000  0.000  0.000
   34  0.000  0.000  0.000  0.000
   35  0.000  0.000  0.000  0.000
   36  0.012  0.015  0.023  0.050
   37  0.746  0.012  0.000  0.759
   38  0.112  0.023  0.000  0.135
tot    0.871  0.050  0.023  0.944
 
band     2 # energy   -8.79031073 # occ.  2.00000000
 
ion      s      p      d    tot
    1  0.000  0.000  0.000  0.000
    2  0.000  0.000  0.000  0.000
    3  0.000  0.000  0.000  0.000
    4  0.000  0.000  0.000  0.000
    5  0.000  0.000  0.000  0.000
    6  0.000  0.000  0.000  0.000
    7  0.000  0.000  0.000  0.000
    8  0.000  0.000  0.000  0.000
    9  0.000  0.000  0.000  0.000
   10  0.000  0.000  0.000  0.000
   11  0.000  0.000  0.000  0.000
   12  0.000  0.000  0.000  0.000
   13  0.000  0.000  0.000  0.000
   14  0.000  0.000  0.000  0.000
   15  0.000  0.000  0.000  0.000
   16  0.000  0.000  0.000  0.000
   17  0.000  0.000  0.000  0.000
   18  0.000  0.000  0.000  0.000
   19  0.000  0.000  0.000  0.000
   20  0.001  0.000  0.002  0.003
   21  0.001  0.000  0.002  0.003
   22  0.000  0.000  0.000  0.000
   23  0.001  0.000  0.002  0.003
   24  0.000  0.000  0.000  0.000
   25  0.000  0.000  0.000  0.000
   26  0.000  0.000  0.000  0.000
   27  0.000  0.000  0.000  0.000
   28  0.000  0.000  0.000  0.000
   29  0.000  0.000  0.000  0.000
   30  0.000  0.000  0.000  0.000
   31  0.000  0.000  0.000  0.000
   32  0.000  0.000  0.000  0.000
   33  0.000  0.000  0.000  0.000
   34  0.000  0.000  0.000  0.000
   35  0.000  0.000  0.000  0.000
   36  0.066  0.033  0.136  0.234
   37  0.019  0.530  0.000  0.549
   38  0.176  0.019  0.000  0.195
tot    0.264  0.584  0.141  0.990
 
band     3 # energy   -6.05625535 # occ.  2.00000000
 
ion      s      p      d    tot
    1  0.006  0.001  0.000  0.007
    2  0.006  0.001  0.000  0.006
    3  0.006  0.001  0.000  0.006
    4  0.006  0.001  0.000  0.006
    5  0.006  0.001  0.000  0.006
    6  0.006  0.001  0.000  0.006
    7  0.006  0.001  0.000  0.006
    8  0.006  0.001  0.000  0.006
    9  0.006  0.001  0.000  0.006
   10  0.023  0.000  0.000  0.023
   11  0.023  0.000  0.000  0.024
   12  0.023  0.000  0.000  0.023
   13  0.023  0.000  0.000  0.024
   14  0.023  0.000  0.000  0.024
   15  0.022  0.000  0.000  0.023
   16  0.023  0.000  0.000  0.023
   17  0.022  0.000  0.000  0.023
   18  0.022  0.000  0.000  0.023
   19  0.022  0.000  0.000  0.022
   20  0.025  0.000  0.000  0.025
   21  0.025  0.000  0.000  0.025
   22  0.022  0.000  0.000  0.023
   23  0.025  0.000  0.000  0.025
   24  0.022  0.000  0.000  0.023
   25  0.022  0.000  0.000  0.022
   26  0.022  0.000  0.000  0.022
   27  0.022  0.000  0.000  0.023
   28  0.005  0.001  0.000  0.006
   29  0.006  0.001  0.000  0.007
   30  0.006  0.001  0.000  0.007
   31  0.006  0.001  0.000  0.007
   32  0.006  0.001  0.000  0.007
   33  0.006  0.001  0.000  0.007
   34  0.006  0.001  0.000  0.007
   35  0.006  0.001  0.000  0.006
   36  0.009  0.003  0.002  0.014
   37  0.001  0.003  0.000  0.004
   38  0.001  0.000  0.000  0.001
tot    0.522  0.018  0.008  0.548
 
band     4 # energy   -5.19577643 # occ.  2.00000000
 
ion      s      p      d    tot
    1  0.009  0.000  0.001  0.010
    2  0.009  0.000  0.001  0.010
    3  0.009  0.000  0.001  0.010
    4  0.009  0.000  0.001  0.010
    5  0.009  0.000  0.001  0.010
    6  0.009  0.000  0.001  0.010
    7  0.009  0.000  0.001  0.010
    8  0.009  0.000  0.001  0.010
    9  0.010  0.000  0.001  0.011
   10  0.011  0.001  0.013  0.025
   11  0.011  0.001  0.012  0.024
   12  0.011  0.001  0.013  0.025
   13  0.011  0.001  0.012  0.024
   14  0.011  0.001  0.012  0.024
   15  0.012  0.001  0.011  0.025
   16  0.011  0.001  0.013  0.025
   17  0.012  0.001  0.011  0.025
   18  0.012  0.001  0.011  0.025
   19  0.008  0.001  0.011  0.021
   20  0.013  0.002  0.009  0.023
   21  0.013  0.002  0.009  0.023
   22  0.009  0.001  0.012  0.022
   23  0.013  0.002  0.009  0.023
   24  0.009  0.001  0.012  0.022
   25  0.008  0.001  0.011  0.021
   26  0.008  0.001  0.011  0.021
   27  0.009  0.001  0.012  0.022
   28  0.008  0.000  0.001  0.009
   29  0.010  0.001  0.002  0.012
   30  0.010  0.001  0.002  0.012
   31  0.010  0.001  0.002  0.012
   32  0.010  0.001  0.002  0.012
   33  0.010  0.001  0.002  0.012
   34  0.010  0.001  0.002  0.012
   35  0.008  0.000  0.000  0.008
   36  0.018  0.003  0.005  0.027
   37  0.001  0.003  0.000  0.003
   38  0.001  0.000  0.000  0.001
tot    0.373  0.033  0.229  0.635
 
band     5 # energy   -4.95584334 # occ.  2.00000000
 
ion      s      p      d    tot
    1  0.003  0.000  0.014  0.016
    2  0.005  0.000  0.008  0.013
    3  0.005  0.000  0.008  0.013
    4  0.005  0.000  0.008  0.013
    5  0.005  0.000  0.005  0.010
    6  0.005  0.000  0.008  0.013
    7  0.005  0.000  0.008  0.013
    8  0.005  0.000  0.008  0.013
    9  0.007  0.000  0.006  0.013
   10  0.001  0.000  0.021  0.022
   11  0.001  0.000  0.017  0.017
   12  0.001  0.000  0.021  0.022
   13  0.001  0.000  0.017  0.017
   14  0.001  0.000  0.017  0.017
   15  0.000  0.000  0.014  0.014
   16  0.001  0.000  0.021  0.022
   17  0.000  0.000  0.014  0.014
   18  0.000  0.000  0.014  0.014
   19  0.004  0.000  0.017  0.021
   20  0.000  0.001  0.049  0.050
   21  0.000  0.001  0.049  0.050
   22  0.002  0.000  0.017  0.019
   23  0.000  0.001  0.049  0.050
   24  0.002  0.000  0.017  0.019
   25  0.004  0.000  0.017  0.022
   26  0.004  0.000  0.017  0.021
   27  0.002  0.000  0.017  0.019
   28  0.003  0.000  0.013  0.016
   29  0.008  0.000  0.020  0.029
   30  0.008  0.000  0.020  0.029
   31  0.008  0.000  0.020  0.029
   32  0.008  0.000  0.020  0.029
   33  0.008  0.000  0.020  0.029
   34  0.008  0.000  0.020  0.029
   35  0.004  0.000  0.011  0.015
   36  0.030  0.001  0.019  0.049
   37  0.000  0.001  0.000  0.001
   38  0.000  0.000  0.000  0.000
tot    0.154  0.007  0.640  0.802
 
band     6 # energy   -4.81299964 # occ.  2.00000000
 
ion      s      p      d    tot
    1  0.021  0.001  0.003  0.025
    2  0.007  0.000  0.016  0.023
    3  0.007  0.000  0.016  0.023
    4  0.007  0.000  0.016  0.023
    5  0.005  0.000  0.021  0.026
    6  0.007  0.000  0.016  0.023
    7  0.007  0.000  0.016  0.023
    8  0.007  0.000  0.016  0.023
    9  0.001  0.000  0.020  0.022
   10  0.002  0.000  0.049  0.050
   11  0.000  0.000  0.024  0.024
   12  0.002  0.000  0.049  0.050
   13  0.000  0.000  0.024  0.024
   14  0.000  0.000  0.024  0.024
   15  0.010  0.001  0.006  0.017
   16  0.002  0.000  0.049  0.050
   17  0.010  0.001  0.006  0.017
   18  0.010  0.001  0.006  0.017
   19  0.001  0.000  0.020  0.021
   20  0.004  0.000  0.038  0.042
   21  0.004  0.000  0.038  0.042
   22  0.009  0.001  0.000  0.010
   23  0.004  0.000  0.038  0.042
   24  0.009  0.001  0.000  0.010
   25  0.001  0.000  0.020  0.021
   26  0.001  0.000  0.020  0.021
   27  0.009  0.001  0.000  0.010
   28  0.001  0.000  0.003  0.004
   29  0.000  0.000  0.009  0.009
   30  0.000  0.000  0.009  0.009
   31  0.000  0.000  0.009  0.009
   32  0.000  0.000  0.009  0.009
   33  0.000  0.000  0.009  0.009
   34  0.000  0.000  0.009  0.009
   35  0.002  0.001  0.001  0.004
   36  0.014  0.005  0.001  0.019
   37  0.001  0.002  0.000  0.003
   38  0.001  0.000  0.000  0.001
tot    0.165  0.020  0.607  0.792
 
band     7 # energy   -4.79368226 # occ.  2.00000000
 
ion      s      p      d    tot
    1  0.000  0.000  0.009  0.010
    2  0.000  0.000  0.003  0.003
    3  0.000  0.000  0.002  0.002
    4  0.000  0.000  0.003  0.003
    5  0.000  0.000  0.003  0.003
    6  0.001  0.000  0.003  0.004
    7  0.000  0.000  0.002  0.002
    8  0.001  0.000  0.003  0.004
    9  0.000  0.000  0.002  0.002
   10  0.016  0.001  0.015  0.032
   11  0.001  0.001  0.023  0.024
   12  0.004  0.001  0.022  0.027
   13  0.001  0.001  0.023  0.024
   14  0.003  0.000  0.019  0.023
   15  0.001  0.000  0.021  0.022
   16  0.004  0.001  0.022  0.027
   17  0.001  0.000  0.021  0.022
   18  0.004  0.001  0.008  0.013
   19  0.004  0.001  0.021  0.026
   20  0.032  0.000  0.010  0.042
   21  0.008  0.000  0.089  0.098
   22  0.000  0.001  0.041  0.042
   23  0.008  0.000  0.090  0.098
   24  0.001  0.000  0.021  0.022
   25  0.017  0.000  0.032  0.050
   26  0.004  0.001  0.021  0.026
   27  0.000  0.001  0.041  0.042
   28  0.000  0.000  0.004  0.004
   29  0.000  0.001  0.007  0.008
   30  0.001  0.000  0.006  0.007
   31  0.000  0.001  0.007  0.008
   32  0.000  0.000  0.008  0.008
   33  0.001  0.000  0.006  0.007
   34  0.000  0.000  0.008  0.008
   35  0.000  0.000  0.001  0.001
   36  0.000  0.000  0.028  0.029
   37  0.000  0.024  0.000  0.024
   38  0.000  0.000  0.000  0.000
tot    0.115  0.039  0.643  0.797
 
band     8 # energy   -4.79367046 # occ.  2.00000000
 
ion      s      p      d    tot
    1  0.000  0.000  0.009  0.010
    2  0.001  0.000  0.002  0.003
    3  0.001  0.000  0.003  0.004
    4  0.001  0.000  0.002  0.003
    5  0.000  0.000  0.003  0.003
    6  0.000  0.000  0.002  0.003
    7  0.001  0.000  0.003  0.004
    8  0.000  0.000  0.002  0.003
    9  0.000  0.000  0.002  0.002
   10  0.000  0.001  0.025  0.025
   11  0.003  0.001  0.020  0.024
   12  0.012  0.001  0.017  0.030
   13  0.003  0.001  0.020  0.024
   14  0.000  0.001  0.024  0.025
   15  0.003  0.000  0.012  0.016
   16  0.012  0.001  0.017  0.030
   17  0.003  0.000  0.013  0.016
   18  0.000  0.000  0.025  0.025
   19  0.013  0.001  0.028  0.042
   20  0.000  0.000  0.116  0.116
   21  0.024  0.000  0.037  0.061
   22  0.001  0.000  0.028  0.029
   23  0.024  0.000  0.036  0.060
   24  0.000  0.001  0.047  0.048
   25  0.000  0.001  0.017  0.018
   26  0.013  0.001  0.028  0.042
   27  0.001  0.000  0.028  0.029
   28  0.000  0.000  0.004  0.004
   29  0.000  0.000  0.007  0.007
   30  0.000  0.000  0.008  0.009
   31  0.000  0.000  0.007  0.007
   32  0.001  0.001  0.006  0.007
   33  0.000  0.000  0.008  0.009
   34  0.001  0.001  0.006  0.007
   35  0.000  0.000  0.001  0.001
   36  0.000  0.000  0.028  0.029
   37  0.000  0.024  0.000  0.024
   38  0.000  0.000  0.000  0.000
tot    0.115  0.039  0.643  0.797
 
band     9 # energy   -4.77848147 # occ.  2.00000000
 
ion      s      p      d    tot
    1  0.001  0.000  0.010  0.011
    2  0.004  0.000  0.013  0.017
    3  0.004  0.000  0.013  0.017
    4  0.004  0.000  0.013  0.017
    5  0.010  0.000  0.012  0.022
    6  0.004  0.000  0.013  0.017
    7  0.004  0.000  0.013  0.017
    8  0.004  0.000  0.013  0.017
    9  0.004  0.000  0.008  0.012
   10  0.004  0.001  0.002  0.007
   11  0.001  0.000  0.027  0.028
   12  0.004  0.001  0.002  0.007
   13  0.001  0.000  0.027  0.028
   14  0.001  0.000  0.027  0.028
   15  0.000  0.000  0.018  0.018
   16  0.004  0.001  0.002  0.007
   17  0.000  0.000  0.018  0.018
   18  0.000  0.000  0.018  0.018
   19  0.006  0.001  0.017  0.024
   20  0.004  0.000  0.083  0.088
   21  0.004  0.000  0.084  0.088
   22  0.006  0.000  0.020  0.027
   23  0.004  0.000  0.084  0.088
   24  0.006  0.000  0.020  0.027
   25  0.006  0.001  0.017  0.024
   26  0.006  0.001  0.017  0.024
   27  0.006  0.000  0.020  0.027
   28  0.000  0.000  0.001  0.002
   29  0.002  0.000  0.008  0.010
   30  0.002  0.000  0.008  0.010
   31  0.002  0.000  0.008  0.010
   32  0.002  0.000  0.008  0.010
   33  0.002  0.000  0.008  0.010
   34  0.002  0.000  0.008  0.010
   35  0.006  0.001  0.000  0.006
   36  0.003  0.002  0.010  0.015
   37  0.000  0.001  0.000  0.001
   38  0.000  0.000  0.000  0.000
tot    0.122  0.013  0.671  0.806
 
band    10 # energy   -4.76568780 # occ.  2.00000000
 
ion      s      p      d    tot
    1  0.000  0.000  0.002  0.003
    2  0.000  0.000  0.003  0.003
    3  0.001  0.000  0.006  0.008
    4  0.000  0.000  0.003  0.003
    5  0.000  0.000  0.008  0.009
    6  0.001  0.000  0.004  0.006
    7  0.001  0.000  0.006  0.008
    8  0.001  0.000  0.004  0.005
    9  0.000  0.000  0.003  0.003
   10  0.002  0.000  0.023  0.026
   11  0.007  0.000  0.077  0.085
   12  0.001  0.001  0.066  0.068
   13  0.007  0.000  0.079  0.086
   14  0.028  0.001  0.010  0.039
   15  0.004  0.001  0.015  0.020
   16  0.001  0.001  0.065  0.066
   17  0.003  0.001  0.014  0.019
   18  0.013  0.000  0.038  0.052
   19  0.001  0.000  0.031  0.032
   20  0.005  0.000  0.038  0.043
   21  0.001  0.001  0.033  0.035
   22  0.003  0.001  0.022  0.026
   23  0.001  0.001  0.033  0.035
   24  0.014  0.001  0.013  0.028
   25  0.004  0.000  0.012  0.016
   26  0.001  0.000  0.032  0.033
   27  0.004  0.001  0.022  0.026
   28  0.000  0.000  0.002  0.002
   29  0.001  0.000  0.003  0.005
   30  0.000  0.000  0.003  0.003
   31  0.001  0.000  0.003  0.005
   32  0.000  0.000  0.003  0.003
   33  0.000  0.000  0.003  0.003
   34  0.000  0.000  0.003  0.003
   35  0.000  0.000  0.006  0.006
   36  0.000  0.000  0.003  0.003
   37  0.000  0.000  0.000  0.000
   38  0.000  0.000  0.000  0.000
tot    0.106  0.015  0.692  0.813
 
band    11 # energy   -4.76567307 # occ.  2.00000000
 
ion      s      p      d    tot
    1  0.000  0.000  0.002  0.003
    2  0.001  0.001  0.006  0.008
    3  0.000  0.000  0.002  0.003
    4  0.001  0.001  0.006  0.008
    5  0.000  0.000  0.008  0.009
    6  0.000  0.000  0.005  0.005
    7  0.000  0.000  0.002  0.003
    8  0.000  0.000  0.005  0.005
    9  0.000  0.000  0.003  0.003
   10  0.000  0.001  0.080  0.080
   11  0.021  0.001  0.034  0.055
   12  0.002  0.000  0.036  0.039
   13  0.021  0.001  0.032  0.054
   14  0.000  0.000  0.101  0.101
   15  0.010  0.001  0.030  0.041
   16  0.002  0.000  0.038  0.040
   17  0.010  0.001  0.031  0.042
   18  0.000  0.002  0.007  0.009
   19  0.003  0.000  0.019  0.022
   20  0.000  0.001  0.031  0.032
   21  0.003  0.001  0.036  0.040
   22  0.011  0.001  0.016  0.027
   23  0.003  0.001  0.036  0.040
   24  0.000  0.001  0.024  0.025
   25  0.000  0.000  0.038  0.038
   26  0.003  0.000  0.018  0.021
   27  0.010  0.001  0.016  0.027
   28  0.000  0.000  0.002  0.002
   29  0.000  0.000  0.003  0.003
   30  0.001  0.000  0.003  0.004
   31  0.000  0.000  0.003  0.003
   32  0.001  0.000  0.003  0.004
   33  0.001  0.000  0.003  0.004
   34  0.001  0.000  0.003  0.004
   35  0.000  0.000  0.006  0.006
   36  0.000  0.000  0.003  0.003
   37  0.000  0.000  0.000  0.000
   38  0.000  0.000  0.000  0.000
tot    0.106  0.015  0.692  0.813
 
band    12 # energy   -4.75503205 # occ.  2.00000000
 
ion      s      p      d    tot
    1  0.001  0.000  0.000  0.002
    2  0.000  0.000  0.006  0.006
    3  0.000  0.000  0.006  0.006
    4  0.000  0.000  0.006  0.006
    5  0.004  0.001  0.006  0.011
    6  0.000  0.000  0.006  0.006
    7  0.000  0.000  0.006  0.006
    8  0.000  0.000  0.006  0.006
    9  0.001  0.000  0.004  0.006
   10  0.007  0.001  0.004  0.012
   11  0.015  0.001  0.043  0.059
   12  0.007  0.001  0.004  0.012
   13  0.015  0.001  0.043  0.059
   14  0.015  0.001  0.043  0.059
   15  0.001  0.000  0.062  0.063
   16  0.007  0.001  0.004  0.012
   17  0.001  0.000  0.062  0.063
   18  0.001  0.000  0.062  0.063
   19  0.009  0.000  0.026  0.036
   20  0.005  0.001  0.017  0.023
   21  0.005  0.001  0.017  0.023
   22  0.000  0.000  0.042  0.043
   23  0.005  0.001  0.017  0.023
   24  0.000  0.000  0.042  0.043
   25  0.009  0.000  0.026  0.036
   26  0.009  0.000  0.026  0.036
   27  0.000  0.000  0.042  0.043
   28  0.004  0.001  0.003  0.007
   29  0.000  0.000  0.004  0.004
   30  0.000  0.000  0.004  0.004
   31  0.000  0.000  0.004  0.004
   32  0.000  0.000  0.004  0.004
   33  0.000  0.000  0.004  0.004
   34  0.000  0.000  0.004  0.004
   35  0.001  0.000  0.004  0.006
   36  0.000  0.000  0.000  0.000
   37  0.000  0.000  0.000  0.000
   38  0.000  0.000  0.000  0.000
tot    0.128  0.017  0.655  0.801
 
band    13 # energy   -4.72890914 # occ.  2.00000000
 
ion      s      p      d    tot
    1  0.001  0.000  0.027  0.029
    2  0.002  0.000  0.011  0.013
    3  0.002  0.000  0.011  0.013
    4  0.002  0.000  0.011  0.013
    5  0.000  0.000  0.000  0.000
    6  0.002  0.000  0.011  0.013
    7  0.002  0.000  0.011  0.013
    8  0.002  0.000  0.011  0.013
    9  0.009  0.001  0.001  0.011
   10  0.004  0.000  0.058  0.063
   11  0.002  0.000  0.035  0.038
   12  0.004  0.000  0.058  0.063
   13  0.002  0.000  0.035  0.038
   14  0.002  0.000  0.035  0.037
   15  0.003  0.001  0.003  0.006
   16  0.004  0.000  0.058  0.063
   17  0.003  0.001  0.003  0.006
   18  0.003  0.001  0.003  0.006
   19  0.000  0.000  0.018  0.018
   20  0.001  0.000  0.023  0.025
   21  0.001  0.000  0.023  0.025
   22  0.003  0.000  0.030  0.033
   23  0.001  0.000  0.023  0.025
   24  0.003  0.000  0.030  0.033
   25  0.000  0.000  0.018  0.018
   26  0.000  0.000  0.018  0.018
   27  0.003  0.000  0.030  0.033
   28  0.012  0.000  0.010  0.023
   29  0.004  0.000  0.014  0.019
   30  0.004  0.000  0.014  0.019
   31  0.004  0.000  0.014  0.019
   32  0.004  0.000  0.014  0.019
   33  0.004  0.000  0.014  0.019
   34  0.004  0.000  0.014  0.019
   35  0.002  0.000  0.022  0.024
   36  0.001  0.000  0.001  0.002
   37  0.000  0.000  0.000  0.000
   38  0.000  0.000  0.000  0.000
tot    0.100  0.008  0.714  0.821
 
band    14 # energy   -4.72376704 # occ.  2.00000000
 
ion      s      p      d    tot
    1  0.000  0.000  0.014  0.014
    2  0.002  0.000  0.006  0.008
    3  0.000  0.000  0.011  0.012
    4  0.002  0.000  0.006  0.008
    5  0.000  0.000  0.009  0.009
    6  0.004  0.001  0.007  0.012
    7  0.000  0.000  0.011  0.011
    8  0.004  0.001  0.007  0.012
    9  0.000  0.001  0.008  0.009
   10  0.000  0.001  0.059  0.059
   11  0.000  0.000  0.036  0.036
   12  0.013  0.000  0.034  0.048
   13  0.000  0.000  0.037  0.038
   14  0.000  0.000  0.022  0.022
   15  0.012  0.000  0.036  0.048
   16  0.012  0.000  0.036  0.049
   17  0.013  0.000  0.030  0.043
   18  0.000  0.000  0.116  0.116
   19  0.000  0.000  0.023  0.023
   20  0.000  0.000  0.034  0.034
   21  0.003  0.000  0.015  0.018
   22  0.004  0.000  0.021  0.025
   23  0.002  0.000  0.016  0.019
   24  0.000  0.000  0.025  0.025
   25  0.000  0.000  0.024  0.024
   26  0.000  0.000  0.022  0.023
   27  0.004  0.000  0.021  0.025
   28  0.000  0.000  0.011  0.011
   29  0.001  0.000  0.004  0.006
   30  0.003  0.001  0.005  0.008
   31  0.002  0.000  0.004  0.006
   32  0.000  0.000  0.005  0.005
   33  0.003  0.001  0.005  0.008
   34  0.000  0.000  0.005  0.005
   35  0.000  0.000  0.005  0.005
   36  0.000  0.000  0.003  0.003
   37  0.000  0.000  0.000  0.000
   38  0.000  0.000  0.000  0.000
tot    0.085  0.011  0.731  0.827
 
band    15 # energy   -4.72375979 # occ.  2.00000000
 
ion      s      p      d    tot
    1  0.000  0.000  0.014  0.014
    2  0.002  0.001  0.010  0.013
    3  0.004  0.001  0.005  0.009
    4  0.002  0.001  0.010  0.013
    5  0.000  0.000  0.009  0.009
    6  0.000  0.000  0.009  0.009
    7  0.004  0.001  0.005  0.010
    8  0.000  0.000  0.009  0.010
    9  0.000  0.001  0.008  0.009
   10  0.017  0.000  0.028  0.045
   11  0.000  0.000  0.027  0.028
   12  0.004  0.000  0.052  0.056
   13  0.000  0.000  0.026  0.027
   14  0.000  0.000  0.042  0.042
   15  0.005  0.000  0.085  0.090
   16  0.005  0.000  0.050  0.055
   17  0.004  0.000  0.091  0.095
   18  0.017  0.000  0.005  0.022
   19  0.000  0.000  0.024  0.024
   20  0.003  0.000  0.009  0.013
   21  0.001  0.000  0.028  0.029
   22  0.001  0.000  0.024  0.025
   23  0.001  0.000  0.027  0.028
   24  0.005  0.000  0.020  0.025
   25  0.000  0.000  0.022  0.022
   26  0.000  0.000  0.024  0.024
   27  0.002  0.000  0.023  0.025
   28  0.000  0.000  0.011  0.011
   29  0.002  0.000  0.005  0.007
   30  0.000  0.000  0.004  0.005
   31  0.002  0.000  0.005  0.007
   32  0.003  0.000  0.004  0.008
   33  0.000  0.000  0.004  0.005
   34  0.003  0.000  0.004  0.008
   35  0.000  0.000  0.005  0.005
   36  0.000  0.000  0.003  0.003
   37  0.000  0.000  0.000  0.000
   38  0.000  0.000  0.000  0.000
tot    0.085  0.011  0.731  0.827
 
band    16 # energy   -4.72074730 # occ.  2.00000000
 
ion      s      p      d    tot
    1  0.001  0.000  0.000  0.002
    2  0.000  0.000  0.009  0.010
    3  0.000  0.000  0.009  0.010
    4  0.000  0.000  0.009  0.010
    5  0.002  0.000  0.000  0.002
    6  0.000  0.000  0.009  0.010
    7  0.000  0.000  0.009  0.010
    8  0.000  0.000  0.009  0.010
    9  0.002  0.000  0.014  0.017
   10  0.001  0.000  0.036  0.037
   11  0.001  0.000  0.004  0.006
   12  0.001  0.000  0.036  0.037
   13  0.001  0.000  0.004  0.006
   14  0.001  0.000  0.004  0.006
   15  0.002  0.000  0.061  0.063
   16  0.001  0.000  0.036  0.037
   17  0.002  0.000  0.061  0.063
   18  0.002  0.000  0.061  0.063
   19  0.002  0.000  0.042  0.045
   20  0.003  0.000  0.018  0.022
   21  0.003  0.000  0.018  0.022
   22  0.000  0.000  0.054  0.055
   23  0.003  0.000  0.018  0.022
   24  0.000  0.000  0.054  0.055
   25  0.002  0.000  0.042  0.045
   26  0.002  0.000  0.042  0.045
   27  0.000  0.000  0.054  0.055
   28  0.002  0.000  0.003  0.005
   29  0.001  0.000  0.009  0.010
   30  0.001  0.000  0.009  0.010
   31  0.001  0.000  0.009  0.010
   32  0.001  0.000  0.009  0.010
   33  0.001  0.000  0.009  0.010
   34  0.001  0.000  0.009  0.010
   35  0.005  0.000  0.012  0.016
   36  0.000  0.002  0.001  0.003
   37  0.000  0.000  0.000  0.000
   38  0.000  0.000  0.000  0.000
tot    0.052  0.008  0.785  0.845
 
band    17 # energy   -4.70975470 # occ.  2.00000000
 
ion      s      p      d    tot
    1  0.000  0.000  0.007  0.007
    2  0.000  0.000  0.007  0.008
    3  0.003  0.000  0.006  0.009
    4  0.001  0.000  0.007  0.008
    5  0.000  0.000  0.006  0.006
    6  0.001  0.000  0.008  0.009
    7  0.003  0.000  0.006  0.009
    8  0.001  0.000  0.008  0.009
    9  0.000  0.000  0.020  0.020
   10  0.000  0.000  0.013  0.013
   11  0.002  0.000  0.020  0.023
   12  0.001  0.000  0.026  0.027
   13  0.003  0.000  0.016  0.019
   14  0.000  0.000  0.047  0.047
   15  0.000  0.000  0.035  0.035
   16  0.001  0.000  0.024  0.025
   17  0.000  0.000  0.035  0.036
   18  0.000  0.000  0.034  0.034
   19  0.006  0.000  0.035  0.042
   20  0.000  0.000  0.010  0.011
   21  0.000  0.000  0.045  0.045
   22  0.011  0.000  0.036  0.047
   23  0.000  0.000  0.040  0.040
   24  0.000  0.000  0.069  0.070
   25  0.000  0.000  0.100  0.100
   26  0.008  0.000  0.024  0.032
   27  0.009  0.000  0.041  0.050
   28  0.000  0.000  0.005  0.005
   29  0.002  0.000  0.004  0.006
   30  0.000  0.000  0.010  0.010
   31  0.001  0.001  0.005  0.007
   32  0.001  0.000  0.005  0.006
   33  0.000  0.000  0.010  0.011
   34  0.001  0.000  0.004  0.005
   35  0.000  0.000  0.011  0.011
   36  0.000  0.000  0.002  0.002
   37  0.000  0.000  0.000  0.000
   38  0.000  0.000  0.000  0.000
tot    0.057  0.007  0.781  0.845
 
band    18 # energy   -4.70974541 # occ.  2.00000000
 
ion      s      p      d    tot
    1  0.000  0.000  0.007  0.007
    2  0.003  0.000  0.007  0.010
    3  0.000  0.000  0.008  0.008
    4  0.002  0.000  0.007  0.010
    5  0.000  0.000  0.006  0.006
    6  0.002  0.000  0.006  0.008
    7  0.000  0.000  0.008  0.009
    8  0.002  0.000  0.006  0.008
    9  0.000  0.000  0.020  0.020
   10  0.001  0.000  0.030  0.031
   11  0.001  0.000  0.035  0.036
   12  0.000  0.000  0.016  0.016
   13  0.001  0.000  0.040  0.040
   14  0.003  0.000  0.008  0.012
   15  0.000  0.000  0.035  0.035
   16  0.000  0.000  0.018  0.018
   17  0.000  0.000  0.035  0.035
   18  0.000  0.000  0.035  0.036
   19  0.003  0.000  0.071  0.074
   20  0.000  0.000  0.053  0.053
   21  0.000  0.000  0.019  0.019
   22  0.003  0.000  0.061  0.064
   23  0.000  0.000  0.024  0.024
   24  0.014  0.000  0.028  0.042
   25  0.009  0.000  0.006  0.015
   26  0.002  0.000  0.082  0.084
   27  0.004  0.000  0.056  0.061
   28  0.000  0.000  0.005  0.005
   29  0.000  0.000  0.009  0.009
   30  0.002  0.000  0.003  0.005
   31  0.000  0.000  0.008  0.008
   32  0.001  0.000  0.008  0.009
   33  0.002  0.000  0.003  0.005
   34  0.001  0.000  0.009  0.010
   35  0.000  0.000  0.011  0.011
   36  0.000  0.000  0.002  0.002
   37  0.000  0.000  0.000  0.000
   38  0.000  0.000  0.000  0.000
tot    0.056  0.007  0.781  0.845
 
band    19 # energy   -4.60288551 # occ.  2.00000000
 
ion      s      p      d    tot
    1  0.000  0.000  0.003  0.003
    2  0.001  0.001  0.007  0.008
    3  0.000  0.000  0.005  0.006
    4  0.001  0.001  0.007  0.008
    5  0.000  0.001  0.011  0.012
    6  0.002  0.001  0.004  0.007
    7  0.000  0.000  0.005  0.006
    8  0.002  0.001  0.004  0.007
    9  0.000  0.000  0.008  0.008
   10  0.000  0.001  0.025  0.026
   11  0.001  0.000  0.046  0.047
   12  0.000  0.000  0.007  0.007
   13  0.001  0.000  0.046  0.047
   14  0.003  0.000  0.041  0.044
   15  0.000  0.000  0.029  0.029
   16  0.000  0.000  0.007  0.007
   17  0.000  0.000  0.029  0.029
   18  0.001  0.000  0.024  0.025
   19  0.000  0.000  0.007  0.007
   20  0.000  0.000  0.074  0.075
   21  0.000  0.000  0.086  0.087
   22  0.000  0.000  0.045  0.045
   23  0.000  0.000  0.086  0.087
   24  0.000  0.000  0.022  0.023
   25  0.000  0.001  0.023  0.023
   26  0.000  0.000  0.007  0.007
   27  0.000  0.000  0.045  0.045
   28  0.000  0.000  0.001  0.001
   29  0.000  0.000  0.009  0.009
   30  0.001  0.001  0.009  0.010
   31  0.000  0.000  0.009  0.009
   32  0.000  0.001  0.010  0.011
   33  0.001  0.001  0.009  0.010
   34  0.000  0.001  0.010  0.011
   35  0.000  0.000  0.001  0.001
   36  0.000  0.000  0.033  0.033
   37  0.000  0.040  0.000  0.040
   38  0.000  0.001  0.000  0.001
tot    0.017  0.050  0.796  0.862
 
band    20 # energy   -4.60286361 # occ.  2.00000000
 
ion      s      p      d    tot
    1  0.000  0.000  0.003  0.003
    2  0.001  0.000  0.004  0.006
    3  0.002  0.001  0.006  0.008
    4  0.001  0.000  0.004  0.006
    5  0.000  0.001  0.011  0.012
    6  0.000  0.000  0.007  0.007
    7  0.002  0.001  0.006  0.008
    8  0.000  0.000  0.007  0.007
    9  0.000  0.000  0.008  0.008
   10  0.000  0.000  0.000  0.000
   11  0.002  0.000  0.043  0.045
   12  0.000  0.001  0.019  0.020
   13  0.002  0.000  0.043  0.045
   14  0.000  0.000  0.047  0.048
   15  0.001  0.000  0.026  0.027
   16  0.000  0.001  0.019  0.020
   17  0.001  0.000  0.026  0.027
   18  0.000  0.000  0.031  0.031
   19  0.000  0.000  0.017  0.018
   20  0.000  0.000  0.090  0.090
   21  0.000  0.000  0.078  0.079
   22  0.000  0.000  0.030  0.030
   23  0.000  0.000  0.078  0.079
   24  0.000  0.000  0.053  0.053
   25  0.000  0.000  0.002  0.002
   26  0.000  0.000  0.018  0.018
   27  0.000  0.000  0.030  0.030
   28  0.000  0.000  0.001  0.001
   29  0.001  0.001  0.010  0.011
   30  0.000  0.000  0.010  0.010
   31  0.001  0.001  0.010  0.011
   32  0.001  0.000  0.008  0.009
   33  0.000  0.000  0.010  0.010
   34  0.001  0.000  0.008  0.009
   35  0.000  0.000  0.001  0.001
   36  0.000  0.000  0.033  0.033
   37  0.000  0.040  0.000  0.040
   38  0.000  0.001  0.000  0.001
tot    0.017  0.050  0.796  0.862
 
band    21 # energy   -4.56816306 # occ.  2.00000000
 
ion      s      p      d    tot
    1  0.001  0.000  0.000  0.001
    2  0.000  0.000  0.007  0.007
    3  0.000  0.000  0.007  0.007
    4  0.000  0.000  0.007  0.007
    5  0.000  0.000  0.014  0.014
    6  0.000  0.000  0.007  0.007
    7  0.000  0.000  0.007  0.007
    8  0.000  0.000  0.007  0.007
    9  0.001  0.001  0.008  0.010
   10  0.000  0.000  0.013  0.013
   11  0.000  0.000  0.064  0.065
   12  0.000  0.000  0.013  0.013
   13  0.000  0.000  0.064  0.065
   14  0.000  0.000  0.064  0.065
   15  0.001  0.001  0.048  0.049
   16  0.000  0.000  0.013  0.013