PROCAR new format
# of k-points:   10         # of bands:  252         # of ions:   38

 k-point     1 :    0.00000000 0.00000000 0.00000000     weight = 0.01562500

band     1 # energy  -48.65043696 # occ.  2.00000000
 
ion      s      p      d    tot
    1  0.000  0.000  0.000  0.000
    2  0.000  0.000  0.000  0.000
    3  0.000  0.000  0.000  0.000
    4  0.000  0.000  0.000  0.000
    5  0.000  0.000  0.000  0.000
    6  0.000  0.000  0.000  0.000
    7  0.000  0.000  0.000  0.000
    8  0.000  0.000  0.000  0.000
    9  0.000  0.000  0.000  0.000
   10  0.000  0.000  0.000  0.000
   11  0.000  0.000  0.000  0.000
   12  0.000  0.000  0.000  0.000
   13  0.000  0.000  0.000  0.000
   14  0.000  0.000  0.000  0.000
   15  0.000  0.000  0.000  0.000
   16  0.000  0.000  0.000  0.000
   17  0.000  0.000  0.000  0.000
   18  0.000  0.000  0.000  0.000
   19  0.000  0.000  0.000  0.000
   20  0.000  0.000  0.000  0.000
   21  0.000  0.000  0.000  0.000
   22  0.000  0.000  0.000  0.000
   23  0.000  0.000  0.000  0.000
   24  0.000  0.000  0.000  0.000
   25  0.000  0.000  0.000  0.000
   26  0.000  0.000  0.000  0.000
   27  0.000  0.000  0.000  0.000
   28  0.000  0.000  0.000  0.000
   29  0.000  0.000  0.000  0.000
   30  0.000  0.000  0.000  0.000
   31  0.000  0.000  0.000  0.000
   32  0.000  0.000  0.000  0.000
   33  0.000  0.000  0.000  0.000
   34  0.000  0.000  0.000  0.000
   35  0.000  0.000  0.000  0.000
   36  0.993  0.000  0.000  0.993
   37  0.000  0.000  0.000  0.000
   38  0.000  0.000  0.000  0.000
tot    0.993  0.000  0.000  0.993
 
band     2 # energy  -26.70111949 # occ.  2.00000000
 
ion      s      p      d    tot
    1  0.000  0.000  0.000  0.000
    2  0.000  0.000  0.000  0.000
    3  0.000  0.000  0.000  0.000
    4  0.000  0.000  0.000  0.000
    5  0.000  0.000  0.000  0.000
    6  0.000  0.000  0.000  0.000
    7  0.000  0.000  0.000  0.000
    8  0.000  0.000  0.000  0.000
    9  0.000  0.000  0.000  0.000
   10  0.000  0.000  0.000  0.000
   11  0.000  0.000  0.000  0.000
   12  0.000  0.000  0.000  0.000
   13  0.000  0.000  0.000  0.000
   14  0.000  0.000  0.000  0.000
   15  0.000  0.000  0.000  0.000
   16  0.000  0.000  0.000  0.000
   17  0.000  0.000  0.000  0.000
   18  0.000  0.000  0.000  0.000
   19  0.000  0.000  0.000  0.000
   20  0.000  0.000  0.000  0.000
   21  0.000  0.000  0.000  0.000
   22  0.000  0.000  0.000  0.000
   23  0.000  0.000  0.000  0.000
   24  0.000  0.000  0.000  0.000
   25  0.000  0.000  0.000  0.000
   26  0.000  0.000  0.000  0.000
   27  0.000  0.000  0.000  0.000
   28  0.000  0.000  0.000  0.000
   29  0.000  0.000  0.000  0.000
   30  0.000  0.000  0.000  0.001
   31  0.000  0.000  0.000  0.000
   32  0.000  0.000  0.000  0.000
   33  0.000  0.000  0.000  0.001
   34  0.000  0.000  0.000  0.000
   35  0.000  0.000  0.000  0.000
   36  0.000  0.970  0.000  0.970
   37  0.000  0.000  0.000  0.000
   38  0.000  0.000  0.000  0.000
tot    0.001  0.971  0.001  0.973
 
band     3 # energy  -26.70110730 # occ.  2.00000000
 
ion      s      p      d    tot
    1  0.000  0.000  0.000  0.000
    2  0.000  0.000  0.000  0.000
    3  0.000  0.000  0.000  0.000
    4  0.000  0.000  0.000  0.000
    5  0.000  0.000  0.000  0.000
    6  0.000  0.000  0.000  0.000
    7  0.000  0.000  0.000  0.000
    8  0.000  0.000  0.000  0.000
    9  0.000  0.000  0.000  0.000
   10  0.000  0.000  0.000  0.000
   11  0.000  0.000  0.000  0.000
   12  0.000  0.000  0.000  0.000
   13  0.000  0.000  0.000  0.000
   14  0.000  0.000  0.000  0.000
   15  0.000  0.000  0.000  0.000
   16  0.000  0.000  0.000  0.000
   17  0.000  0.000  0.000  0.000
   18  0.000  0.000  0.000  0.000
   19  0.000  0.000  0.000  0.000
   20  0.000  0.000  0.000  0.000
   21  0.000  0.000  0.000  0.000
   22  0.000  0.000  0.000  0.000
   23  0.000  0.000  0.000  0.000
   24  0.000  0.000  0.000  0.000
   25  0.000  0.000  0.000  0.000
   26  0.000  0.000  0.000  0.000
   27  0.000  0.000  0.000  0.000
   28  0.000  0.000  0.000  0.000
   29  0.000  0.000  0.000  0.001
   30  0.000  0.000  0.000  0.000
   31  0.000  0.000  0.000  0.001
   32  0.000  0.000  0.000  0.001
   33  0.000  0.000  0.000  0.000
   34  0.000  0.000  0.000  0.001
   35  0.000  0.000  0.000  0.000
   36  0.000  0.970  0.000  0.970
   37  0.000  0.000  0.000  0.000
   38  0.000  0.000  0.000  0.000
tot    0.001  0.971  0.001  0.973
 
band     4 # energy  -26.65946780 # occ.  2.00000000
 
ion      s      p      d    tot
    1  0.000  0.000  0.000  0.000
    2  0.000  0.000  0.000  0.000
    3  0.000  0.000  0.000  0.000
    4  0.000  0.000  0.000  0.000
    5  0.000  0.000  0.000  0.000
    6  0.000  0.000  0.000  0.000
    7  0.000  0.000  0.000  0.000
    8  0.000  0.000  0.000  0.000
    9  0.000  0.000  0.000  0.000
   10  0.000  0.000  0.000  0.000
   11  0.000  0.000  0.000  0.000
   12  0.000  0.000  0.000  0.000
   13  0.000  0.000  0.000  0.000
   14  0.000  0.000  0.000  0.000
   15  0.000  0.000  0.000  0.000
   16  0.000  0.000  0.000  0.000
   17  0.000  0.000  0.000  0.000
   18  0.000  0.000  0.000  0.000
   19  0.000  0.000  0.000  0.000
   20  0.000  0.000  0.000  0.001
   21  0.000  0.000  0.000  0.001
   22  0.000  0.000  0.000  0.000
   23  0.000  0.000  0.000  0.001
   24  0.000  0.000  0.000  0.000
   25  0.000  0.000  0.000  0.000
   26  0.000  0.000  0.000  0.000
   27  0.000  0.000  0.000  0.000
   28  0.000  0.000  0.000  0.000
   29  0.000  0.000  0.000  0.000
   30  0.000  0.000  0.000  0.000
   31  0.000  0.000  0.000  0.000
   32  0.000  0.000  0.000  0.000
   33  0.000  0.000  0.000  0.000
   34  0.000  0.000  0.000  0.000
   35  0.000  0.000  0.000  0.000
   36  0.000  0.966  0.000  0.966
   37  0.001  0.001  0.000  0.002
   38  0.000  0.000  0.000  0.000
tot    0.002  0.967  0.001  0.970
 
band     5 # energy  -23.25340193 # occ.  2.00000000
 
ion      s      p      d    tot
    1  0.000  0.000  0.000  0.000
    2  0.000  0.000  0.000  0.000
    3  0.000  0.000  0.000  0.000
    4  0.000  0.000  0.000  0.000
    5  0.000  0.000  0.000  0.000
    6  0.000  0.000  0.000  0.000
    7  0.000  0.000  0.000  0.000
    8  0.000  0.000  0.000  0.000
    9  0.000  0.000  0.000  0.000
   10  0.000  0.000  0.000  0.000
   11  0.000  0.000  0.000  0.000
   12  0.000  0.000  0.000  0.000
   13  0.000  0.000  0.000  0.000
   14  0.000  0.000  0.000  0.000
   15  0.000  0.000  0.000  0.000
   16  0.000  0.000  0.000  0.000
   17  0.000  0.000  0.000  0.000
   18  0.000  0.000  0.000  0.000
   19  0.000  0.000  0.000  0.000
   20  0.000  0.000  0.000  0.000
   21  0.000  0.000  0.000  0.000
   22  0.000  0.000  0.000  0.000
   23  0.000  0.000  0.000  0.000
   24  0.000  0.000  0.000  0.000
   25  0.000  0.000  0.000  0.000
   26  0.000  0.000  0.000  0.000
   27  0.000  0.000  0.000  0.000
   28  0.000  0.000  0.000  0.000
   29  0.000  0.000  0.000  0.000
   30  0.000  0.000  0.000  0.000
   31  0.000  0.000  0.000  0.000
   32  0.000  0.000  0.000  0.000
   33  0.000  0.000  0.000  0.000
   34  0.000  0.000  0.000  0.000
   35  0.000  0.000  0.000  0.000
   36  0.000  0.000  0.000  0.000
   37  0.160  0.122  0.000  0.283
   38  0.642  0.098  0.000  0.740
tot    0.803  0.221  0.000  1.023
 
band     6 # energy   -8.36670122 # occ.  2.00000000
 
ion      s      p      d    tot
    1  0.000  0.000  0.000  0.000
    2  0.000  0.000  0.000  0.000
    3  0.000  0.000  0.000  0.000
    4  0.000  0.000  0.000  0.000
    5  0.000  0.000  0.000  0.000
    6  0.000  0.000  0.000  0.000
    7  0.000  0.000  0.000  0.000
    8  0.000  0.000  0.000  0.000
    9  0.000  0.000  0.000  0.000
   10  0.000  0.000  0.000  0.000
   11  0.000  0.000  0.000  0.000
   12  0.000  0.000  0.000  0.000
   13  0.000  0.000  0.000  0.000
   14  0.000  0.000  0.000  0.000
   15  0.000  0.000  0.000  0.000
   16  0.000  0.000  0.000  0.000
   17  0.000  0.000  0.000  0.000
   18  0.000  0.000  0.000  0.000
   19  0.000  0.000  0.000  0.000
   20  0.001  0.000  0.000  0.001
   21  0.001  0.000  0.000  0.001
   22  0.000  0.000  0.000  0.000
   23  0.001  0.000  0.000  0.001
   24  0.000  0.000  0.000  0.000
   25  0.000  0.000  0.000  0.000
   26  0.000  0.000  0.000  0.000
   27  0.000  0.000  0.000  0.000
   28  0.000  0.000  0.000  0.000
   29  0.001  0.000  0.000  0.001
   30  0.001  0.000  0.000  0.001
   31  0.001  0.000  0.000  0.001
   32  0.001  0.000  0.000  0.001
   33  0.001  0.000  0.000  0.001
   34  0.001  0.000  0.000  0.001
   35  0.000  0.000  0.000  0.000
   36  0.006  0.003  0.008  0.016
   37  0.238  0.001  0.000  0.239
   38  0.159  0.329  0.000  0.488
tot    0.415  0.333  0.009  0.757
 
band     7 # energy   -7.89245538 # occ.  2.00000000
 
ion      s      p      d    tot
    1  0.007  0.001  0.000  0.007
    2  0.007  0.001  0.000  0.007
    3  0.007  0.001  0.000  0.007
    4  0.007  0.001  0.000  0.007
    5  0.007  0.001  0.000  0.007
    6  0.007  0.001  0.000  0.007
    7  0.007  0.001  0.000  0.007
    8  0.007  0.001  0.000  0.007
    9  0.006  0.001  0.000  0.007
   10  0.027  0.000  0.000  0.027
   11  0.027  0.000  0.000  0.027
   12  0.027  0.000  0.000  0.027
   13  0.027  0.000  0.000  0.027
   14  0.027  0.000  0.000  0.027
   15  0.026  0.000  0.000  0.026
   16  0.027  0.000  0.000  0.027
   17  0.026  0.000  0.000  0.026
   18  0.026  0.000  0.000  0.026
   19  0.023  0.000  0.000  0.023
   20  0.025  0.000  0.000  0.026
   21  0.025  0.000  0.000  0.026
   22  0.023  0.000  0.000  0.024
   23  0.025  0.000  0.000  0.026
   24  0.023  0.000  0.000  0.024
   25  0.023  0.000  0.000  0.023
   26  0.023  0.000  0.000  0.023
   27  0.023  0.000  0.000  0.024
   28  0.005  0.000  0.000  0.005
   29  0.004  0.000  0.000  0.005
   30  0.004  0.000  0.000  0.005
   31  0.004  0.000  0.000  0.005
   32  0.004  0.000  0.000  0.005
   33  0.004  0.000  0.000  0.005
   34  0.004  0.000  0.000  0.005
   35  0.005  0.000  0.000  0.005
   36  0.002  0.001  0.000  0.003
   37  0.003  0.001  0.000  0.004
   38  0.003  0.010  0.000  0.013
tot    0.557  0.022  0.003  0.582
 
band     8 # energy   -6.74278604 # occ.  2.00000000
 
ion      s      p      d    tot
    1  0.016  0.000  0.001  0.018
    2  0.016  0.000  0.001  0.017
    3  0.016  0.000  0.001  0.017
    4  0.016  0.000  0.001  0.017
    5  0.016  0.000  0.001  0.017
    6  0.016  0.000  0.001  0.017
    7  0.016  0.000  0.001  0.017
    8  0.016  0.000  0.001  0.017
    9  0.016  0.000  0.001  0.017
   10  0.011  0.001  0.002  0.014
   11  0.010  0.001  0.002  0.014
   12  0.011  0.001  0.002  0.014
   13  0.010  0.001  0.002  0.014
   14  0.010  0.001  0.002  0.014
   15  0.010  0.001  0.002  0.014
   16  0.011  0.001  0.002  0.014
   17  0.010  0.001  0.002  0.014
   18  0.010  0.001  0.002  0.014
   19  0.013  0.001  0.003  0.017
   20  0.014  0.001  0.004  0.019
   21  0.014  0.001  0.004  0.019
   22  0.013  0.001  0.003  0.017
   23  0.014  0.001  0.004  0.019
   24  0.013  0.001  0.003  0.017
   25  0.013  0.001  0.003  0.017
   26  0.013  0.001  0.003  0.017
   27  0.013  0.001  0.003  0.017
   28  0.016  0.000  0.001  0.017
   29  0.015  0.000  0.001  0.017
   30  0.015  0.000  0.001  0.017
   31  0.015  0.000  0.001  0.017
   32  0.015  0.000  0.001  0.017
   33  0.015  0.000  0.001  0.017
   34  0.015  0.000  0.001  0.017
   35  0.016  0.000  0.001  0.017
   36  0.007  0.000  0.000  0.007
   37  0.000  0.003  0.000  0.003
   38  0.001  0.008  0.000  0.009
tot    0.485  0.040  0.067  0.593
 
band     9 # energy   -5.87816700 # occ.  2.00000000
 
ion      s      p      d    tot
    1  0.000  0.000  0.000  0.000
    2  0.000  0.000  0.000  0.000
    3  0.000  0.000  0.000  0.000
    4  0.000  0.000  0.000  0.000
    5  0.000  0.000  0.000  0.000
    6  0.000  0.000  0.000  0.000
    7  0.000  0.000  0.000  0.000
    8  0.000  0.000  0.000  0.000
    9  0.000  0.000  0.000  0.000
   10  0.001  0.000  0.000  0.001
   11  0.000  0.000  0.000  0.000
   12  0.000  0.000  0.000  0.000
   13  0.000  0.000  0.000  0.000
   14  0.000  0.000  0.000  0.000
   15  0.000  0.000  0.000  0.000
   16  0.000  0.000  0.000  0.000
   17  0.000  0.000  0.000  0.000
   18  0.000  0.000  0.000  0.000
   19  0.000  0.000  0.000  0.001
   20  0.001  0.000  0.000  0.001
   21  0.000  0.000  0.001  0.001
   22  0.000  0.000  0.000  0.000
   23  0.000  0.000  0.001  0.001
   24  0.000  0.000  0.000  0.000
   25  0.001  0.000  0.000  0.001
   26  0.000  0.000  0.000  0.001
   27  0.000  0.000  0.000  0.000
   28  0.000  0.000  0.000  0.000
   29  0.000  0.000  0.001  0.001
   30  0.000  0.000  0.000  0.000
   31  0.000  0.000  0.001  0.001
   32  0.000  0.000  0.001  0.001
   33  0.000  0.000  0.000  0.000
   34  0.000  0.000  0.001  0.001
   35  0.000  0.000  0.000  0.000
   36  0.000  0.000  0.003  0.004
   37  0.000  0.168  0.000  0.168
   38  0.000  0.499  0.000  0.499
tot    0.005  0.668  0.012  0.686
 
band    10 # energy   -5.87808538 # occ.  2.00000000
 
ion      s      p      d    tot
    1  0.000  0.000  0.000  0.000
    2  0.000  0.000  0.000  0.000
    3  0.000  0.000  0.000  0.000
    4  0.000  0.000  0.000  0.000
    5  0.000  0.000  0.000  0.000
    6  0.000  0.000  0.000  0.000
    7  0.000  0.000  0.000  0.000
    8  0.000  0.000  0.000  0.000
    9  0.000  0.000  0.000  0.000
   10  0.000  0.000  0.000  0.000
   11  0.000  0.000  0.000  0.000
   12  0.001  0.000  0.000  0.001
   13  0.000  0.000  0.000  0.000
   14  0.000  0.000  0.000  0.000
   15  0.000  0.000  0.000  0.000
   16  0.001  0.000  0.000  0.001
   17  0.000  0.000  0.000  0.000
   18  0.000  0.000  0.000  0.000
   19  0.000  0.000  0.000  0.001
   20  0.000  0.000  0.001  0.001
   21  0.000  0.000  0.001  0.001
   22  0.000  0.000  0.000  0.000
   23  0.000  0.000  0.001  0.001
   24  0.000  0.000  0.000  0.000
   25  0.000  0.000  0.001  0.001
   26  0.000  0.000  0.000  0.001
   27  0.000  0.000  0.000  0.000
   28  0.000  0.000  0.000  0.000
   29  0.000  0.000  0.001  0.001
   30  0.000  0.000  0.001  0.001
   31  0.000  0.000  0.001  0.001
   32  0.000  0.000  0.000  0.000
   33  0.000  0.000  0.001  0.001
   34  0.000  0.000  0.000  0.000
   35  0.000  0.000  0.000  0.000
   36  0.000  0.000  0.003  0.004
   37  0.000  0.168  0.000  0.168
   38  0.000  0.499  0.000  0.499
tot    0.005  0.668  0.012  0.686
 
band    11 # energy   -5.81746226 # occ.  2.00000000
 
ion      s      p      d    tot
    1  0.005  0.000  0.010  0.015
    2  0.010  0.000  0.008  0.017
    3  0.010  0.000  0.008  0.017
    4  0.010  0.000  0.008  0.017
    5  0.007  0.000  0.006  0.013
    6  0.010  0.000  0.008  0.017
    7  0.010  0.000  0.008  0.017
    8  0.010  0.000  0.008  0.017
    9  0.020  0.000  0.005  0.026
   10  0.005  0.001  0.005  0.011
   11  0.005  0.002  0.003  0.010
   12  0.005  0.001  0.005  0.011
   13  0.005  0.002  0.003  0.010
   14  0.005  0.002  0.003  0.010
   15  0.001  0.001  0.005  0.006
   16  0.005  0.001  0.005  0.011
   17  0.001  0.001  0.005  0.006
   18  0.001  0.001  0.005  0.006
   19  0.002  0.001  0.012  0.015
   20  0.017  0.001  0.011  0.030
   21  0.017  0.001  0.011  0.030
   22  0.000  0.001  0.008  0.009
   23  0.017  0.001  0.011  0.030
   24  0.000  0.001  0.008  0.009
   25  0.002  0.001  0.012  0.015
   26  0.002  0.001  0.012  0.015
   27  0.000  0.001  0.008  0.009
   28  0.021  0.000  0.010  0.030
   29  0.018  0.000  0.014  0.032
   30  0.018  0.000  0.014  0.032
   31  0.018  0.000  0.014  0.032
   32  0.018  0.000  0.014  0.032
   33  0.018  0.000  0.014  0.032
   34  0.018  0.000  0.014  0.032
   35  0.028  0.000  0.012  0.039
   36  0.002  0.001  0.006  0.009
   37  0.000  0.001  0.000  0.001
   38  0.000  0.001  0.000  0.002
tot    0.341  0.025  0.311  0.677
 
band    12 # energy   -5.77472798 # occ.  2.00000000
 
ion      s      p      d    tot
    1  0.028  0.001  0.003  0.031
    2  0.008  0.000  0.010  0.018
    3  0.008  0.000  0.010  0.018
    4  0.008  0.000  0.010  0.018
    5  0.008  0.000  0.010  0.017
    6  0.008  0.000  0.010  0.018
    7  0.008  0.000  0.010  0.018
    8  0.008  0.000  0.010  0.018
    9  0.000  0.001  0.011  0.012
   10  0.002  0.000  0.029  0.031
   11  0.001  0.001  0.017  0.019
   12  0.002  0.000  0.029  0.031
   13  0.001  0.001  0.017  0.019
   14  0.001  0.001  0.017  0.019
   15  0.030  0.002  0.004  0.037
   16  0.002  0.000  0.029  0.031
   17  0.030  0.002  0.004  0.037
   18  0.030  0.002  0.004  0.037
   19  0.001  0.001  0.013  0.015
   20  0.011  0.000  0.024  0.035
   21  0.011  0.000  0.024  0.035
   22  0.016  0.002  0.003  0.021
   23  0.011  0.000  0.024  0.035
   24  0.015  0.002  0.003  0.021
   25  0.001  0.001  0.013  0.015
   26  0.001  0.001  0.013  0.015
   27  0.016  0.002  0.003  0.021
   28  0.000  0.000  0.001  0.001
   29  0.000  0.000  0.002  0.003
   30  0.000  0.000  0.002  0.003
   31  0.000  0.000  0.002  0.003
   32  0.000  0.000  0.002  0.003
   33  0.000  0.000  0.002  0.003
   34  0.000  0.000  0.002  0.003
   35  0.004  0.001  0.001  0.005
   36  0.006  0.000  0.005  0.012
   37  0.002  0.013  0.000  0.015
   38  0.001  0.014  0.000  0.015
tot    0.277  0.053  0.378  0.708
 
band    13 # energy   -5.76885988 # occ.  2.00000000
 
ion      s      p      d    tot
    1  0.000  0.001  0.009  0.009
    2  0.003  0.001  0.003  0.007
    3  0.007  0.001  0.003  0.011
    4  0.003  0.001  0.003  0.007
    5  0.000  0.001  0.006  0.007
    6  0.001  0.000  0.003  0.004
    7  0.007  0.001  0.003  0.011
    8  0.001  0.000  0.003  0.004
    9  0.000  0.000  0.001  0.001
   10  0.000  0.000  0.038  0.038
   11  0.035  0.001  0.014  0.050
   12  0.032  0.002  0.012  0.046
   13  0.035  0.001  0.014  0.051
   14  0.000  0.004  0.019  0.023
   15  0.000  0.001  0.010  0.011
   16  0.032  0.002  0.013  0.046
   17  0.000  0.001  0.010  0.011
   18  0.000  0.003  0.007  0.010
   19  0.011  0.001  0.011  0.023
   20  0.000  0.002  0.040  0.042
   21  0.046  0.002  0.016  0.064
   22  0.009  0.001  0.010  0.020
   23  0.045  0.002  0.016  0.063
   24  0.000  0.001  0.022  0.023
   25  0.000  0.004  0.004  0.009
   26  0.011  0.001  0.011  0.024
   27  0.008  0.001  0.010  0.020
   28  0.000  0.000  0.001  0.002
   29  0.000  0.000  0.002  0.003
   30  0.004  0.001  0.003  0.007
   31  0.000  0.000  0.002  0.003
   32  0.005  0.001  0.003  0.009
   33  0.004  0.001  0.003  0.007
   34  0.005  0.001  0.003  0.009
   35  0.000  0.000  0.004  0.004
   36  0.000  0.001  0.003  0.005
   37  0.000  0.001  0.000  0.001
   38  0.000  0.004  0.000  0.004
tot    0.302  0.046  0.341  0.689
 
band    14 # energy   -5.76883047 # occ.  2.00000000
 
ion      s      p      d    tot
    1  0.000  0.001  0.009  0.009
    2  0.004  0.001  0.003  0.007
    3  0.000  0.000  0.003  0.004
    4  0.004  0.001  0.003  0.007
    5  0.000  0.001  0.006  0.007
    6  0.006  0.001  0.004  0.011
    7  0.000  0.000  0.003  0.004
    8  0.006  0.001  0.004  0.011
    9  0.000  0.000  0.001  0.001
   10  0.042  0.002  0.004  0.049
   11  0.012  0.003  0.018  0.032
   12  0.010  0.001  0.030  0.041
   13  0.011  0.003  0.018  0.032
   14  0.046  0.001  0.013  0.059
   15  0.000  0.002  0.008  0.010
   16  0.011  0.001  0.029  0.041
   17  0.000  0.002  0.008  0.010
   18  0.000  0.000  0.011  0.012
   19  0.004  0.003  0.007  0.014
   20  0.061  0.002  0.008  0.071
   21  0.015  0.002  0.032  0.049
   22  0.003  0.001  0.018  0.022
   23  0.015  0.002  0.032  0.049
   24  0.011  0.001  0.006  0.019
   25  0.015  0.000  0.013  0.028
   26  0.004  0.003  0.007  0.013
   27  0.003  0.001  0.018  0.022
   28  0.000  0.000  0.001  0.002
   29  0.006  0.001  0.003  0.010
   30  0.002  0.001  0.003  0.006
   31  0.006  0.001  0.003  0.010
   32  0.001  0.000  0.002  0.003
   33  0.002  0.001  0.003  0.006
   34  0.001  0.000  0.002  0.003
   35  0.000  0.000  0.004  0.004
   36  0.000  0.001  0.003  0.005
   37  0.000  0.001  0.000  0.001
   38  0.000  0.004  0.000  0.004
tot    0.302  0.046  0.341  0.689
 
band    15 # energy   -5.74929776 # occ.  2.00000000
 
ion      s      p      d    tot
    1  0.000  0.001  0.010  0.011
    2  0.005  0.000  0.008  0.013
    3  0.005  0.000  0.008  0.013
    4  0.005  0.000  0.008  0.013
    5  0.012  0.000  0.003  0.016
    6  0.005  0.000  0.008  0.013
    7  0.005  0.000  0.008  0.013
    8  0.005  0.000  0.008  0.013
    9  0.010  0.000  0.007  0.016
   10  0.024  0.001  0.012  0.037
   11  0.000  0.000  0.029  0.029
   12  0.024  0.001  0.012  0.037
   13  0.000  0.000  0.029  0.029
   14  0.000  0.000  0.029  0.029
   15  0.000  0.001  0.019  0.020
   16  0.024  0.001  0.012  0.037
   17  0.000  0.001  0.019  0.020
   18  0.000  0.001  0.019  0.020
   19  0.000  0.001  0.017  0.018
   20  0.002  0.000  0.029  0.031
   21  0.002  0.000  0.029  0.031
   22  0.019  0.000  0.014  0.034
   23  0.002  0.000  0.029  0.031
   24  0.019  0.000  0.014  0.034
   25  0.000  0.001  0.017  0.018
   26  0.000  0.001  0.017  0.018
   27  0.019  0.000  0.014  0.034
   28  0.011  0.000  0.005  0.016
   29  0.005  0.000  0.007  0.012
   30  0.005  0.000  0.007  0.012
   31  0.005  0.000  0.007  0.012
   32  0.005  0.000  0.007  0.012
   33  0.005  0.000  0.007  0.012
   34  0.005  0.000  0.007  0.012
   35  0.000  0.001  0.009  0.010
   36  0.004  0.000  0.000  0.004
   37  0.001  0.005  0.000  0.006
   38  0.000  0.006  0.000  0.006
tot    0.235  0.024  0.480  0.739
 
band    16 # energy   -5.73124310 # occ.  2.00000000
 
ion      s      p      d    tot
    1  0.004  0.000  0.000  0.005
    2  0.000  0.001  0.005  0.006
    3  0.000  0.001  0.005  0.006
    4  0.000  0.001  0.005  0.006
    5  0.012  0.002  0.002  0.016
    6  0.000  0.001  0.005  0.006
    7  0.000  0.001  0.005  0.006
    8  0.000  0.001  0.005  0.006
    9  0.005  0.000  0.001  0.006
   10  0.006  0.003  0.011  0.020
   11  0.033  0.002  0.006  0.041
   12  0.006  0.003  0.011  0.020
   13  0.033  0.002  0.006  0.041
   14  0.033  0.002  0.006  0.041
   15  0.003  0.000  0.029  0.032
   16  0.006  0.003  0.011  0.020
   17  0.003  0.000  0.029  0.032
   18  0.003  0.000  0.029  0.032
   19  0.030  0.001  0.010  0.042
   20  0.007  0.003  0.015  0.024
   21  0.007  0.003  0.015  0.024
   22  0.000  0.001  0.026  0.026
   23  0.007  0.003  0.015  0.024
   24  0.000  0.001  0.026  0.026
   25  0.030  0.001  0.010  0.042
   26  0.030  0.001  0.010  0.042
   27  0.000  0.001  0.026  0.026
   28  0.003  0.001  0.006  0.011
   29  0.002  0.000  0.005  0.008
   30  0.002  0.000  0.005  0.008
   31  0.002  0.000  0.005  0.008
   32  0.002  0.000  0.005  0.008
   33  0.002  0.000  0.005  0.008
   34  0.002  0.000  0.005  0.008
   35  0.006  0.000  0.000  0.007
   36  0.005  0.000  0.000  0.005
   37  0.001  0.003  0.000  0.004
   38  0.000  0.004  0.000  0.004
tot    0.289  0.044  0.367  0.699
 
band    17 # energy   -5.70787973 # occ.  2.00000000
 
ion      s      p      d    tot
    1  0.000  0.001  0.002  0.003
    2  0.003  0.001  0.004  0.008
    3  0.008  0.001  0.004  0.013
    4  0.003  0.001  0.004  0.008
    5  0.000  0.000  0.006  0.006
    6  0.001  0.000  0.003  0.005
    7  0.008  0.001  0.004  0.013
    8  0.001  0.000  0.003  0.005
    9  0.000  0.001  0.010  0.012
   10  0.018  0.000  0.017  0.036
   11  0.004  0.001  0.024  0.028
   12  0.004  0.004  0.006  0.014
   13  0.003  0.001  0.024  0.028
   14  0.014  0.001  0.006  0.021
   15  0.016  0.001  0.030  0.048
   16  0.005  0.004  0.006  0.015
   17  0.015  0.001  0.031  0.047
   18  0.062  0.001  0.006  0.070
   19  0.009  0.001  0.027  0.037
   20  0.000  0.001  0.015  0.015
   21  0.000  0.002  0.010  0.012
   22  0.010  0.003  0.016  0.029
   23  0.000  0.002  0.010  0.012
   24  0.040  0.001  0.010  0.051
   25  0.036  0.002  0.003  0.041
   26  0.009  0.001  0.028  0.037
   27  0.010  0.003  0.016  0.029
   28  0.000  0.000  0.007  0.007
   29  0.000  0.000  0.002  0.003
   30  0.002  0.000  0.002  0.005
   31  0.000  0.000  0.002  0.003
   32  0.004  0.001  0.003  0.008
   33  0.002  0.000  0.002  0.005
   34  0.004  0.001  0.003  0.008
   35  0.000  0.001  0.005  0.005
   36  0.000  0.000  0.000  0.000
   37  0.000  0.001  0.000  0.001
   38  0.000  0.004  0.000  0.004
tot    0.296  0.046  0.350  0.692
 
band    18 # energy   -5.70784669 # occ.  2.00000000
 
ion      s      p      d    tot
    1  0.000  0.001  0.002  0.003
    2  0.005  0.001  0.003  0.009
    3  0.000  0.000  0.004  0.004
    4  0.005  0.001  0.003  0.009
    5  0.000  0.000  0.006  0.006
    6  0.007  0.001  0.004  0.013
    7  0.000  0.000  0.004  0.004
    8  0.007  0.001  0.004  0.013
    9  0.000  0.001  0.010  0.012
   10  0.000  0.005  0.003  0.007
   11  0.010  0.001  0.012  0.024
   12  0.014  0.001  0.014  0.029
   13  0.011  0.001  0.012  0.024
   14  0.000  0.001  0.030  0.031
   15  0.046  0.001  0.015  0.062
   16  0.014  0.001  0.013  0.028
   17  0.047  0.001  0.014  0.063
   18  0.000  0.001  0.038  0.040
   19  0.027  0.002  0.011  0.040
   20  0.000  0.003  0.008  0.011
   21  0.000  0.001  0.013  0.014
   22  0.030  0.001  0.012  0.044
   23  0.000  0.001  0.013  0.014
   24  0.000  0.003  0.018  0.022
   25  0.000  0.000  0.036  0.036
   26  0.027  0.002  0.011  0.040
   27  0.030  0.001  0.012  0.043
   28  0.000  0.000  0.007  0.007
   29  0.004  0.001  0.002  0.007
   30  0.002  0.001  0.003  0.005
   31  0.004  0.001  0.002  0.007
   32  0.000  0.000  0.002  0.002
   33  0.002  0.001  0.003  0.006
   34  0.000  0.000  0.002  0.002
   35  0.000  0.001  0.005  0.005
   36  0.000  0.000  0.000  0.000
   37  0.000  0.001  0.000  0.001
   38  0.000  0.004  0.000  0.004
tot    0.296  0.046  0.350  0.692
 
band    19 # energy   -5.33505552 # occ.  2.00000000
 
ion      s      p      d    tot
    1  0.000  0.000  0.001  0.001
    2  0.000  0.001  0.006  0.006
    3  0.000  0.001  0.006  0.006
    4  0.000  0.001  0.006  0.006
    5  0.008  0.001  0.000  0.009
    6  0.000  0.001  0.006  0.006
    7  0.000  0.001  0.006  0.006
    8  0.000  0.001  0.006  0.006
    9  0.011  0.001  0.002  0.014
   10  0.003  0.000  0.032  0.035
   11  0.002  0.001  0.011  0.014
   12  0.003  0.000  0.032  0.035
   13  0.002  0.001  0.011  0.014
   14  0.002  0.001  0.011  0.014
   15  0.015  0.002  0.007  0.023
   16  0.003  0.000  0.032  0.035
   17  0.015  0.002  0.007  0.023
   18  0.015  0.002  0.007  0.023
   19  0.004  0.000  0.016  0.021
   20  0.003  0.002  0.020  0.025
   21  0.003  0.002  0.020  0.025
   22  0.000  0.001  0.013  0.014
   23  0.003  0.002  0.020  0.025
   24  0.000  0.001  0.013  0.014
   25  0.004  0.000  0.016  0.021
   26  0.004  0.000  0.016  0.021
   27  0.000  0.001  0.013  0.014
   28  0.002  0.000  0.000  0.003
   29  0.000  0.000  0.003  0.003
   30  0.000  0.000  0.003  0.003
   31  0.000  0.000  0.003  0.003
   32  0.000  0.000  0.003  0.003
   33  0.000  0.000  0.003  0.003
   34  0.000  0.000  0.003  0.003
   35  0.006  0.000  0.000  0.007
   36  0.015  0.001  0.027  0.043
   37  0.023  0.086  0.000  0.109
   38  0.002  0.076  0.000  0.078
tot    0.154  0.189  0.372  0.715
 
band    20 # energy   -5.28866852 # occ.  2.00000000
 
ion      s      p      d    tot
    1  0.000  0.001  0.004  0.004
    2  0.000  0.000  0.005  0.005
    3  0.008  0.001  0.004  0.014
    4  0.000  0.001  0.005  0.006
    5  0.000  0.001  0.010  0.011
    6  0.005  0.001  0.004  0.009
    7  0.008  0.001  0.004  0.014
    8  0.005  0.001  0.004  0.009
    9  0.000  0.000  0.008  0.008
   10  0.000  0.001  0.051  0.051
   11  0.015  0.001  0.021  0.036
   12  0.007  0.001  0.018  0.027
   13  0.015  0.001  0.020  0.036
   14  0.000  0.000  0.047  0.047
   15  0.001  0.000  0.019  0.020
   16  0.007  0.001  0.019  0.028
   17  0.001  0.000  0.019  0.020
   18  0.000  0.001  0.011  0.012
   19  0.005  0.000  0.020  0.025
   20  0.000  0.000  0.084  0.084
   21  0.017  0.001  0.026  0.044
   22  0.003  0.001  0.019  0.023
   23  0.017  0.001  0.027  0.044
   24  0.000  0.001  0.032  0.033
   25  0.000  0.001  0.012  0.013
   26  0.005  0.000  0.020  0.026
   27  0.003  0.001  0.019  0.023
   28  0.000  0.000  0.009  0.009
   29  0.003  0.001  0.005  0.008
   30  0.008  0.001  0.005  0.014
   31  0.003  0.001  0.005  0.008
   32  0.002  0.001  0.004  0.007
   33  0.009  0.001  0.005  0.014
   34  0.002  0.001  0.004  0.007
   35  0.000  0.000  0.003  0.003
   36  0.000  0.001  0.003  0.005
   37  0.000  0.000  0.000  0.000
   38  0.000  0.000  0.000  0.000
tot    0.149  0.028  0.572  0.749
 
band    21 # energy   -5.28866731 # occ.  2.00000000
 
ion      s      p      d    tot
    1  0.000  0.001  0.004  0.004
    2  0.009  0.001  0.004  0.014
    3  0.001  0.000  0.004  0.005
    4  0.009  0.001  0.004  0.014
    5  0.000  0.001  0.010  0.011
    6  0.004  0.001  0.005  0.010
    7  0.001  0.000  0.004  0.005
    8  0.004  0.001  0.005  0.010
    9  0.000  0.000  0.008  0.008
   10  0.010  0.002  0.008  0.019
   11  0.005  0.000  0.038  0.043
   12  0.002  0.001  0.040  0.044
   13  0.005  0.000  0.038  0.043
   14  0.020  0.001  0.012  0.033
   15  0.000  0.001  0.013  0.015
   16  0.003  0.001  0.040  0.043