PROCAR new format
# of k-points:   10         # of bands:  252         # of ions:   37

 k-point     1 :    0.00000000 0.00000000 0.00000000     weight = 0.01562500

band     1 # energy  -17.77712551 # occ.  2.00000000
 
ion      s      p      d    tot
    1  0.000  0.000  0.000  0.000
    2  0.000  0.000  0.000  0.000
    3  0.000  0.000  0.000  0.000
    4  0.000  0.000  0.000  0.000
    5  0.000  0.000  0.000  0.000
    6  0.000  0.000  0.000  0.000
    7  0.000  0.000  0.000  0.000
    8  0.000  0.000  0.000  0.000
    9  0.000  0.000  0.000  0.000
   10  0.000  0.000  0.000  0.000
   11  0.000  0.000  0.000  0.000
   12  0.000  0.000  0.000  0.000
   13  0.000  0.000  0.000  0.000
   14  0.000  0.000  0.000  0.000
   15  0.000  0.000  0.000  0.000
   16  0.000  0.000  0.000  0.000
   17  0.000  0.000  0.000  0.000
   18  0.000  0.000  0.000  0.000
   19  0.000  0.000  0.000  0.000
   20  0.000  0.000  0.000  0.000
   21  0.000  0.000  0.000  0.000
   22  0.000  0.000  0.000  0.000
   23  0.000  0.000  0.000  0.000
   24  0.000  0.000  0.000  0.000
   25  0.000  0.000  0.000  0.000
   26  0.000  0.000  0.000  0.000
   27  0.000  0.000  0.000  0.000
   28  0.000  0.000  0.000  0.000
   29  0.000  0.000  0.000  0.000
   30  0.000  0.000  0.000  0.000
   31  0.000  0.000  0.000  0.000
   32  0.000  0.000  0.000  0.000
   33  0.000  0.000  0.000  0.000
   34  0.000  0.000  0.000  0.000
   35  0.000  0.000  0.000  0.000
   36  0.039  0.053  0.119  0.211
   37  0.775  0.012  0.000  0.787
tot    0.815  0.065  0.119  0.999
 
band     2 # energy   -8.13241819 # occ.  2.00000000
 
ion      s      p      d    tot
    1  0.007  0.001  0.000  0.007
    2  0.006  0.001  0.000  0.007
    3  0.006  0.001  0.000  0.007
    4  0.006  0.001  0.000  0.007
    5  0.007  0.001  0.000  0.007
    6  0.006  0.001  0.000  0.007
    7  0.006  0.001  0.000  0.007
    8  0.006  0.001  0.000  0.007
    9  0.006  0.001  0.000  0.007
   10  0.026  0.000  0.000  0.027
   11  0.028  0.000  0.000  0.028
   12  0.026  0.000  0.000  0.027
   13  0.028  0.000  0.000  0.028
   14  0.028  0.000  0.000  0.028
   15  0.026  0.000  0.000  0.026
   16  0.026  0.000  0.000  0.027
   17  0.026  0.000  0.000  0.026
   18  0.026  0.000  0.000  0.026
   19  0.023  0.000  0.000  0.023
   20  0.028  0.000  0.000  0.028
   21  0.028  0.000  0.000  0.028
   22  0.024  0.000  0.000  0.025
   23  0.028  0.000  0.000  0.028
   24  0.024  0.000  0.000  0.025
   25  0.023  0.000  0.000  0.023
   26  0.023  0.000  0.000  0.023
   27  0.024  0.000  0.000  0.025
   28  0.005  0.000  0.000  0.005
   29  0.005  0.000  0.000  0.005
   30  0.005  0.000  0.000  0.005
   31  0.005  0.000  0.000  0.005
   32  0.005  0.000  0.000  0.005
   33  0.005  0.000  0.000  0.005
   34  0.005  0.000  0.000  0.005
   35  0.005  0.000  0.000  0.005
   36  0.005  0.001  0.000  0.007
   37  0.000  0.000  0.000  0.001
tot    0.565  0.013  0.004  0.581
 
band     3 # energy   -6.95172899 # occ.  2.00000000
 
ion      s      p      d    tot
    1  0.017  0.000  0.001  0.018
    2  0.017  0.000  0.001  0.018
    3  0.017  0.000  0.001  0.018
    4  0.017  0.000  0.001  0.018
    5  0.016  0.000  0.001  0.018
    6  0.017  0.000  0.001  0.018
    7  0.017  0.000  0.001  0.018
    8  0.017  0.000  0.001  0.018
    9  0.017  0.000  0.001  0.018
   10  0.011  0.001  0.003  0.015
   11  0.010  0.002  0.003  0.014
   12  0.011  0.001  0.003  0.015
   13  0.010  0.002  0.003  0.014
   14  0.010  0.002  0.003  0.014
   15  0.011  0.001  0.002  0.014
   16  0.011  0.001  0.003  0.015
   17  0.011  0.001  0.002  0.014
   18  0.011  0.001  0.002  0.014
   19  0.013  0.001  0.004  0.018
   20  0.016  0.001  0.004  0.022
   21  0.016  0.001  0.004  0.022
   22  0.014  0.001  0.004  0.019
   23  0.016  0.001  0.004  0.022
   24  0.014  0.001  0.004  0.019
   25  0.013  0.001  0.004  0.018
   26  0.013  0.001  0.004  0.018
   27  0.014  0.001  0.004  0.019
   28  0.013  0.000  0.000  0.014
   29  0.013  0.001  0.001  0.015
   30  0.013  0.001  0.001  0.015
   31  0.013  0.001  0.001  0.015
   32  0.013  0.001  0.001  0.014
   33  0.013  0.001  0.001  0.015
   34  0.013  0.001  0.001  0.014
   35  0.013  0.000  0.000  0.014
   36  0.012  0.001  0.001  0.013
   37  0.001  0.000  0.000  0.001
tot    0.494  0.033  0.073  0.600
 
band     4 # energy   -6.07758384 # occ.  2.00000000
 
ion      s      p      d    tot
    1  0.001  0.001  0.003  0.004
    2  0.001  0.000  0.003  0.004
    3  0.001  0.000  0.003  0.004
    4  0.001  0.000  0.003  0.004
    5  0.000  0.000  0.000  0.001
    6  0.001  0.000  0.003  0.004
    7  0.001  0.000  0.003  0.004
    8  0.001  0.000  0.003  0.004
    9  0.012  0.001  0.000  0.013
   10  0.006  0.000  0.015  0.021
   11  0.003  0.002  0.007  0.012
   12  0.006  0.000  0.015  0.021
   13  0.003  0.002  0.007  0.012
   14  0.003  0.002  0.007  0.012
   15  0.013  0.001  0.003  0.018
   16  0.006  0.000  0.015  0.021
   17  0.013  0.001  0.003  0.018
   18  0.013  0.001  0.003  0.018
   19  0.001  0.001  0.022  0.023
   20  0.030  0.002  0.034  0.065
   21  0.030  0.002  0.034  0.065
   22  0.009  0.002  0.006  0.017
   23  0.030  0.002  0.034  0.065
   24  0.009  0.002  0.006  0.017
   25  0.001  0.001  0.022  0.023
   26  0.001  0.001  0.022  0.023
   27  0.009  0.002  0.006  0.017
   28  0.010  0.000  0.002  0.012
   29  0.009  0.000  0.008  0.017
   30  0.009  0.000  0.008  0.017
   31  0.009  0.000  0.008  0.017
   32  0.009  0.000  0.008  0.017
   33  0.009  0.000  0.008  0.017
   34  0.009  0.000  0.008  0.017
   35  0.024  0.001  0.003  0.027
   36  0.002  0.003  0.038  0.043
   37  0.001  0.015  0.000  0.016
tot    0.297  0.046  0.371  0.714
 
band     5 # energy   -6.02644170 # occ.  2.00000000
 
ion      s      p      d    tot
    1  0.000  0.000  0.008  0.008
    2  0.003  0.001  0.002  0.006
    3  0.000  0.000  0.003  0.004
    4  0.003  0.001  0.002  0.006
    5  0.000  0.001  0.006  0.007
    6  0.006  0.001  0.003  0.010
    7  0.000  0.000  0.003  0.004
    8  0.006  0.001  0.003  0.010
    9  0.000  0.000  0.001  0.001
   10  0.037  0.002  0.005  0.044
   11  0.011  0.003  0.020  0.035
   12  0.009  0.001  0.025  0.035
   13  0.012  0.003  0.020  0.035
   14  0.046  0.001  0.012  0.059
   15  0.000  0.002  0.006  0.009
   16  0.009  0.001  0.026  0.035
   17  0.000  0.002  0.007  0.009
   18  0.001  0.000  0.011  0.011
   19  0.003  0.003  0.006  0.012
   20  0.068  0.001  0.012  0.081
   21  0.017  0.002  0.033  0.052
   22  0.004  0.001  0.021  0.025
   23  0.017  0.002  0.033  0.052
   24  0.014  0.002  0.005  0.021
   25  0.012  0.000  0.013  0.025
   26  0.003  0.003  0.006  0.012
   27  0.004  0.001  0.021  0.025
   28  0.000  0.000  0.001  0.002
   29  0.006  0.001  0.004  0.012
   30  0.002  0.001  0.003  0.005
   31  0.006  0.001  0.004  0.012
   32  0.001  0.000  0.003  0.004
   33  0.002  0.001  0.003  0.005
   34  0.001  0.000  0.003  0.004
   35  0.000  0.000  0.003  0.004
   36  0.000  0.002  0.014  0.016
   37  0.000  0.001  0.000  0.001
tot    0.303  0.044  0.350  0.696
 
band     6 # energy   -6.02639808 # occ.  2.00000000
 
ion      s      p      d    tot
    1  0.000  0.000  0.008  0.008
    2  0.003  0.001  0.003  0.007
    3  0.006  0.001  0.003  0.009
    4  0.003  0.001  0.003  0.007
    5  0.000  0.001  0.006  0.007
    6  0.000  0.000  0.002  0.003
    7  0.006  0.001  0.003  0.009
    8  0.000  0.000  0.002  0.003
    9  0.000  0.000  0.001  0.001
   10  0.000  0.000  0.032  0.032
   11  0.035  0.001  0.014  0.051
   12  0.028  0.002  0.012  0.041
   13  0.035  0.002  0.014  0.051
   14  0.000  0.004  0.023  0.027
   15  0.000  0.001  0.009  0.011
   16  0.028  0.002  0.012  0.041
   17  0.000  0.001  0.009  0.011
   18  0.000  0.003  0.005  0.008
   19  0.009  0.001  0.011  0.021
   20  0.000  0.002  0.040  0.042
   21  0.051  0.001  0.019  0.071
   22  0.011  0.001  0.010  0.022
   23  0.051  0.001  0.019  0.071
   24  0.000  0.001  0.026  0.026
   25  0.000  0.004  0.003  0.007
   26  0.009  0.001  0.011  0.020
   27  0.011  0.001  0.010  0.022
   28  0.000  0.000  0.001  0.002
   29  0.000  0.000  0.002  0.003
   30  0.004  0.001  0.004  0.009
   31  0.000  0.000  0.002  0.003
   32  0.005  0.001  0.004  0.010
   33  0.004  0.001  0.004  0.009
   34  0.005  0.001  0.004  0.010
   35  0.000  0.000  0.003  0.004
   36  0.000  0.002  0.014  0.016
   37  0.000  0.001  0.000  0.001
tot    0.303  0.044  0.350  0.696
 
band     7 # energy   -5.99736120 # occ.  2.00000000
 
ion      s      p      d    tot
    1  0.026  0.000  0.019  0.045
    2  0.020  0.000  0.020  0.040
    3  0.020  0.000  0.020  0.040
    4  0.020  0.000  0.020  0.040
    5  0.016  0.000  0.021  0.038
    6  0.020  0.000  0.020  0.040
    7  0.020  0.000  0.020  0.040
    8  0.020  0.000  0.020  0.040
    9  0.018  0.000  0.019  0.037
   10  0.004  0.000  0.028  0.032
   11  0.011  0.001  0.023  0.035
   12  0.004  0.000  0.028  0.032
   13  0.011  0.001  0.023  0.035
   14  0.011  0.001  0.023  0.035
   15  0.010  0.001  0.023  0.034
   16  0.004  0.000  0.028  0.032
   17  0.010  0.001  0.023  0.034
   18  0.010  0.001  0.023  0.034
   19  0.002  0.000  0.003  0.005
   20  0.001  0.000  0.008  0.009
   21  0.001  0.000  0.008  0.009
   22  0.000  0.000  0.004  0.005
   23  0.001  0.000  0.008  0.009
   24  0.000  0.000  0.004  0.005
   25  0.002  0.000  0.003  0.005
   26  0.002  0.000  0.003  0.005
   27  0.000  0.000  0.004  0.005
   28  0.001  0.000  0.000  0.001
   29  0.000  0.000  0.000  0.001
   30  0.000  0.000  0.000  0.001
   31  0.000  0.000  0.000  0.001
   32  0.000  0.000  0.000  0.001
   33  0.000  0.000  0.000  0.001
   34  0.000  0.000  0.000  0.001
   35  0.000  0.000  0.000  0.000
   36  0.001  0.000  0.001  0.001
   37  0.000  0.001  0.000  0.001
tot    0.269  0.010  0.451  0.730
 
band     8 # energy   -5.95230637 # occ.  2.00000000
 
ion      s      p      d    tot
    1  0.005  0.001  0.001  0.008
    2  0.000  0.001  0.006  0.008
    3  0.000  0.001  0.006  0.008
    4  0.000  0.001  0.006  0.008
    5  0.020  0.002  0.000  0.023
    6  0.000  0.001  0.006  0.008
    7  0.000  0.001  0.006  0.008
    8  0.000  0.001  0.006  0.008
    9  0.000  0.000  0.003  0.003
   10  0.023  0.003  0.002  0.028
   11  0.022  0.001  0.021  0.044
   12  0.023  0.003  0.002  0.028
   13  0.022  0.001  0.021  0.044
   14  0.022  0.001  0.021  0.044
   15  0.002  0.001  0.025  0.028
   16  0.023  0.003  0.002  0.028
   17  0.002  0.001  0.025  0.028
   18  0.002  0.001  0.025  0.027
   19  0.024  0.002  0.006  0.033
   20  0.007  0.003  0.017  0.027
   21  0.007  0.003  0.017  0.027
   22  0.006  0.000  0.026  0.032
   23  0.007  0.003  0.017  0.027
   24  0.006  0.000  0.027  0.032
   25  0.024  0.002  0.006  0.032
   26  0.024  0.002  0.006  0.033
   27  0.006  0.000  0.026  0.032
   28  0.011  0.001  0.001  0.013
   29  0.000  0.000  0.004  0.004
   30  0.000  0.000  0.004  0.004
   31  0.000  0.000  0.004  0.004
   32  0.000  0.000  0.004  0.004
   33  0.000  0.000  0.004  0.004
   34  0.000  0.000  0.004  0.004
   35  0.003  0.001  0.002  0.006
   36  0.001  0.000  0.000  0.001
   37  0.000  0.000  0.000  0.000
tot    0.295  0.040  0.362  0.696
 
band     9 # energy   -5.93305548 # occ.  2.00000000
 
ion      s      p      d    tot
    1  0.005  0.000  0.000  0.005
    2  0.000  0.000  0.002  0.003
    3  0.000  0.000  0.002  0.003
    4  0.000  0.000  0.002  0.003
    5  0.002  0.000  0.000  0.002
    6  0.000  0.000  0.002  0.003
    7  0.000  0.000  0.002  0.003
    8  0.000  0.000  0.002  0.003
    9  0.003  0.001  0.001  0.005
   10  0.004  0.000  0.013  0.016
   11  0.003  0.001  0.006  0.010
   12  0.004  0.000  0.013  0.017
   13  0.003  0.001  0.006  0.010
   14  0.003  0.001  0.006  0.010
   15  0.011  0.001  0.005  0.017
   16  0.004  0.000  0.013  0.017
   17  0.011  0.001  0.005  0.017
   18  0.011  0.001  0.005  0.018
   19  0.003  0.001  0.016  0.020
   20  0.000  0.000  0.034  0.034
   21  0.000  0.000  0.034  0.034
   22  0.020  0.002  0.012  0.034
   23  0.000  0.000  0.034  0.034
   24  0.020  0.002  0.012  0.034
   25  0.004  0.001  0.016  0.020
   26  0.003  0.001  0.016  0.020
   27  0.020  0.002  0.012  0.034
   28  0.015  0.000  0.016  0.031
   29  0.019  0.000  0.015  0.034
   30  0.019  0.000  0.015  0.034
   31  0.019  0.000  0.015  0.034
   32  0.019  0.000  0.015  0.034
   33  0.019  0.000  0.015  0.034
   34  0.019  0.000  0.015  0.034
   35  0.009  0.000  0.016  0.025
   36  0.017  0.000  0.018  0.035
   37  0.000  0.001  0.000  0.001
tot    0.287  0.023  0.413  0.722
 
band    10 # energy   -5.92888463 # occ.  2.00000000
 
ion      s      p      d    tot
    1  0.000  0.001  0.003  0.004
    2  0.004  0.001  0.003  0.009
    3  0.000  0.000  0.004  0.004
    4  0.005  0.001  0.003  0.009
    5  0.000  0.000  0.005  0.005
    6  0.008  0.001  0.004  0.013
    7  0.001  0.000  0.004  0.005
    8  0.008  0.001  0.004  0.013
    9  0.000  0.001  0.011  0.012
   10  0.000  0.005  0.003  0.008
   11  0.009  0.001  0.012  0.021
   12  0.016  0.001  0.013  0.030
   13  0.008  0.001  0.013  0.022
   14  0.000  0.001  0.028  0.029
   15  0.049  0.001  0.014  0.065
   16  0.017  0.001  0.014  0.032
   17  0.046  0.001  0.016  0.063
   18  0.000  0.001  0.041  0.042
   19  0.029  0.002  0.010  0.041
   20  0.000  0.002  0.011  0.013
   21  0.000  0.001  0.014  0.015
   22  0.027  0.002  0.013  0.041
   23  0.000  0.001  0.014  0.015
   24  0.000  0.004  0.017  0.021
   25  0.000  0.000  0.035  0.035
   26  0.027  0.002  0.012  0.041
   27  0.029  0.001  0.013  0.043
   28  0.000  0.000  0.006  0.006
   29  0.004  0.001  0.002  0.007
   30  0.002  0.000  0.002  0.005
   31  0.004  0.001  0.002  0.007
   32  0.000  0.000  0.001  0.002
   33  0.002  0.000  0.002  0.005
   34  0.000  0.000  0.001  0.002
   35  0.000  0.001  0.004  0.005
   36  0.000  0.000  0.001  0.001
   37  0.000  0.000  0.000  0.000
tot    0.296  0.041  0.356  0.693
 
band    11 # energy   -5.92887390 # occ.  2.00000000
 
ion      s      p      d    tot
    1  0.000  0.001  0.003  0.004
    2  0.004  0.001  0.004  0.009
    3  0.008  0.001  0.004  0.013
    4  0.004  0.001  0.004  0.009
    5  0.000  0.000  0.005  0.005
    6  0.001  0.000  0.003  0.004
    7  0.008  0.001  0.004  0.013
    8  0.001  0.000  0.003  0.005
    9  0.000  0.001  0.011  0.012
   10  0.022  0.000  0.017  0.039
   11  0.003  0.001  0.023  0.027
   12  0.006  0.003  0.007  0.016
   13  0.003  0.001  0.022  0.026
   14  0.011  0.001  0.007  0.019
   15  0.015  0.001  0.033  0.049
   16  0.005  0.004  0.006  0.015
   17  0.018  0.001  0.032  0.051
   18  0.063  0.002  0.006  0.071
   19  0.008  0.001  0.028  0.037
   20  0.000  0.001  0.015  0.016
   21  0.000  0.002  0.012  0.014
   22  0.010  0.003  0.016  0.029
   23  0.000  0.002  0.012  0.014
   24  0.037  0.001  0.011  0.049
   25  0.037  0.002  0.003  0.043
   26  0.010  0.001  0.026  0.037
   27  0.008  0.003  0.016  0.027
   28  0.000  0.000  0.006  0.006
   29  0.000  0.000  0.002  0.002
   30  0.002  0.000  0.002  0.004
   31  0.000  0.000  0.002  0.002
   32  0.004  0.001  0.003  0.007
   33  0.002  0.000  0.002  0.004
   34  0.004  0.001  0.003  0.007
   35  0.000  0.001  0.004  0.005
   36  0.000  0.000  0.001  0.001
   37  0.000  0.000  0.000  0.000
tot    0.296  0.041  0.356  0.693
 
band    12 # energy   -5.53646157 # occ.  2.00000000
 
ion      s      p      d    tot
    1  0.000  0.001  0.004  0.005
    2  0.001  0.001  0.005  0.006
    3  0.009  0.001  0.005  0.015
    4  0.001  0.001  0.005  0.006
    5  0.000  0.001  0.010  0.011
    6  0.005  0.001  0.004  0.009
    7  0.009  0.001  0.005  0.015
    8  0.005  0.001  0.004  0.009
    9  0.000  0.000  0.008  0.008
   10  0.000  0.001  0.051  0.052
   11  0.018  0.001  0.020  0.039
   12  0.008  0.001  0.019  0.028
   13  0.018  0.001  0.020  0.039
   14  0.000  0.000  0.048  0.048
   15  0.001  0.000  0.019  0.021
   16  0.008  0.001  0.019  0.028
   17  0.001  0.000  0.019  0.021
   18  0.000  0.001  0.012  0.014
   19  0.003  0.000  0.017  0.020
   20  0.000  0.000  0.086  0.086
   21  0.015  0.001  0.026  0.042
   22  0.004  0.001  0.018  0.023
   23  0.015  0.001  0.026  0.042
   24  0.000  0.001  0.032  0.032
   25  0.000  0.001  0.009  0.010
   26  0.003  0.000  0.017  0.020
   27  0.004  0.001  0.018  0.023
   28  0.000  0.000  0.006  0.007
   29  0.003  0.001  0.004  0.008
   30  0.007  0.001  0.005  0.014
   31  0.003  0.001  0.004  0.008
   32  0.001  0.000  0.003  0.005
   33  0.007  0.001  0.005  0.014
   34  0.001  0.000  0.003  0.005
   35  0.000  0.000  0.002  0.002
   36  0.000  0.002  0.013  0.016
   37  0.000  0.002  0.000  0.002
tot    0.149  0.031  0.574  0.754
 
band    13 # energy   -5.53641278 # occ.  2.00000000
 
ion      s      p      d    tot
    1  0.000  0.001  0.004  0.005
    2  0.009  0.001  0.004  0.014
    3  0.001  0.000  0.004  0.005
    4  0.009  0.001  0.004  0.014
    5  0.000  0.001  0.010  0.012
    6  0.005  0.001  0.005  0.011
    7  0.001  0.000  0.004  0.005
    8  0.005  0.001  0.005  0.011
    9  0.000  0.000  0.008  0.008
   10  0.011  0.002  0.008  0.021
   11  0.006  0.000  0.039  0.045
   12  0.003  0.001  0.040  0.044
   13  0.006  0.000  0.039  0.045
   14  0.024  0.001  0.011  0.036
   15  0.000  0.001  0.014  0.016
   16  0.003  0.001  0.040  0.044
   17  0.000  0.001  0.014  0.016
   18  0.002  0.000  0.022  0.023
   19  0.001  0.001  0.012  0.014
   20  0.020  0.001  0.006  0.027
   21  0.005  0.000  0.066  0.071
   22  0.001  0.001  0.027  0.029
   23  0.005  0.000  0.066  0.071
   24  0.005  0.001  0.014  0.020
   25  0.004  0.000  0.020  0.024
   26  0.001  0.001  0.012  0.014
   27  0.001  0.001  0.027  0.029
   28  0.000  0.000  0.006  0.007
   29  0.004  0.001  0.004  0.010
   30  0.000  0.000  0.004  0.004
   31  0.004  0.001  0.004  0.010
   32  0.007  0.001  0.005  0.013
   33  0.000  0.000  0.004  0.004
   34  0.007  0.001  0.005  0.013
   35  0.000  0.000  0.002  0.002
   36  0.000  0.002  0.013  0.016
   37  0.000  0.002  0.000  0.002
tot    0.149  0.031  0.574  0.754
 
band    14 # energy   -5.52840645 # occ.  2.00000000
 
ion      s      p      d    tot
    1  0.011  0.002  0.003  0.015
    2  0.000  0.001  0.008  0.009
    3  0.000  0.001  0.008  0.009
    4  0.000  0.001  0.008  0.009
    5  0.001  0.000  0.002  0.003
    6  0.000  0.001  0.008  0.009
    7  0.000  0.001  0.008  0.009
    8  0.000  0.001  0.008  0.009
    9  0.019  0.002  0.000  0.020
   10  0.011  0.001  0.019  0.031
   11  0.001  0.000  0.048  0.049
   12  0.011  0.001  0.019  0.031
   13  0.001  0.000  0.048  0.049
   14  0.001  0.000  0.048  0.049
   15  0.007  0.002  0.014  0.022
   16  0.011  0.001  0.019  0.031
   17  0.007  0.002  0.014  0.022
   18  0.007  0.002  0.014  0.022
   19  0.001  0.001  0.015  0.017
   20  0.001  0.001  0.053  0.055
   21  0.001  0.001  0.053  0.055
   22  0.011  0.001  0.017  0.028
   23  0.001  0.001  0.053  0.055
   24  0.011  0.001  0.017  0.028
   25  0.001  0.001  0.015  0.017
   26  0.001  0.001  0.015  0.017
   27  0.011  0.001  0.017  0.028
   28  0.011  0.001  0.000  0.012
   29  0.000  0.000  0.005  0.006
   30  0.000  0.000  0.005  0.006
   31  0.000  0.000  0.005  0.006
   32  0.000  0.000  0.005  0.006
   33  0.000  0.000  0.005  0.006
   34  0.000  0.000  0.005  0.006
   35  0.004  0.001  0.004  0.009
   36  0.000  0.000  0.006  0.006
   37  0.000  0.003  0.000  0.003
tot    0.143  0.028  0.591  0.763
 
band    15 # energy   -5.48705768 # occ.  2.00000000
 
ion      s      p      d    tot
    1  0.008  0.000  0.000  0.009
    2  0.000  0.001  0.007  0.008
    3  0.000  0.001  0.007  0.008
    4  0.000  0.001  0.007  0.008
    5  0.013  0.002  0.001  0.015
    6  0.000  0.001  0.007  0.008
    7  0.000  0.001  0.007  0.008
    8  0.000  0.001  0.007  0.008
    9  0.001  0.000  0.001  0.003
   10  0.000  0.001  0.036  0.036
   11  0.008  0.002  0.002  0.012
   12  0.000  0.001  0.036  0.036
   13  0.008  0.002  0.002  0.012
   14  0.008  0.002  0.002  0.012
   15  0.007  0.001  0.030  0.038
   16  0.000  0.001  0.036  0.036
   17  0.007  0.001  0.030  0.038
   18  0.007  0.001  0.030  0.038
   19  0.016  0.001  0.027  0.044
   20  0.005  0.002  0.019  0.027
   21  0.005  0.002  0.019  0.027
   22  0.000  0.000  0.042  0.042
   23  0.005  0.002  0.019  0.027
   24  0.000  0.000  0.042  0.042
   25  0.016  0.001  0.027  0.044
   26  0.016  0.001  0.027  0.044
   27  0.000  0.000  0.042  0.042
   28  0.003  0.001  0.007  0.011
   29  0.001  0.000  0.005  0.007
   30  0.001  0.000  0.005  0.007
   31  0.001  0.000  0.005  0.007
   32  0.001  0.000  0.005  0.007
   33  0.001  0.000  0.005  0.007
   34  0.001  0.000  0.005  0.007
   35  0.000  0.000  0.000  0.000
   36  0.020  0.003  0.005  0.028
   37  0.001  0.009  0.000  0.011
tot    0.160  0.041  0.560  0.762
 
band    16 # energy   -5.44844464 # occ.  2.00000000
 
ion      s      p      d    tot
    1  0.000  0.001  0.014  0.015
    2  0.009  0.001  0.004  0.015
    3  0.001  0.000  0.005  0.006
    4  0.009  0.001  0.004  0.015
    5  0.000  0.000  0.006  0.006
    6  0.004  0.001  0.005  0.010
    7  0.001  0.000  0.005  0.006
    8  0.004  0.001  0.005  0.010
    9  0.000  0.001  0.006  0.007
   10  0.000  0.001  0.032  0.032
   11  0.000  0.001  0.020  0.021
   12  0.008  0.000  0.021  0.030
   13  0.000  0.001  0.020  0.021
   14  0.000  0.001  0.017  0.018
   15  0.010  0.002  0.020  0.032
   16  0.008  0.000  0.021  0.030
   17  0.010  0.002  0.020  0.032
   18  0.000  0.000  0.061  0.061
   19  0.014  0.001  0.020  0.035
   20  0.000  0.002  0.023  0.025
   21  0.000  0.001  0.025  0.026
   22  0.017  0.001  0.020  0.038
   23  0.000  0.001  0.025  0.026
   24  0.000  0.001  0.030  0.030
   25  0.000  0.000  0.067  0.067
   26  0.014  0.001  0.020  0.035
   27  0.017  0.001  0.020  0.038
   28  0.000  0.001  0.005  0.006
   29  0.005  0.001  0.004  0.010
   30  0.000  0.000  0.005  0.005
   31  0.005  0.001  0.004  0.010
   32  0.005  0.001  0.003  0.008
   33  0.000  0.000  0.005  0.005
   34  0.005  0.001  0.003  0.008
   35  0.000  0.001  0.008  0.009
   36  0.000  0.000  0.003  0.003
   37  0.000  0.000  0.000  0.000
tot    0.148  0.028  0.575  0.751
 
band    17 # energy   -5.44840681 # occ.  2.00000000
 
ion      s      p      d    tot
    1  0.000  0.001  0.014  0.015
    2  0.000  0.000  0.005  0.006
    3  0.008  0.001  0.005  0.014
    4  0.000  0.000  0.005  0.006
    5  0.000  0.000  0.006  0.006
    6  0.006  0.001  0.004  0.011
    7  0.008  0.001  0.005  0.014
    8  0.006  0.001  0.004  0.011
    9  0.000  0.001  0.006  0.007
   10  0.011  0.000  0.018  0.029
   11  0.000  0.001  0.018  0.019
   12  0.003  0.001  0.028  0.032
   13  0.000  0.001  0.018  0.019
   14  0.000  0.001  0.021  0.023
   15  0.003  0.001  0.047  0.051
   16  0.003  0.001  0.028  0.031
   17  0.003  0.001  0.047  0.051
   18  0.013  0.002  0.006  0.022
   19  0.005  0.001  0.051  0.056
   20  0.000  0.000  0.026  0.026
   21  0.000  0.001  0.024  0.025
   22  0.006  0.001  0.027  0.033
   23  0.000  0.001  0.024  0.025
   24  0.022  0.001  0.017  0.040
   25  0.019  0.001  0.004  0.024
   26  0.005  0.001  0.051  0.057
   27  0.006  0.001  0.027  0.033
   28  0.000  0.001  0.005  0.006
   29  0.001  0.000  0.004  0.006
   30  0.007  0.001  0.003  0.010
   31  0.001  0.000  0.004  0.006
   32  0.002  0.001  0.005  0.007
   33  0.007  0.001  0.003  0.010
   34  0.002  0.001  0.005  0.007
   35  0.000  0.001  0.008  0.009
   36  0.000  0.000  0.003  0.003
   37  0.000  0.000  0.000  0.000
tot    0.148  0.028  0.575  0.751
 
band    18 # energy   -5.17316577 # occ.  2.00000000
 
ion      s      p      d    tot
    1  0.001  0.000  0.001  0.002
    2  0.000  0.000  0.002  0.003
    3  0.000  0.000  0.002  0.002
    4  0.000  0.000  0.002  0.003
    5  0.005  0.001  0.007  0.013
    6  0.000  0.000  0.002  0.002
    7  0.000  0.000  0.002  0.002
    8  0.000  0.000  0.002  0.002
    9  0.007  0.001  0.001  0.008
   10  0.000  0.000  0.011  0.011
   11  0.000  0.001  0.055  0.056
   12  0.000  0.000  0.011  0.011
   13  0.000  0.001  0.055  0.056
   14  0.000  0.001  0.055  0.056
   15  0.000  0.000  0.022  0.022
   16  0.000  0.000  0.011  0.011
   17  0.000  0.000  0.022  0.022
   18  0.000  0.000  0.022  0.022
   19  0.000  0.000  0.012  0.012
   20  0.003  0.000  0.061  0.064
   21  0.003  0.000  0.061  0.063
   22  0.001  0.000  0.034  0.035
   23  0.003  0.000  0.061  0.063
   24  0.001  0.000  0.034  0.035
   25  0.000  0.000  0.012  0.012
   26  0.000  0.000  0.012  0.012
   27  0.001  0.000  0.034  0.035
   28  0.003  0.000  0.001  0.004
   29  0.000  0.001  0.016  0.017
   30  0.000  0.001  0.016  0.017
   31  0.000  0.001  0.016  0.017
   32  0.000  0.001  0.016  0.017
   33  0.000  0.001  0.016  0.017
   34  0.000  0.001  0.016  0.017
   35  0.023  0.001  0.003  0.027
   36  0.000  0.000  0.040  0.040
   37  0.002  0.024  0.000  0.026
tot    0.051  0.041  0.743  0.835
 
band    19 # energy   -5.15095470 # occ.  2.00000000
 
ion      s      p      d    tot
    1  0.000  0.000  0.017  0.017
    2  0.002  0.001  0.007  0.010
    3  0.002  0.000  0.011  0.013
    4  0.002  0.001  0.007  0.010
    5  0.000  0.001  0.017  0.018
    6  0.008  0.001  0.008  0.016
    7  0.002  0.000  0.011  0.013
    8  0.008  0.001  0.008  0.016
    9  0.000  0.001  0.003  0.004
   10  0.000  0.001  0.024  0.025
   11  0.000  0.000  0.059  0.060
   12  0.000  0.000  0.013  0.013
   13  0.000  0.000  0.059  0.060
   14  0.001  0.000  0.052  0.053
   15  0.000  0.000  0.014  0.014
   16  0.000  0.000  0.013  0.013
   17  0.000  0.000  0.014  0.014
   18  0.000  0.000  0.024  0.024
   19  0.000  0.000  0.007  0.007
   20  0.001  0.000  0.097  0.099
   21  0.000  0.000  0.061  0.062
   22  0.000  0.000  0.027  0.028
   23  0.000  0.000  0.062  0.062
   24  0.001  0.000  0.019  0.021
   25  0.000  0.000  0.015  0.015
   26  0.000  0.000  0.007  0.007
   27  0.000  0.000  0.027  0.028
   28  0.000  0.000  0.004  0.004
   29  0.007  0.001  0.014  0.021
   30  0.001  0.000  0.009  0.010
   31  0.007  0.001  0.014  0.021
   32  0.003  0.000  0.006  0.010
   33  0.001  0.000  0.009  0.010
   34  0.003  0.000  0.006  0.010
   35  0.000  0.000  0.014  0.014
   36  0.000  0.002  0.014  0.016
   37  0.000  0.001  0.000  0.001
tot    0.050  0.016  0.772  0.838
 
band    20 # energy   -5.15090919 # occ.  2.00000000
 
ion      s      p      d    tot
    1  0.000  0.000  0.016  0.017
    2  0.006  0.000  0.010  0.016
    3  0.006  0.001  0.006  0.013
    4  0.006  0.000  0.010  0.016
    5  0.000  0.001  0.017  0.018
    6  0.000  0.000  0.009  0.010
    7  0.006  0.001  0.006  0.013
    8  0.000  0.000  0.009  0.010
    9  0.000  0.001  0.003  0.004
   10  0.000  0.000  0.009  0.009
   11  0.001  0.000  0.055  0.056
   12  0.000  0.001  0.020  0.021
   13  0.001  0.000  0.055  0.056
   14  0.000  0.000  0.061  0.062
   15  0.000  0.000  0.021  0.021
   16  0.000  0.001  0.020  0.021
   17  0.000  0.000  0.021  0.021
   18  0.000  0.000  0.011  0.011
   19  0.000  0.000  0.012  0.012
   20  0.000  0.000  0.050  0.050
   21  0.001  0.000  0.085  0.086
   22  0.001  0.000  0.022  0.023
   23  0.001  0.000  0.085  0.086
   24  0.000  0.000  0.030  0.030
   25  0.000  0.000  0.005  0.005
   26  0.000  0.000  0.012  0.012
   27  0.001  0.000  0.022  0.023
   28  0.000  0.000  0.004  0.004
   29  0.000  0.000  0.005  0.006
   30  0.006  0.001  0.011  0.017
   31  0.000  0.000  0.005  0.006
   32  0.004  0.001  0.013  0.018
   33  0.006  0.001  0.010  0.017
   34  0.004  0.001  0.013  0.018
   35  0.000  0.000  0.014  0.014
   36  0.000  0.002  0.014  0.016
   37  0.000  0.001  0.000  0.001
tot    0.050  0.016  0.772  0.838
 
band    21 # energy   -5.10652763 # occ.  2.00000000
 
ion      s      p      d    tot
    1  0.000  0.000  0.005  0.006
    2  0.000  0.001  0.019  0.020
    3  0.000  0.001  0.019  0.020
    4  0.000  0.001  0.019  0.020
    5  0.018  0.001  0.001  0.020
    6  0.000  0.001  0.019  0.020
    7  0.000  0.001  0.019  0.020
    8  0.000  0.001  0.019  0.020
    9  0.016  0.000  0.013  0.029
   10  0.000  0.000  0.033  0.033
   11  0.000  0.000  0.023  0.023
   12  0.000  0.000  0.033  0.033
   13  0.000  0.000  0.023  0.023
   14  0.000  0.000  0.023  0.023
   15  0.000  0.000  0.038  0.038
   16  0.000  0.000  0.033  0.033
   17  0.000  0.000  0.038  0.038
   18  0.000  0.000  0.038  0.038
   19  0.001  0.000  0.027  0.027
   20  0.000  0.000  0.032  0.032
   21  0.000  0.000  0.032  0.033
   22  0.001  0.000  0.020  0.021
   23  0.000  0.000  0.032  0.033
   24  0.001  0.000  0.020  0.021
   25  0.001  0.000  0.027  0.027
   26  0.001  0.000  0.027  0.027
   27  0.001  0.000  0.020  0.021
   28  0.012  0.000  0.008  0.020
   29  0.000  0.000  0.015  0.016
   30  0.000  0.000  0.015  0.016
   31  0.000  0.000  0.015  0.016
   32  0.000  0.000  0.015  0.016
   33  0.000  0.000  0.015  0.016
   34  0.000  0.000  0.015  0.016
   35  0.001  0.000  0.004  0.005
   36  0.009  0.001  0.000  0.010