 vasp.6.2.0 18Jan21 (build Jun 12 2021 23:27:24) complex                        
  
 executed on             LinuxIFC date 2022.05.26  20:22:42
 running on   28 total cores
 distrk:  each k-point on   28 cores,    1 groups
 distr:  one band on NCORE=   1 cores,   28 groups


--------------------------------------------------------------------------------------------------------


 INCAR:
   ISMEAR = -5
   SIGMA = 0.1
   ISPIN = 1
   EDIFF = 1.d-5
   EDIFFG = -0.01
   NSW = 0
   NELM = 150
   ENCUT = 500
   ISIF = 2
   IBRION = 2
   LREAL = Auto
   ALGO = Fast
   ICHARG = 11
   LORBIT = 10
   LCHARG = .F.
   LWAVE = .F.

 POTCAR:    PAW_PBE Ag 02Apr2005                  
 POTCAR:    PAW_PBE Ta 17Jan2003                  
 -----------------------------------------------------------------------------
|                                                                             |
|           W    W    AA    RRRRR   N    N  II  N    N   GGGG   !!!           |
|           W    W   A  A   R    R  NN   N  II  NN   N  G    G  !!!           |
|           W    W  A    A  R    R  N N  N  II  N N  N  G       !!!           |
|           W WW W  AAAAAA  RRRRR   N  N N  II  N  N N  G  GGG   !            |
|           WW  WW  A    A  R   R   N   NN  II  N   NN  G    G                |
|           W    W  A    A  R    R  N    N  II  N    N   GGGG   !!!           |
|                                                                             |
|     For optimal performance we recommend to set                             |
|       NCORE = 2 up to number-of-cores-per-socket                            |
|     NCORE specifies how many cores store one orbital (NPAR=cpu/NCORE).      |
|     This setting can greatly improve the performance of VASP for DFT.       |
|     The default, NCORE=1 might be grossly inefficient on modern             |
|     multi-core architectures or massively parallel machines. Do your        |
|     own testing! More info at https://www.vasp.at/wiki/index.php/NCORE      |
|     Unfortunately you need to use the default for GW and RPA                |
|     calculations (for HF NCORE is supported but not extensively tested      |
|     yet).                                                                   |
|                                                                             |
 -----------------------------------------------------------------------------

 POTCAR:    PAW_PBE Ag 02Apr2005                  
   VRHFIN =Ag : s1 d10                                                                              
   LEXCH  = PE                                                                                      
   EATOM  =  1037.2675 eV,   76.2370 Ry                                                             
                                                                                                    
   TITEL  = PAW_PBE Ag 02Apr2005                                                                    
   LULTRA =        F    use ultrasoft PP ?                                                          
   IUNSCR =        1    unscreen: 0-lin 1-nonlin 2-no                                               
   RPACOR =    2.000    partial core radius                                                         
   POMASS =  107.868; ZVAL   =   11.000    mass and valenz                                          
   RCORE  =    2.500    outmost cutoff radius                                                       
   RWIGS  =    2.840; RWIGS  =    1.503    wigner-seitz radius (au A)                               
   ENMAX  =  249.844; ENMIN  =  187.383 eV                                                          
   ICORE  =        3    local potential                                                             
   LCOR   =        T    correct aug charges                                                         
   LPAW   =        T    paw PP                                                                      
   EAUG   =  412.496                                                                                
   DEXC   =    0.000                                                                                
   RMAX   =    2.560    core radius for proj-oper                                                   
   RAUG   =    1.300    factor for augmentation sphere                                              
   RDEP   =    2.576    radius for radial grids                                                     
   RDEPT  =    2.072    core radius for aug-charge                                                  
                                                                                                    
   Atomic configuration                                                                             
   12 entries                                                                                       
     n  l   j            E        occ.                                                              
     1  0  0.50    -25324.9161   2.0000                                                             
     2  0  0.50     -3728.5341   2.0000                                                             
     2  1  1.50     -3344.0404   6.0000                                                             
     3  0  0.50      -683.5581   2.0000                                                             
     3  1  1.50      -557.3225   6.0000                                                             
     3  2  2.50      -358.3853  10.0000                                                             
     4  0  0.50       -95.0341   2.0000                                                             
     4  1  1.50       -58.5511   6.0000                                                             
     4  2  2.50        -7.4440  10.0000                                                             
     5  0  0.50        -4.4045   1.0000                                                             
     5  1  0.50        -1.3606   0.0000                                                             
     4  3  2.50        -1.3606   0.0000                                                             
   Description                                                                                      
     l       E           TYP  RCUT    TYP  RCUT                                                     
     2     -7.4439781     23  2.400                                                                 
     2     -8.8045607     23  2.400                                                                 
     0     -4.4044681     23  2.400                                                                 
     0      1.9520038     23  2.400                                                                 
     1     -1.3605826     23  2.500                                                                 
     1     27.2116520     23  2.500                                                                 
     3     -4.0817478     23  2.400                                                                 
  local pseudopotential read in
  partial core-charges read in
  partial kinetic energy density read in
  atomic valenz-charges read in
  non local Contribution for L=           2  read in
    real space projection operators read in
  non local Contribution for L=           2  read in
    real space projection operators read in
  non local Contribution for L=           0  read in
    real space projection operators read in
  non local Contribution for L=           0  read in
    real space projection operators read in
  non local Contribution for L=           1  read in
    real space projection operators read in
  non local Contribution for L=           1  read in
    real space projection operators read in
    PAW grid and wavefunctions read in
 
   number of l-projection  operators is LMAX  =           6
   number of lm-projection operators is LMMAX =          18
 
 POTCAR:    PAW_PBE Ta 17Jan2003                  
   VRHFIN =Ta:  6s5d                                                                                
   LEXCH  = PE                                                                                      
   EATOM  =   130.6506 eV,    9.6025 Ry                                                             
                                                                                                    
   TITEL  = PAW_PBE Ta 17Jan2003                                                                    
   LULTRA =        F    use ultrasoft PP ?                                                          
   IUNSCR =        1    unscreen: 0-lin 1-nonlin 2-no                                               
   RPACOR =    2.330    partial core radius                                                         
   POMASS =  180.948; ZVAL   =    5.000    mass and valenz                                          
   RCORE  =    2.900    outmost cutoff radius                                                       
   RWIGS  =    2.840; RWIGS  =    1.503    wigner-seitz radius (au A)                               
   ENMAX  =  223.667; ENMIN  =  167.750 eV                                                          
   RCLOC  =    2.205    cutoff for local pot                                                        
   LCOR   =        T    correct aug charges                                                         
   LPAW   =        T    paw PP                                                                      
   EAUG   =  332.075                                                                                
   DEXC   =    0.000                                                                                
   RMAX   =    2.970    core radius for proj-oper                                                   
   RAUG   =    1.300    factor for augmentation sphere                                              
   RDEP   =    3.060    radius for radial grids                                                     
   RDEPT  =    2.354    core radius for aug-charge                                                  
                                                                                                    
   Atomic configuration                                                                             
   16 entries                                                                                       
     n  l   j            E        occ.                                                              
     1  0  0.50    -67341.2807   2.0000                                                             
     2  0  0.50    -11566.9376   2.0000                                                             
     2  1  1.50    -10134.1182   6.0000                                                             
     3  0  0.50     -2648.5620   2.0000                                                             
     3  1  1.50     -2222.6012   6.0000                                                             
     3  2  2.50     -1726.3120  10.0000                                                             
     4  0  0.50      -538.6961   2.0000                                                             
     4  1  1.50      -399.0129   6.0000                                                             
     4  2  2.50      -220.3959  10.0000                                                             
     4  3  3.50       -23.0374  14.0000                                                             
     5  0  0.50       -71.2901   2.0000                                                             
     5  1  1.50       -37.8225   6.0000                                                             
     5  2  2.50        -2.6455   4.0000                                                             
     6  0  0.50        -4.9623   1.0000                                                             
     6  1  1.50        -1.3606   0.0000                                                             
     5  3  2.50        -1.3606   0.0000                                                             
   Description                                                                                      
     l       E           TYP  RCUT    TYP  RCUT                                                     
     2     -2.6455043     23  2.500                                                                 
     2     -0.6258895     23  2.500                                                                 
     0     -4.9622780     23  2.500                                                                 
     0      4.7531321     23  2.500                                                                 
     1     -1.3605826     23  2.900                                                                 
     1     27.2116520     23  2.900                                                                 
  local pseudopotential read in
  partial core-charges read in
  partial kinetic energy density read in
  atomic valenz-charges read in
  non local Contribution for L=           2  read in
    real space projection operators read in
  non local Contribution for L=           2  read in
    real space projection operators read in
  non local Contribution for L=           0  read in
    real space projection operators read in
  non local Contribution for L=           0  read in
    real space projection operators read in
  non local Contribution for L=           1  read in
    real space projection operators read in
  non local Contribution for L=           1  read in
    real space projection operators read in
    PAW grid and wavefunctions read in
 
   number of l-projection  operators is LMAX  =           6
   number of lm-projection operators is LMMAX =          18
 
 Optimization of the real space projectors (new method)

 maximal supplied QI-value         = 15.12
 optimisation between [QCUT,QGAM] = [ 11.34, 22.83] = [ 36.00,145.93] Ry 
 Optimized for a Real-space Cutoff    1.43 Angstroem

   l    n(q)    QCUT    max X(q) W(low)/X(q) W(high)/X(q)  e(spline) 
   2      9    11.338    53.897    0.16E-03    0.20E-03    0.28E-06
   2      9    11.338    52.416    0.16E-03    0.20E-03    0.29E-06
   0     10    11.338   122.045    0.31E-04    0.76E-04    0.15E-06
   0     10    11.338    73.629    0.30E-04    0.72E-04    0.15E-06
   1      9    11.338    15.255    0.20E-03    0.19E-04    0.17E-06
   1      9    11.338     9.562    0.16E-03    0.15E-04    0.14E-06
 Optimization of the real space projectors (new method)

 maximal supplied QI-value         = 12.85
 optimisation between [QCUT,QGAM] = [ 11.44, 22.87] = [ 36.63,146.51] Ry 
 Optimized for a Real-space Cutoff    1.61 Angstroem

   l    n(q)    QCUT    max X(q) W(low)/X(q) W(high)/X(q)  e(spline) 
   2     10    11.437    62.315    0.14E-03    0.26E-03    0.80E-06
   2     10    11.437    52.185    0.14E-03    0.26E-03    0.80E-06
   0     11    11.437   103.837    0.25E-04    0.17E-04    0.84E-07
   0     11    11.437    59.728    0.20E-04    0.15E-04    0.73E-07
   1     11    11.437    13.958    0.47E-03    0.12E-03    0.89E-06
   1     11    11.437     8.441    0.33E-03    0.88E-04    0.61E-06
  PAW_PBE Ag 02Apr2005                  :
 energy of atom  1       EATOM=-1037.2675
 kinetic energy error for atom=    0.0052 (will be added to EATOM!!)
  PAW_PBE Ta 17Jan2003                  :
 energy of atom  2       EATOM= -130.6506
 kinetic energy error for atom=    0.0012 (will be added to EATOM!!)
 
 
 POSCAR: Ag-Ta
  positions in direct lattice
  velocities in cartesian coordinates
 exchange correlation table for  LEXCH =        8
   RHO(1)=    0.500       N(1)  =     2000
   RHO(2)=  100.500       N(2)  =     4000

 VTST: version 3.2, (02/03/18)

 CHAIN: initializing optimizer
 
 OPT: Using VASP Conjugate-Gradient optimizer
 CHAIN: Read ICHAIN            0
 
 POSCAR: Ag-Ta
  positions in direct lattice
  velocities in cartesian coordinates
 


--------------------------------------------------------------------------------------------------------


 ion  position               nearest neighbor table
   1  0.000  0.000  0.238-   2 2.93   8 2.93   7 2.93   6 2.93   4 2.93  12 2.93  16 2.93  10 2.93
                             3 2.93
   2  0.333  0.000  0.238-   1 2.93   8 2.93   9 2.93   3 2.93   4 2.93   5 2.93  10 2.93  17 2.93
                            11 2.93
   3  0.667  0.000  0.238-   9 2.93   2 2.93   5 2.93  11 2.93   7 2.93  18 2.93   1 2.93   6 2.93
                            12 2.93
   4  0.000  0.333  0.238-   5 2.93   6 2.93   2 2.93   1 2.93   7 2.93  13 2.93  15 2.93   9 2.93
                            10 2.93
   5  0.333  0.333  0.238-   4 2.93   3 2.93   7 2.93   2 2.93   8 2.93  14 2.93  13 2.93  11 2.93
                             6 2.93
   6  0.667  0.333  0.238-   4 2.93   9 2.93   1 2.93  15 2.93   8 2.93  12 2.93   3 2.93   5 2.93
                            14 2.93
   7  0.000  0.667  0.238-   8 2.93   1 2.93   5 2.93   3 2.93   4 2.93  16 2.93  18 2.93  13 2.93
                             9 2.93
   8  0.333  0.667  0.238-   7 2.93   1 2.93   2 2.93   9 2.93   5 2.93  16 2.93   6 2.93  17 2.93
                            14 2.93
   9  0.667  0.667  0.238-   3 2.93   2 2.93   8 2.93   6 2.93  17 2.93   4 2.93  15 2.93   7 2.93
                            18 2.93
  10  0.111  0.111  0.346-  20 2.89  12 2.93  16 2.93  15 2.93  17 2.93  13 2.93  11 2.93   2 2.93
                             1 2.93   4 2.93  19 2.93  26 2.93
  11  0.444  0.111  0.346-  21 2.90  20 2.90  14 2.93  17 2.93  18 2.93   3 2.93  12 2.93  13 2.93
                            10 2.93   5 2.93   2 2.93  27 2.93
  12  0.778  0.111  0.346-  21 2.89  10 2.93  16 2.93  18 2.93  15 2.93  11 2.93   1 2.93  14 2.93
                             6 2.93   3 2.93  25 2.93  19 2.93
  13  0.111  0.444  0.346-  20 2.90  23 2.90  15 2.93  14 2.93  18 2.93  10 2.93  11 2.93  16 2.93
                             4 2.93   5 2.93   7 2.93  22 2.93
  14  0.444  0.444  0.346-  23 2.90  21 2.90  13 2.93  11 2.93  16 2.93   5 2.93  12 2.93  17 2.93
                             8 2.93  15 2.93   6 2.93  24 2.93
  15  0.778  0.444  0.346-  19 2.93  24 2.93  22 2.93  13 2.93  10 2.93  12 2.93  17 2.93  18 2.93
                             4 2.93   6 2.93   9 2.93  14 2.93
  16  0.111  0.778  0.346-  23 2.89  18 2.93  12 2.93  10 2.93  14 2.93  17 2.93  13 2.93   7 2.93
                             8 2.93   1 2.93  26 2.93  25 2.93
  17  0.444  0.778  0.346-  26 2.93  27 2.93  24 2.93  11 2.93  10 2.93   9 2.93  18 2.93  15 2.93
                            16 2.93   2 2.93  14 2.93   8 2.93
  18  0.778  0.778  0.346-  25 2.93  22 2.93  27 2.93  16 2.93  12 2.93  13 2.93  11 2.93  17 2.93
                            15 2.93   7 2.93   3 2.93   9 2.93
  19  0.889  0.223  0.454-  20 2.92  21 2.92  24 2.93  22 2.93  28 2.93  15 2.93  10 2.93  12 2.93
                            26 2.94  25 2.94  32 2.99  31 2.99
  20  0.222  0.222  0.452-  36 2.78  10 2.89  13 2.90  11 2.90  19 2.92  26 2.92  27 2.93  22 2.93
                            21 2.95  23 2.95  31 2.97  29 2.97
  21  0.557  0.222  0.452-  36 2.78  12 2.89  11 2.90  14 2.90  25 2.92  19 2.92  27 2.93  24 2.93
                            20 2.95  23 2.95  30 2.97  32 2.97
  22  0.888  0.556  0.454-  24 2.92  27 2.92  25 2.93  19 2.93  18 2.93  15 2.93  13 2.93  23 2.93
                            20 2.93  35 2.94  33 2.96  31 2.96
  23  0.222  0.557  0.452-  36 2.78  16 2.89  14 2.90  13 2.90  26 2.92  25 2.92  22 2.93  24 2.93
                            21 2.95  20 2.95  34 2.97  33 2.97
  24  0.556  0.556  0.454-  27 2.92  22 2.92  19 2.93  26 2.93  15 2.93  17 2.93  14 2.93  23 2.93
                            21 2.93  35 2.94  32 2.96  34 2.96
  25  0.889  0.889  0.454-  23 2.92  21 2.92  22 2.93  27 2.93  28 2.93  18 2.93  16 2.93  12 2.93
                            26 2.94  19 2.94  33 2.99  30 2.99
  26  0.223  0.889  0.454-  23 2.92  20 2.92  27 2.93  24 2.93  28 2.93  17 2.93  16 2.93  10 2.93
                            25 2.94  19 2.94  34 2.99  29 2.99
  27  0.556  0.888  0.454-  24 2.92  22 2.92  26 2.93  25 2.93  17 2.93  18 2.93  11 2.93  20 2.93
                            21 2.93  35 2.94  29 2.96  30 2.96
  28  0.000  0.000  0.562-  26 2.93  25 2.93  19 2.93  29 2.96  34 2.96  33 2.96  32 2.96  31 2.96
                            30 2.96
  29  0.334  0.006  0.564-  30 2.88  31 2.88  36 2.89  35 2.96  28 2.96  27 2.96  20 2.97  26 2.99
                            34 3.03
  30  0.661  0.006  0.564-  29 2.88  32 2.88  36 2.89  35 2.96  28 2.96  27 2.96  21 2.97  25 2.99
                            33 3.03
  31  0.006  0.334  0.564-  33 2.88  29 2.88  36 2.89  35 2.96  28 2.96  22 2.96  20 2.97  19 2.99
                            32 3.03
  32  0.661  0.334  0.564-  34 2.88  30 2.88  36 2.89  35 2.96  28 2.96  24 2.96  21 2.97  19 2.99
                            31 3.03
  33  0.006  0.661  0.564-  31 2.88  34 2.88  36 2.89  35 2.96  28 2.96  22 2.96  23 2.97  25 2.99
                            30 3.03
  34  0.334  0.661  0.564-  32 2.88  33 2.88  36 2.89  35 2.96  28 2.96  24 2.96  23 2.97  26 2.99
                            29 3.03
  35  0.667  0.667  0.562-  24 2.94  27 2.94  22 2.94  30 2.96  32 2.96  29 2.96  34 2.96  31 2.96
                            33 2.96
  36  0.333  0.333  0.551-  21 2.78  20 2.78  23 2.78  31 2.89  33 2.89  30 2.89  29 2.89  34 2.89
                            32 2.89
 
  LATTYP: Found a hexagonal cell.
 ALAT       =     8.7913665772
 C/A-ratio  =     2.5227160501
  
  Lattice vectors:
  
 A1 = (  -4.3956832886,  -7.6135467898,   0.0000000000)
 A2 = (   8.7913665771,   0.0000000000,   0.0000000000)
 A3 = (   0.0000000000,   0.0000000000,  22.1781215668)


Analysis of symmetry for initial positions (statically):
=====================================================================
 Subroutine PRICEL returns:
 Original cell was already a primitive cell.
 

 Routine SETGRP: Setting up the symmetry group for a 
 hexagonal supercell.


 Subroutine GETGRP returns: Found  6 space group operations
 (whereof  6 operations were pure point group operations)
 out of a pool of 24 trial point group operations.


The static configuration has the point symmetry C_3v.


Analysis of symmetry for dynamics (positions and initial velocities):
=====================================================================
 Subroutine PRICEL returns:
 Original cell was already a primitive cell.
 

 Routine SETGRP: Setting up the symmetry group for a 
 hexagonal supercell.


 Subroutine GETGRP returns: Found  6 space group operations
 (whereof  6 operations were pure point group operations)
 out of a pool of 24 trial point group operations.


The dynamic configuration has the point symmetry C_3v.


Analysis of constrained symmetry for selective dynamics:
=====================================================================
 Subroutine PRICEL returns:
 Original cell was already a primitive cell.
 

 Routine SETGRP: Setting up the symmetry group for a 
 hexagonal supercell.


 Subroutine GETGRP returns: Found  6 space group operations
 (whereof  6 operations were pure point group operations)
 out of a pool of 24 trial point group operations.


The constrained configuration has the point symmetry C_3v.


 Subroutine INISYM returns: Found  6 space group operations
 (whereof  6 operations are pure point group operations),
 and found     1 'primitive' translations


----------------------------------------------------------------------------------------

                                     Primitive cell                                     

  volume of cell :    1484.4589

  direct lattice vectors                    reciprocal lattice vectors
     8.791366577  0.000000000  0.000000000     0.113747958 -0.065672414  0.000000000
     4.395683289  7.613546790  0.000000000     0.000000000  0.131344829  0.000000000
     0.000000000  0.000000000 22.178121567     0.000000000  0.000000000  0.045089481

  length of vectors
     8.791366577  8.791366577 22.178121567     0.131344829  0.131344829  0.045089481

  position of ions in fractional coordinates (direct lattice)
     0.000000000  0.000000000  0.238171124
     0.333333313  0.000000000  0.238171124
     0.666666627  0.000000000  0.238171124
     0.000000000  0.333333343  0.238171124
     0.333333313  0.333333343  0.238171124
     0.666666687  0.333333343  0.238171124
     0.000000000  0.666666687  0.238171124
     0.333333313  0.666666687  0.238171124
     0.666666627  0.666666687  0.238171124
     0.111111104  0.111111112  0.346057051
     0.444444448  0.111111112  0.346057051
     0.777777791  0.111111112  0.346057051
     0.111111097  0.444444448  0.346057051
     0.444444418  0.444444448  0.346057051
     0.777777791  0.444444448  0.346057051
     0.111111104  0.777777791  0.346057051
     0.444444448  0.777777791  0.346057051
     0.777777791  0.777777791  0.346057051
     0.888701275  0.222597467  0.454023632
     0.221552221  0.221552236  0.451971225
     0.556895499  0.221552236  0.451971225
     0.888301432  0.555849314  0.454003918
     0.221552236  0.556895559  0.451971225
     0.555849314  0.555849314  0.454003918
     0.888701275  0.888701275  0.454023632
     0.222597437  0.888701275  0.454023632
     0.555849254  0.888301432  0.454003918
     0.000000000  0.000000000  0.561717193
     0.333507489  0.005743574  0.563601249
     0.660748877  0.005743574  0.563601249
     0.005743574  0.333507519  0.563601249
     0.660748937  0.333507519  0.563601249
     0.005743574  0.660748937  0.563601249
     0.333507489  0.660748937  0.563601249
     0.666666627  0.666666687  0.562313347
     0.333333313  0.333333343  0.551278424

  ion indices of the primitive-cell ions
   primitive index   ion index
                 1           1
                 2           2
                 3           3
                 4           4
                 5           5
                 6           6
                 7           7
                 8           8
                 9           9
                10          10
                11          11
                12          12
                13          13
                14          14
                15          15
                16          16
                17          17
                18          18
                19          19
                20          20
                21          21
                22          22
                23          23
                24          24
                25          25
                26          26
                27          27
                28          28
                29          29
                30          30
                31          31
                32          32
                33          33
                34          34
                35          35
                36          36

----------------------------------------------------------------------------------------

 
 
 KPOINTS: Automatic mesh                          

Automatic generation of k-mesh.
 Grid dimensions read from file:
 generate k-points for:    8    8    1

 Generating k-lattice:

  Cartesian coordinates                     Fractional coordinates (reciprocal lattice)
     0.014218495 -0.008209052  0.000000000     0.125000000  0.000000000  0.000000000
     0.000000000  0.016418104  0.000000000     0.000000000  0.125000000  0.000000000
     0.000000000  0.000000000  0.045089481     0.000000000  0.000000000  1.000000000

  Length of vectors
     0.016418104  0.016418104  0.045089481

  Shift w.r.t. Gamma in fractional coordinates (k-lattice)
     0.000000000  0.000000000  0.000000000

 TETIRR: Found     36 inequivalent tetrahedra from      384
 
 Subroutine IBZKPT returns following result:
 ===========================================
 
 Found     10 irreducible k-points:
 
 Following reciprocal coordinates:
            Coordinates               Weight
  0.000000  0.000000  0.000000      1.000000
  0.125000 -0.000000  0.000000      6.000000
  0.250000 -0.000000  0.000000      6.000000
  0.375000 -0.000000  0.000000      6.000000
  0.500000 -0.000000  0.000000      3.000000
  0.250000  0.125000  0.000000      6.000000
  0.375000  0.125000  0.000000     12.000000
  0.500000  0.125000  0.000000     12.000000
  0.500000  0.250000  0.000000      6.000000
 -0.375000  0.250000  0.000000      6.000000
 
 Following cartesian coordinates:
            Coordinates               Weight
  0.000000  0.000000  0.000000      1.000000
  0.014218 -0.008209  0.000000      6.000000
  0.028437 -0.016418  0.000000      6.000000
  0.042655 -0.024627  0.000000      6.000000
  0.056874 -0.032836  0.000000      3.000000
  0.028437 -0.000000  0.000000      6.000000
  0.042655 -0.008209  0.000000     12.000000
  0.056874 -0.016418  0.000000     12.000000
  0.056874 -0.000000  0.000000      6.000000
 -0.042655  0.057463  0.000000      6.000000
 


--------------------------------------------------------------------------------------------------------




 Dimension of arrays:
   k-points           NKPTS =     10   k-points in BZ     NKDIM =     10   number of bands    NBANDS=    252
   number of dos      NEDOS =    301   number of ions     NIONS =     36
   non local maximal  LDIM  =      6   non local SUM 2l+1 LMDIM =     18
   total plane-waves  NPLWV = 290304
   max r-space proj   IRMAX =   3475   max aug-charges    IRDMAX=  13510
   dimension x,y,z NGX =    48 NGY =   48 NGZ =  126
   dimension x,y,z NGXF=    96 NGYF=   96 NGZF=  252
   support grid    NGXF=    96 NGYF=   96 NGZF=  252
   ions per type =              35   1
   NGX,Y,Z   is equivalent  to a cutoff of   9.08,  9.08,  9.44 a.u.
   NGXF,Y,Z  is equivalent  to a cutoff of  18.15, 18.15, 18.89 a.u.

 SYSTEM =  unknown system                          
 POSCAR =  Ag-Ta                                   

 Startparameter for this run:
   NWRITE =      2    write-flag & timer
   PREC   = normal    normal or accurate (medium, high low for compatibility)
   ISTART =      0    job   : 0-new  1-cont  2-samecut
   ICHARG =     11    charge: 1-file 2-atom 10-const
   ISPIN  =      1    spin polarized calculation?
   LNONCOLLINEAR =      F non collinear calculations
   LSORBIT =      F    spin-orbit coupling
   INIWAV =      1    electr: 0-lowe 1-rand  2-diag
   LASPH  =      F    aspherical Exc in radial PAW
   METAGGA=      F    non-selfconsistent MetaGGA calc.

 Electronic Relaxation 1
   ENCUT  =  500.0 eV  36.75 Ry    6.06 a.u.  16.03 16.03 40.44*2*pi/ulx,y,z
   ENINI  =  500.0     initial cutoff
   ENAUG  =  412.5 eV  augmentation charge cutoff
   NELM   =    150;   NELMIN=  2; NELMDL= -5     # of ELM steps 
   EDIFF  = 0.1E-04   stopping-criterion for ELM
   LREAL  =      T    real-space projection
   NLSPLINE    = F    spline interpolate recip. space projectors
   LCOMPAT=      F    compatible to vasp.4.4
   GGA_COMPAT  = T    GGA compatible to vasp.4.4-vasp.4.6
   LMAXPAW     = -100 max onsite density
   LMAXMIX     =    2 max onsite mixed and CHGCAR
   VOSKOWN=      0    Vosko Wilk Nusair interpolation
   ROPT   =   -0.00050  -0.00050
 Ionic relaxation
   EDIFFG = -.1E-01   stopping-criterion for IOM
   NSW    =      0    number of steps for IOM
   NBLOCK =      1;   KBLOCK =      1    inner block; outer block 
   IBRION =     -1    ionic relax: 0-MD 1-quasi-New 2-CG
   NFREE  =      1    steps in history (QN), initial steepest desc. (CG)
   ISIF   =      2    stress and relaxation
   IWAVPR =     10    prediction:  0-non 1-charg 2-wave 3-comb
   ISYM   =      2    0-nonsym 1-usesym 2-fastsym
   LCORR  =      T    Harris-Foulkes like correction to forces

   POTIM  = 0.5000    time-step for ionic-motion
   TEIN   =    0.0    initial temperature
   TEBEG  =    0.0;   TEEND  =   0.0 temperature during run
   SMASS  =  -3.00    Nose mass-parameter (am)
   estimated Nose-frequenzy (Omega)   =  0.10E-29 period in steps = 0.13E+47 mass=  -0.177E-26a.u.
   SCALEE = 1.0000    scale energy and forces
   NPACO  =    256;   APACO  = 16.0  distance and # of slots for P.C.
   PSTRESS=    0.0 pullay stress

  Mass of Ions in am
   POMASS = 107.87180.95
  Ionic Valenz
   ZVAL   =  11.00  5.00
  Atomic Wigner-Seitz radii
   RWIGS  =  -1.00 -1.00
  virtual crystal weights 
   VCA    =   1.00  1.00
   NELECT =     390.0000    total number of electrons
   NUPDOWN=      -1.0000    fix difference up-down

 DOS related values:
   EMIN   =  10.00;   EMAX   =-10.00  energy-range for DOS
   EFERMI =   0.00
   ISMEAR =    -5;   SIGMA  =   0.10  broadening in eV -4-tet -1-fermi 0-gaus

 Electronic relaxation 2 (details)
   IALGO  =     68    algorithm
   LDIAG  =      T    sub-space diagonalisation (order eigenvalues)
   LSUBROT=      F    optimize rotation matrix (better conditioning)
   TURBO    =      0    0=normal 1=particle mesh
   IRESTART =      0    0=no restart 2=restart with 2 vectors
   NREBOOT  =      0    no. of reboots
   NMIN     =      0    reboot dimension
   EREF     =   0.00    reference energy to select bands
   IMIX   =      4    mixing-type and parameters
     AMIX     =   0.40;   BMIX     =  1.00
     AMIX_MAG =   1.60;   BMIX_MAG =  1.00
     AMIN     =   0.10
     WC   =   100.;   INIMIX=   1;  MIXPRE=   1;  MAXMIX= -45

 Intra band minimization:
   WEIMIN = 0.0000     energy-eigenvalue tresh-hold
   EBREAK =  0.99E-08  absolut break condition
   DEPER  =   0.30     relativ break condition  

   TIME   =   0.40     timestep for ELM

  volume/ion in A,a.u.               =      41.23       278.27
  Fermi-wavevector in a.u.,A,eV,Ry     =   1.048513  1.981401 14.957954  1.099379
  Thomas-Fermi vector in A             =   2.183437
 
 Write flags
   LWAVE        =      F    write WAVECAR
   LDOWNSAMPLE  =      F    k-point downsampling of WAVECAR
   LCHARG       =      F    write CHGCAR
   LVTOT        =      F    write LOCPOT, total local potential
   LVHAR        =      F    write LOCPOT, Hartree potential only
   LELF         =      F    write electronic localiz. function (ELF)
   LORBIT       =     10    0 simple, 1 ext, 2 COOP (PROOUT), +10 PAW based schemes


 Dipole corrections
   LMONO  =      F    monopole corrections only (constant potential shift)
   LDIPOL =      F    correct potential (dipole corrections)
   IDIPOL =      0    1-x, 2-y, 3-z, 4-all directions 
   EPSILON=  1.0000000 bulk dielectric constant

 Exchange correlation treatment:
   GGA     =    --    GGA type
   LEXCH   =     8    internal setting for exchange type
   VOSKOWN=      0    Vosko Wilk Nusair interpolation
   LHFCALC =     F    Hartree Fock is set to
   LHFONE  =     F    Hartree Fock one center treatment
   AEXX    =    0.0000 exact exchange contribution

 Linear response parameters
   LEPSILON=     F    determine dielectric tensor
   LRPA    =     F    only Hartree local field effects (RPA)
   LNABLA  =     F    use nabla operator in PAW spheres
   LVEL    =     F    velocity operator in full k-point grid
   LINTERFAST=   F  fast interpolation
   KINTER  =     0    interpolate to denser k-point grid
   CSHIFT  =0.1000    complex shift for real part using Kramers Kronig
   OMEGAMAX=  -1.0    maximum frequency
   DEG_THRESHOLD= 0.2000000E-02 threshold for treating states as degnerate
   RTIME   =   -0.100 relaxation time in fs
  (WPLASMAI=    0.000 imaginary part of plasma frequency in eV, 0.658/RTIME)
   DFIELD  = 0.0000000 0.0000000 0.0000000 field for delta impulse in time
 
 Orbital magnetization related:
   ORBITALMAG=     F  switch on orbital magnetization
   LCHIMAG   =     F  perturbation theory with respect to B field
   DQ        =  0.001000  dq finite difference perturbation B field
   LLRAUG    =     F  two centre corrections for induced B field



--------------------------------------------------------------------------------------------------------


 Static calculation
 charge density and potential remain constant during run
 non-spin polarized calculation
 RMM-DIIS sequential band-by-band and
  variant of blocked Davidson during initial phase
 perform sub-space diagonalisation
    before iterative eigenvector-optimisation
 no mixing
 using additional bands           57
 real space projection scheme for non local part
 use partial core corrections
 calculate Harris-corrections to forces 
   (improved forces if not selfconsistent)
 use gradient corrections 
 WARNING: stress and forces are not correct
  (second derivative of E(xc) not defined)
 use of overlap-Matrix (Vanderbilt PP)
 Fermi weights with tetrahedron method with Bloechl corrections


--------------------------------------------------------------------------------------------------------


  energy-cutoff  :      500.00
  volume of cell :     1484.46
      direct lattice vectors                 reciprocal lattice vectors
     8.791366577  0.000000000  0.000000000     0.113747958 -0.065672414  0.000000000
     4.395683289  7.613546790  0.000000000     0.000000000  0.131344829  0.000000000
     0.000000000  0.000000000 22.178121567     0.000000000  0.000000000  0.045089481

  length of vectors
     8.791366577  8.791366577 22.178121567     0.131344829  0.131344829  0.045089481


 
 k-points in units of 2pi/SCALE and weight: Automatic mesh                          
   0.00000000  0.00000000  0.00000000       0.016
   0.01421849 -0.00820905  0.00000000       0.094
   0.02843699 -0.01641810  0.00000000       0.094
   0.04265548 -0.02462716  0.00000000       0.094
   0.05687398 -0.03283621  0.00000000       0.047
   0.02843699 -0.00000000  0.00000000       0.094
   0.04265548 -0.00820905  0.00000000       0.188
   0.05687398 -0.01641810  0.00000000       0.188
   0.05687398 -0.00000000  0.00000000       0.094
  -0.04265548  0.05746336  0.00000000       0.094
 
 k-points in reciprocal lattice and weights: Automatic mesh                          
   0.00000000  0.00000000  0.00000000       0.016
   0.12500000 -0.00000000  0.00000000       0.094
   0.25000000 -0.00000000  0.00000000       0.094
   0.37500000 -0.00000000  0.00000000       0.094
   0.50000000 -0.00000000  0.00000000       0.047
   0.25000000  0.12500000  0.00000000       0.094
   0.37500000  0.12500000  0.00000000       0.188
   0.50000000  0.12500000  0.00000000       0.188
   0.50000000  0.25000000  0.00000000       0.094
  -0.37500000  0.25000000  0.00000000       0.094
 
 position of ions in fractional coordinates (direct lattice) 
   0.00000000  0.00000000  0.23817112
   0.33333331  0.00000000  0.23817112
   0.66666663  0.00000000  0.23817112
   0.00000000  0.33333334  0.23817112
   0.33333331  0.33333334  0.23817112
   0.66666669  0.33333334  0.23817112
   0.00000000  0.66666669  0.23817112
   0.33333331  0.66666669  0.23817112
   0.66666663  0.66666669  0.23817112
   0.11111110  0.11111111  0.34605705
   0.44444445  0.11111111  0.34605705
   0.77777779  0.11111111  0.34605705
   0.11111110  0.44444445  0.34605705
   0.44444442  0.44444445  0.34605705
   0.77777779  0.44444445  0.34605705
   0.11111110  0.77777779  0.34605705
   0.44444445  0.77777779  0.34605705
   0.77777779  0.77777779  0.34605705
   0.88870127  0.22259747  0.45402363
   0.22155222  0.22155224  0.45197123
   0.55689550  0.22155224  0.45197123
   0.88830143  0.55584931  0.45400392
   0.22155224  0.55689556  0.45197123
   0.55584931  0.55584931  0.45400392
   0.88870127  0.88870127  0.45402363
   0.22259744  0.88870127  0.45402363
   0.55584925  0.88830143  0.45400392
   0.00000000  0.00000000  0.56171719
   0.33350749  0.00574357  0.56360125
   0.66074888  0.00574357  0.56360125
   0.00574357  0.33350752  0.56360125
   0.66074894  0.33350752  0.56360125
   0.00574357  0.66074894  0.56360125
   0.33350749  0.66074894  0.56360125
   0.66666663  0.66666669  0.56231335
   0.33333331  0.33333334  0.55127842
 
 position of ions in cartesian coordinates  (Angst):
   0.00000000  0.00000000  5.28218814
   2.93045535  0.00000000  5.28218814
   5.86091070  0.00000000  5.28218814
   1.46522781  2.53784900  5.28218814
   4.39568315  2.53784900  5.28218814
   7.32613904  2.53784900  5.28218814
   2.93045562  5.07569801  5.28218814
   5.86091096  5.07569801  5.28218814
   8.79136632  5.07569801  5.28218814
   1.46522770  0.84594965  7.67489535
   4.39568332  0.84594965  7.67489535
   7.32613893  0.84594965  7.67489535
   2.93045542  3.38379860  7.67489535
   5.86091083  3.38379860  7.67489535
   8.79136671  3.38379860  7.67489535
   4.39568328  5.92164760  7.67489535
   7.32613890  5.92164760  7.67489535
  10.25659451  5.92164760  7.67489535
   8.79136665  1.69475623 10.06939130
   2.92162025  1.68679831 10.02387278
   5.86974594  1.68679831 10.02387278
  10.25272106  4.23198476 10.06895410
   4.39568342  4.23995040 10.02387278
   7.33001262  4.23198476 10.06895410
  11.71934803  6.76616874 10.06939130
   5.86338501  6.76616874 10.06939130
   8.79136631  6.76312452 10.06895410
   0.00000000  0.00000000 12.45783220
   2.95723353  0.04372897 12.49961703
   5.83413252  0.04372897 12.49961703
   1.51648729  2.53917510 12.49961703
   7.27487955  2.53917510 12.49961703
   2.95493692  5.03064295 12.49961703
   5.83642965  5.03064295 12.49961703
   8.79136632  5.07569801 12.47105378
   4.39568315  2.53784900 12.22631990
 


--------------------------------------------------------------------------------------------------------


 k-point   1 :   0.0000 0.0000 0.0000  plane waves:   37683
 k-point   2 :   0.1250-0.0000 0.0000  plane waves:   37658
 k-point   3 :   0.2500-0.0000 0.0000  plane waves:   37682
 k-point   4 :   0.3750-0.0000 0.0000  plane waves:   37686
 k-point   5 :   0.5000-0.0000 0.0000  plane waves:   37668
 k-point   6 :   0.2500 0.1250 0.0000  plane waves:   37666
 k-point   7 :   0.3750 0.1250 0.0000  plane waves:   37708
 k-point   8 :   0.5000 0.1250 0.0000  plane waves:   37726
 k-point   9 :   0.5000 0.2500 0.0000  plane waves:   37706
 k-point  10 :  -0.3750 0.2500 0.0000  plane waves:   37686

 maximum and minimum number of plane-waves per node :     37726    37658

 maximum number of plane-waves:     37726
 maximum index in each direction: 
   IXMAX=   16   IYMAX=   16   IZMAX=   40
   IXMIN=  -16   IYMIN=  -16   IZMIN=  -40


 serial   3D FFT for wavefunctions
 parallel 3D FFT for charge:
    minimum data exchange during FFTs selected (reduces bandwidth)


 total amount of memory used by VASP MPI-rank0   122785. kBytes
=======================================================================

   base      :      30000. kBytes
   nonlr-proj:      15479. kBytes
   fftplans  :       4330. kBytes
   grid      :      17098. kBytes
   one-center:        559. kBytes
   wavefun   :      55319. kBytes
 
     INWAV:  cpu time    0.0000: real time    0.0000
 initial charge density was supplied:
 number of electron     389.9999896 magnetization 
 keeping initial charge density in first step


--------------------------------------------------------------------------------------------------------


 Maximum index for non-local projection operator         3306
 Maximum index for augmentation-charges          706 (set IRDMAX)


--------------------------------------------------------------------------------------------------------


 First call to EWALD:  gamma=   0.155
 Maximum number of real-space cells 4x 4x 2
 Maximum number of reciprocal cells 2x 2x 5

    FEWALD:  cpu time    0.0013: real time    0.0014


--------------------------------------- Iteration      1(   1)  ---------------------------------------


    POTLOK:  cpu time    0.0611: real time    0.0616
    SETDIJ:  cpu time    0.0053: real time    0.0053
     EDDAV:  cpu time   12.1445: real time   12.2307
 BZINTS: Fermi energy:    9.074301;  390.000000 electrons
         Band energy: 0.116712E+04;  BLOECHL correction:   -0.022221
       DOS:  cpu time    0.0111: real time    0.0111
    --------------------------------------------
      LOOP:  cpu time   12.2220: real time   12.3088

 eigenvalue-minimisations  :  5040
 total energy-change (2. order) : 0.2342791E+04  (-0.1796684E+05)
 number of electron     389.9999896 magnetization 
 augmentation part      389.9999896 magnetization 

 Free energy of the ion-electron system (eV)
  ---------------------------------------------------
  alpha Z        PSCENC =       740.16584848
  Ewald energy   TEWEN  =     95781.01531617
  -Hartree energ DENC   =   -132931.62222182
  -exchange      EXHF   =         0.00000000
  -V(xc)+E(xc)   XCENC  =      -456.03835540
  PAW double counting   =     38618.89150210   -37011.57441671
  entropy T*S    EENTRO =         0.00000000
  eigenvalues    EBANDS =      1167.12353717
  atomic energy  EATOM  =     36434.83018916
  Solvation  Ediel_sol  =         0.00000000
  ---------------------------------------------------
  free energy    TOTEN  =      2342.79139914 eV

  energy without entropy =     2342.79139914  energy(sigma->0) =     2342.79139914


--------------------------------------------------------------------------------------------------------




--------------------------------------- Iteration      1(   2)  ---------------------------------------


     EDDAV:  cpu time   10.5479: real time   10.5588
 BZINTS: Fermi energy:    1.365544;  390.000000 electrons
         Band energy:-0.120006E+04;  BLOECHL correction:   -0.023250
       DOS:  cpu time    0.0095: real time    0.0095
    --------------------------------------------
      LOOP:  cpu time   10.5574: real time   10.5683

 eigenvalue-minimisations  :  5320
 total energy-change (2. order) :-0.2367182E+04  (-0.2246765E+04)
 number of electron     389.9999896 magnetization 
 augmentation part      389.9999896 magnetization 

 Free energy of the ion-electron system (eV)
  ---------------------------------------------------
  alpha Z        PSCENC =       740.16584848
  Ewald energy   TEWEN  =     95781.01531617
  -Hartree energ DENC   =   -132931.62222182
  -exchange      EXHF   =         0.00000000
  -V(xc)+E(xc)   XCENC  =      -456.03835540
  PAW double counting   =     38618.89150210   -37011.57441671
  entropy T*S    EENTRO =         0.00000000
  eigenvalues    EBANDS =     -1200.05805831
  atomic energy  EATOM  =     36434.83018916
  Solvation  Ediel_sol  =         0.00000000
  ---------------------------------------------------
  free energy    TOTEN  =       -24.39019634 eV

  energy without entropy =      -24.39019634  energy(sigma->0) =      -24.39019634


--------------------------------------------------------------------------------------------------------




--------------------------------------- Iteration      1(   3)  ---------------------------------------


     EDDAV:  cpu time    9.8045: real time    9.8071
 BZINTS: Fermi energy:    0.855303;  390.000000 electrons
         Band energy:-0.127250E+04;  BLOECHL correction:   -0.024522
       DOS:  cpu time    0.0115: real time    0.0115
    --------------------------------------------
      LOOP:  cpu time    9.8160: real time    9.8186

 eigenvalue-minimisations  :  5880
 total energy-change (2. order) :-0.7243740E+02  (-0.7049733E+02)
 number of electron     389.9999896 magnetization 
 augmentation part      389.9999896 magnetization 

 Free energy of the ion-electron system (eV)
  ---------------------------------------------------
  alpha Z        PSCENC =       740.16584848
  Ewald energy   TEWEN  =     95781.01531617
  -Hartree energ DENC   =   -132931.62222182
  -exchange      EXHF   =         0.00000000
  -V(xc)+E(xc)   XCENC  =      -456.03835540
  PAW double counting   =     38618.89150210   -37011.57441671
  entropy T*S    EENTRO =         0.00000000
  eigenvalues    EBANDS =     -1272.49545513
  atomic energy  EATOM  =     36434.83018916
  Solvation  Ediel_sol  =         0.00000000
  ---------------------------------------------------
  free energy    TOTEN  =       -96.82759316 eV

  energy without entropy =      -96.82759316  energy(sigma->0) =      -96.82759316


--------------------------------------------------------------------------------------------------------




--------------------------------------- Iteration      1(   4)  ---------------------------------------


     EDDAV:  cpu time   13.0086: real time   13.0587
 BZINTS: Fermi energy:    0.838189;  390.000000 electrons
         Band energy:-0.127349E+04;  BLOECHL correction:   -0.024374
       DOS:  cpu time    0.0104: real time    0.0104
    --------------------------------------------
      LOOP:  cpu time   13.0190: real time   13.0691

 eigenvalue-minimisations  :  5964
 total energy-change (2. order) :-0.9925246E+00  (-0.9898621E+00)
 number of electron     389.9999896 magnetization 
 augmentation part      389.9999896 magnetization 

 Free energy of the ion-electron system (eV)
  ---------------------------------------------------
  alpha Z        PSCENC =       740.16584848
  Ewald energy   TEWEN  =     95781.01531617
  -Hartree energ DENC   =   -132931.62222182
  -exchange      EXHF   =         0.00000000
  -V(xc)+E(xc)   XCENC  =      -456.03835540
  PAW double counting   =     38618.89150210   -37011.57441671
  entropy T*S    EENTRO =         0.00000000
  eigenvalues    EBANDS =     -1273.48797978
  atomic energy  EATOM  =     36434.83018916
  Solvation  Ediel_sol  =         0.00000000
  ---------------------------------------------------
  free energy    TOTEN  =       -97.82011781 eV

  energy without entropy =      -97.82011781  energy(sigma->0) =      -97.82011781


--------------------------------------------------------------------------------------------------------




--------------------------------------- Iteration      1(   5)  ---------------------------------------


     EDDAV:  cpu time   13.1855: real time   13.1924
 BZINTS: Fermi energy:    0.837906;  390.000000 electrons
         Band energy:-0.127351E+04;  BLOECHL correction:   -0.024374
       DOS:  cpu time    0.0108: real time    0.0108
    --------------------------------------------
      LOOP:  cpu time   13.1963: real time   13.2032

 eigenvalue-minimisations  :  6188
 total energy-change (2. order) :-0.2073667E-01  (-0.2074232E-01)
 number of electron     389.9999896 magnetization 
 augmentation part      389.9999896 magnetization 

 Free energy of the ion-electron system (eV)
  ---------------------------------------------------
  alpha Z        PSCENC =       740.16584848
  Ewald energy   TEWEN  =     95781.01531617
  -Hartree energ DENC   =   -132931.62222182
  -exchange      EXHF   =         0.00000000
  -V(xc)+E(xc)   XCENC  =      -456.03835540
  PAW double counting   =     38618.89150210   -37011.57441671
  entropy T*S    EENTRO =         0.00000000
  eigenvalues    EBANDS =     -1273.50871645
  atomic energy  EATOM  =     36434.83018916
  Solvation  Ediel_sol  =         0.00000000
  ---------------------------------------------------
  free energy    TOTEN  =       -97.84085448 eV

  energy without entropy =      -97.84085448  energy(sigma->0) =      -97.84085448


--------------------------------------------------------------------------------------------------------




--------------------------------------- Iteration      1(   6)  ---------------------------------------


    EDDIAG:  cpu time    2.0686: real time    2.0695
  RMM-DIIS:  cpu time    6.4706: real time    6.4716
    ORTHCH:  cpu time    0.3775: real time    0.3775
 BZINTS: Fermi energy:    0.837901;  390.000000 electrons
         Band energy:-0.127351E+04;  BLOECHL correction:   -0.024375
       DOS:  cpu time    0.0140: real time    0.0140
    --------------------------------------------
      LOOP:  cpu time    8.9308: real time    8.9326

 eigenvalue-minimisations  :  4992
 total energy-change (2. order) :-0.6413976E-03  (-0.6411391E-03)
 number of electron     389.9999896 magnetization 
 augmentation part      389.9999896 magnetization 

 Free energy of the ion-electron system (eV)
  ---------------------------------------------------
  alpha Z        PSCENC =       740.16584848
  Ewald energy   TEWEN  =     95781.01531617
  -Hartree energ DENC   =   -132931.62222182
  -exchange      EXHF   =         0.00000000
  -V(xc)+E(xc)   XCENC  =      -456.03835540
  PAW double counting   =     38618.89150210   -37011.57441671
  entropy T*S    EENTRO =         0.00000000
  eigenvalues    EBANDS =     -1273.50935785
  atomic energy  EATOM  =     36434.83018916
  Solvation  Ediel_sol  =         0.00000000
  ---------------------------------------------------
  free energy    TOTEN  =       -97.84149587 eV

  energy without entropy =      -97.84149587  energy(sigma->0) =      -97.84149587


--------------------------------------------------------------------------------------------------------




--------------------------------------- Iteration      1(   7)  ---------------------------------------


    EDDIAG:  cpu time    2.0735: real time    2.0749
  RMM-DIIS:  cpu time    8.7478: real time    8.8276
    ORTHCH:  cpu time    0.3579: real time    0.3580
 BZINTS: Fermi energy:    0.837899;  390.000000 electrons
         Band energy:-0.127351E+04;  BLOECHL correction:   -0.024375
       DOS:  cpu time    0.0114: real time    0.0114
    --------------------------------------------
      LOOP:  cpu time   11.1907: real time   11.2719

 eigenvalue-minimisations  :  7030
 total energy-change (2. order) :-0.2343418E-03  (-0.2341582E-03)
 number of electron     389.9999896 magnetization 
 augmentation part      389.9999896 magnetization 

 Free energy of the ion-electron system (eV)
  ---------------------------------------------------
  alpha Z        PSCENC =       740.16584848
  Ewald energy   TEWEN  =     95781.01531617
  -Hartree energ DENC   =   -132931.62222182
  -exchange      EXHF   =         0.00000000
  -V(xc)+E(xc)   XCENC  =      -456.03835540
  PAW double counting   =     38618.89150210   -37011.57441671
  entropy T*S    EENTRO =         0.00000000
  eigenvalues    EBANDS =     -1273.50959219
  atomic energy  EATOM  =     36434.83018916
  Solvation  Ediel_sol  =         0.00000000
  ---------------------------------------------------
  free energy    TOTEN  =       -97.84173022 eV

  energy without entropy =      -97.84173022  energy(sigma->0) =      -97.84173022


--------------------------------------------------------------------------------------------------------




--------------------------------------- Iteration      1(   8)  ---------------------------------------


    EDDIAG:  cpu time    2.0957: real time    2.0975
  RMM-DIIS:  cpu time    6.3640: real time    6.3669
    ORTHCH:  cpu time    0.3797: real time    0.3798
 BZINTS: Fermi energy:    0.837899;  390.000000 electrons
         Band energy:-0.127351E+04;  BLOECHL correction:   -0.024375
       DOS:  cpu time    0.0117: real time    0.0117
    --------------------------------------------
      LOOP:  cpu time    8.8512: real time    8.8559

 eigenvalue-minimisations  :  4427
 total energy-change (2. order) :-0.8119387E-05  (-0.8097698E-05)
 number of electron     389.9999896 magnetization 
 augmentation part      389.9999896 magnetization 

 Free energy of the ion-electron system (eV)
  ---------------------------------------------------
  alpha Z        PSCENC =       740.16584848
  Ewald energy   TEWEN  =     95781.01531617
  -Hartree energ DENC   =   -132931.62222182
  -exchange      EXHF   =         0.00000000
  -V(xc)+E(xc)   XCENC  =      -456.03835540
  PAW double counting   =     38618.89150210   -37011.57441671
  entropy T*S    EENTRO =         0.00000000
  eigenvalues    EBANDS =     -1273.50960031
  atomic energy  EATOM  =     36434.83018916
  Solvation  Ediel_sol  =         0.00000000
  ---------------------------------------------------
  free energy    TOTEN  =       -97.84173833 eV

  energy without entropy =      -97.84173833  energy(sigma->0) =      -97.84173833


--------------------------------------------------------------------------------------------------------




 average (electrostatic) potential at core
  the test charge radii are     1.1249  1.2538
  (the norm of the test charge is              1.0000)
       1 -78.0513       2 -78.0477       3 -78.0476       4 -78.0477       5 -78.0319
       6 -78.0474       7 -78.0476       8 -78.0474       9 -78.0450      10 -78.2897
      11 -78.2694      12 -78.2895      13 -78.2694      14 -78.2691      15 -78.2592
      16 -78.2896      17 -78.2592      18 -78.2592      19 -78.2709      20 -78.5111
      21 -78.5110      22 -78.2299      23 -78.5111      24 -78.2298      25 -78.2710
      26 -78.2711      27 -78.2299      28 -78.0765      29 -78.2005      30 -78.2005
      31 -78.2006      32 -78.2004      33 -78.2007      34 -78.2006      35 -78.0539
      36 -41.9178
 
 
 
 E-fermi :   0.8379     XC(G=0):  -5.9192     alpha+bet : -5.5768

 Fermi energy:         0.8378989459

 k-point     1 :       0.0000    0.0000    0.0000
  band No.  band energies     occupation 
      1      -6.3296      2.00000
      2      -5.4993      2.00000
      3      -5.2615      2.00000
      4      -5.0899      2.00000
      5      -5.0422      2.00000
      6      -5.0348      2.00000
      7      -5.0347      2.00000
      8      -5.0232      2.00000
      9      -5.0232      2.00000
     10      -4.9973      2.00000
     11      -4.9844      2.00000
     12      -4.9693      2.00000
     13      -4.9693      2.00000
     14      -4.9635      2.00000
     15      -4.9575      2.00000
     16      -4.9575      2.00000
     17      -4.8377      2.00000
     18      -4.8377      2.00000
     19      -4.8301      2.00000
     20      -4.8056      2.00000
     21      -4.7860      2.00000
     22      -4.7860      2.00000
     23      -4.6885      2.00000
     24      -4.6670      2.00000
     25      -4.6302      2.00000
     26      -4.6302      2.00000
     27      -4.6196      2.00000
     28      -4.6196      2.00000
     29      -4.5953      2.00000
     30      -4.5721      2.00000
     31      -4.5601      2.00000
     32      -4.5601      2.00000
     33      -4.5476      2.00000
     34      -4.5476      2.00000
     35      -4.5327      2.00000
     36      -4.4948      2.00000
     37      -4.4744      2.00000
     38      -4.4744      2.00000
     39      -4.4505      2.00000
     40      -4.4505      2.00000
     41      -4.2462      2.00000
     42      -4.2461      2.00000
     43      -4.2441      2.00000
     44      -4.2233      2.00000
     45      -4.2205      2.00000
     46      -4.2204      2.00000
     47      -4.2143      2.00000
     48      -4.2143      2.00000
     49      -4.1927      2.00000
     50      -4.1927      2.00000
     51      -4.0654      2.00000
     52      -4.0515      2.00000
     53      -4.0391      2.00000
     54      -4.0221      2.00000
     55      -3.9033      2.00000
     56      -3.8774      2.00000
     57      -3.8774      2.00000
     58      -3.8497      2.00000
     59      -3.8485      2.00000
     60      -3.8485      2.00000
     61      -3.8375      2.00000
     62      -3.8103      2.00000
     63      -3.8103      2.00000
     64      -3.7711      2.00000
     65      -3.7711      2.00000
     66      -3.6921      2.00000
     67      -3.6921      2.00000
     68      -3.6852      2.00000
     69      -3.6820      2.00000
     70      -3.6820      2.00000
     71      -3.6800      2.00000
     72      -3.6706      2.00000
     73      -3.6706      2.00000
     74      -3.6540      2.00000
     75      -3.6540      2.00000
     76      -3.6500      2.00000
     77      -3.6300      2.00000
     78      -3.6190      2.00000
     79      -3.6189      2.00000
     80      -3.5788      2.00000
     81      -3.5788      2.00000
     82      -3.5574      2.00000
     83      -3.5574      2.00000
     84      -3.5369      2.00000
     85      -3.4953      2.00000
     86      -3.4953      2.00000
     87      -3.4829      2.00000
     88      -3.4829      2.00000
     89      -3.4583      2.00000
     90      -3.4493      2.00000
     91      -3.4493      2.00000
     92      -3.4157      2.00000
     93      -3.4157      2.00000
     94      -3.3723      2.00000
     95      -3.3510      2.00000
     96      -3.3510      2.00000
     97      -3.3295      2.00000
     98      -3.3295      2.00000
     99      -3.1775      2.00000
    100      -3.1774      2.00000
    101      -3.1568      2.00000
    102      -3.1398      2.00000
    103      -3.1398      2.00000
    104      -3.1114      2.00000
    105      -3.1114      2.00000
    106      -3.0848      2.00000
    107      -3.0836      2.00000
    108      -3.0581      2.00000
    109      -3.0581      2.00000
    110      -3.0171      2.00000
    111      -2.9987      2.00000
    112      -2.9987      2.00000
    113      -2.9922      2.00000
    114      -2.9767      2.00000
    115      -2.8929      2.00000
    116      -2.8929      2.00000
    117      -2.8575      2.00000
    118      -2.8575      2.00000
    119      -2.8237      2.00000
    120      -2.8236      2.00000
    121      -2.8019      2.00000
    122      -2.8018      2.00000
    123      -2.7850      2.00000
    124      -2.7709      2.00000
    125      -2.7529      2.00000
    126      -2.7529      2.00000
    127      -2.7381      2.00000
    128      -2.7381      2.00000
    129      -2.7358      2.00000
    130      -2.7315      2.00000
    131      -2.7295      2.00000
    132      -2.7295      2.00000
    133      -2.6472      2.00000
    134      -2.6472      2.00000
    135      -2.5998      2.00000
    136      -2.5955      2.00000
    137      -2.5955      2.00000
    138      -2.5533      2.00000
    139      -2.5521      2.00000
    140      -2.5521      2.00000
    141      -2.5521      2.00000
    142      -2.5279      2.00000
    143      -2.5279      2.00000
    144      -2.5097      2.00000
    145      -2.5083      2.00000
    146      -2.4852      2.00000
    147      -2.4851      2.00000
    148      -2.4745      2.00000
    149      -2.4574      2.00000
    150      -2.4494      2.00000
    151      -2.4494      2.00000
    152      -2.4429      2.00000
    153      -2.4307      2.00000
    154      -2.4307      2.00000
    155      -2.4262      2.00000
    156      -2.4082      2.00000
    157      -2.4082      2.00000
    158      -2.3948      2.00000
    159      -2.3433      2.00000
    160      -2.3433      2.00000
    161      -2.3392      2.00000
    162      -2.3254      2.00000
    163      -2.3151      2.00000
    164      -2.3151      2.00000
    165      -2.3147      2.00000
    166      -2.3066      2.00000
    167      -2.3043      2.00000
    168      -2.3043      2.00000
    169      -2.2596      2.00000
    170      -2.2596      2.00000
    171      -2.2368      2.00000
    172      -2.2367      2.00000
    173      -2.1690      2.00000
    174      -2.1671      2.00000
    175      -2.1671      2.00000
    176      -2.1420      2.00000
    177      -2.1419      2.00000
    178      -2.1372      2.00000
    179      -2.1074      2.00000
    180      -2.0495      2.00000
    181      -2.0495      2.00000
    182      -2.0385      2.00000
    183      -2.0385      2.00000
    184      -2.0251      2.00000
    185      -1.3293      2.00000
    186      -1.3176      2.00000
    187      -1.3175      2.00000
    188      -1.2768      2.00000
    189      -1.2767      2.00000
    190      -1.2537      2.00000
    191      -0.1235      2.00000
    192       0.1522      2.00000
    193       0.2233      2.00000
    194       0.2233      2.00000
    195       0.3808      2.00000
    196       0.3808      2.00000
    197       0.4638      2.85236
    198       1.0822      0.00000
    199       1.0822      0.00000
    200       1.1429      0.00000
    201       1.3289      0.00000
    202       1.3289      0.00000
    203       1.4873      0.00000
    204       2.6734      0.00000
    205       2.6918      0.00000
    206       2.6918      0.00000
    207       2.8095      0.00000
    208       3.1970      0.00000
    209       3.1970      0.00000
    210       4.0474      0.00000
    211       4.2070      0.00000
    212       4.2886      0.00000
    213       4.2886      0.00000
    214       4.3719      0.00000
    215       4.3720      0.00000
    216       4.9806      0.00000
    217       5.0455      0.00000
    218       5.0455      0.00000
    219       5.0625      0.00000
    220       5.0638      0.00000
    221       5.0638      0.00000
    222       5.0950      0.00000
    223       5.1585      0.00000
    224       5.2440      0.00000
    225       5.2440      0.00000
    226       5.2920      0.00000
    227       5.4587      0.00000
    228       5.4587      0.00000
    229       5.5157      0.00000
    230       6.5049      0.00000
    231       6.6507      0.00000
    232       6.6952      0.00000
    233       6.6952      0.00000
    234       6.7935      0.00000
    235       6.8572      0.00000
    236       6.8572      0.00000
    237       6.8768      0.00000
    238       6.9975      0.00000
    239       6.9975      0.00000
    240       7.0203      0.00000
    241       7.0204      0.00000
    242       7.0544      0.00000
    243       7.1875      0.00000
    244       7.3427      0.00000
    245       7.3657      0.00000
    246       7.3664      0.00000
    247       7.4955      0.00000
    248       7.4975      0.00000
    249       7.5893      0.00000
    250       7.7339      0.00000
    251       7.7556      0.00000
    252       7.7672      0.00000

 k-point     2 :       0.1250   -0.0000    0.0000
  band No.  band energies     occupation 
      1      -6.2838      2.00000
      2      -5.4594      2.00000
      3      -5.2374      2.00000
      4      -5.0936      2.00000
      5      -5.0769      2.00000
      6      -5.0336      2.00000
      7      -5.0288      2.00000
      8      -5.0265      2.00000
      9      -5.0052      2.00000
     10      -5.0001      2.00000
     11      -4.9842      2.00000
     12      -4.9624      2.00000
     13      -4.9611      2.00000
     14      -4.9182      2.00000
     15      -4.9040      2.00000
     16      -4.9020      2.00000
     17      -4.8875      2.00000
     18      -4.8620      2.00000
     19      -4.8569      2.00000
     20      -4.7713      2.00000
     21      -4.7485      2.00000
     22      -4.7157      2.00000
     23      -4.7080      2.00000
     24      -4.6736      2.00000
     25      -4.6716      2.00000
     26      -4.6623      2.00000
     27      -4.6406      2.00000
     28      -4.6028      2.00000
     29      -4.5812      2.00000
     30      -4.5734      2.00000
     31      -4.5574      2.00000
     32      -4.5551      2.00000
     33      -4.5465      2.00000
     34      -4.5083      2.00000
     35      -4.4822      2.00000
     36      -4.4728      2.00000
     37      -4.4664      2.00000
     38      -4.4277      2.00000
     39      -4.3890      2.00000
     40      -4.3853      2.00000
     41      -4.3013      2.00000
     42      -4.2995      2.00000
     43      -4.2889      2.00000
     44      -4.2639      2.00000
     45      -4.2583      2.00000
     46      -4.2537      2.00000
     47      -4.2332      2.00000
     48      -4.1877      2.00000
     49      -4.1759      2.00000
     50      -4.1434      2.00000
     51      -4.0616      2.00000
     52      -4.0485      2.00000
     53      -4.0237      2.00000
     54      -4.0219      2.00000
     55      -3.9141      2.00000
     56      -3.8989      2.00000
     57      -3.8883      2.00000
     58      -3.8726      2.00000
     59      -3.8561      2.00000
     60      -3.8433      2.00000
     61      -3.8349      2.00000
     62      -3.8303      2.00000
     63      -3.8034      2.00000
     64      -3.7945      2.00000
     65      -3.7597      2.00000
     66      -3.7495      2.00000
     67      -3.7295      2.00000
     68      -3.7180      2.00000
     69      -3.7153      2.00000
     70      -3.7083      2.00000
     71      -3.6710      2.00000
     72      -3.6640      2.00000
     73      -3.6595      2.00000
     74      -3.6547      2.00000
     75      -3.6321      2.00000
     76      -3.6315      2.00000
     77      -3.6279      2.00000
     78      -3.6133      2.00000
     79      -3.6100      2.00000
     80      -3.5850      2.00000
     81      -3.5696      2.00000
     82      -3.5659      2.00000
     83      -3.5573      2.00000
     84      -3.5534      2.00000
     85      -3.5452      2.00000
     86      -3.5399      2.00000
     87      -3.5125      2.00000
     88      -3.5068      2.00000
     89      -3.4781      2.00000
     90      -3.4705      2.00000
     91      -3.4542      2.00000
     92      -3.4129      2.00000
     93      -3.4123      2.00000
     94      -3.3839      2.00000
     95      -3.3753      2.00000
     96      -3.2833      2.00000
     97      -3.2364      2.00000
     98      -3.2316      2.00000
     99      -3.2119      2.00000
    100      -3.1996      2.00000
    101      -3.1729      2.00000
    102      -3.1722      2.00000
    103      -3.1526      2.00000
    104      -3.1432      2.00000
    105      -3.1321      2.00000
    106      -3.1112      2.00000
    107      -3.1069      2.00000
    108      -3.0634      2.00000
    109      -3.0531      2.00000
    110      -3.0326      2.00000
    111      -3.0185      2.00000
    112      -2.9863      2.00000
    113      -2.9839      2.00000
    114      -2.9708      2.00000
    115      -2.9299      2.00000
    116      -2.9157      2.00000
    117      -2.9137      2.00000
    118      -2.8923      2.00000
    119      -2.8905      2.00000
    120      -2.8767      2.00000
    121      -2.8527      2.00000
    122      -2.8464      2.00000
    123      -2.8195      2.00000
    124      -2.8179      2.00000
    125      -2.7997      2.00000
    126      -2.7919      2.00000
    127      -2.7819      2.00000
    128      -2.7705      2.00000
    129      -2.7587      2.00000
    130      -2.7419      2.00000
    131      -2.7269      2.00000
    132      -2.7249      2.00000
    133      -2.7144      2.00000
    134      -2.6945      2.00000
    135      -2.6797      2.00000
    136      -2.6400      2.00000
    137      -2.6360      2.00000
    138      -2.6219      2.00000
    139      -2.6006      2.00000
    140      -2.5914      2.00000
    141      -2.5896      2.00000
    142      -2.5774      2.00000
    143      -2.5605      2.00000
    144      -2.5503      2.00000
    145      -2.5285      2.00000
    146      -2.5066      2.00000
    147      -2.4915      2.00000
    148      -2.4763      2.00000
    149      -2.4680      2.00000
    150      -2.4673      2.00000
    151      -2.4559      2.00000
    152      -2.4477      2.00000
    153      -2.4376      2.00000
    154      -2.4352      2.00000
    155      -2.4219      2.00000
    156      -2.4158      2.00000
    157      -2.4124      2.00000
    158      -2.4008      2.00000
    159      -2.3867      2.00000
    160      -2.3640      2.00000
    161      -2.3595      2.00000
    162      -2.3425      2.00000
    163      -2.3366      2.00000
    164      -2.3103      2.00000
    165      -2.3016      2.00000
    166      -2.2899      2.00000
    167      -2.2886      2.00000
    168      -2.2741      2.00000
    169      -2.2497      2.00000
    170      -2.2326      2.00000
    171      -2.2092      2.00000
    172      -2.1984      2.00000
    173      -2.1945      2.00000
    174      -2.1813      2.00000
    175      -2.1657      2.00000
    176      -2.1652      2.00000
    177      -2.1437      2.00000
    178      -2.1378      2.00000
    179      -2.1330      2.00000
    180      -2.1110      2.00000
    181      -2.0944      2.00000
    182      -1.8551      2.00000
    183      -1.6060      2.00000
    184      -1.6008      2.00000
    185      -1.5354      2.00000
    186      -1.5069      2.00000
    187      -1.3356      2.00000
    188      -0.9014      2.00000
    189      -0.8509      2.00000
    190      -0.5738      2.00000
    191      -0.2381      2.00000
    192      -0.0619      2.00000
    193       0.0835      2.00000
    194       0.0905      2.00000
    195       0.5579      2.00000
    196       0.5587      2.00000
    197       0.8584      0.42337
    198       1.0812      0.00000
    199       1.1046      0.00000
    200       1.2717      0.00000
    201       1.3646      0.00000
    202       1.3648      0.00000
    203       1.5653      0.00000
    204       2.2954      0.00000
    205       2.5966      0.00000
    206       2.6767      0.00000
    207       3.0892      0.00000
    208       3.2311      0.00000
    209       3.3000      0.00000
    210       3.3430      0.00000
    211       3.4898      0.00000
    212       4.1578      0.00000
    213       4.1681      0.00000
    214       4.3999      0.00000
    215       4.4222      0.00000
    216       4.4979      0.00000
    217       4.8102      0.00000
    218       4.8898      0.00000
    219       5.0251      0.00000
    220       5.1195      0.00000
    221       5.1390      0.00000
    222       5.2230      0.00000
    223       5.3080      0.00000
    224       5.3813      0.00000
    225       5.4664      0.00000
    226       5.4860      0.00000
    227       5.6181      0.00000
    228       5.7758      0.00000
    229       5.8558      0.00000
    230       6.2521      0.00000
    231       6.4607      0.00000
    232       6.5102      0.00000
    233       6.5452      0.00000
    234       6.5824      0.00000
    235       6.6762      0.00000
    236       6.7247      0.00000
    237       6.7274      0.00000
    238       6.8175      0.00000
    239       6.8729      0.00000
    240       6.8975      0.00000
    241       6.9740      0.00000
    242       7.1055      0.00000
    243       7.1978      0.00000
    244       7.3135      0.00000
    245       7.3390      0.00000
    246       7.3789      0.00000
    247       7.4235      0.00000
    248       7.4257      0.00000
    249       7.4967      0.00000
    250       7.7762      0.00000
    251       7.8024      0.00000
    252       7.8611      0.00000

 k-point     3 :       0.2500   -0.0000    0.0000
  band No.  band energies     occupation 
      1      -6.1494      2.00000
      2      -5.3539      2.00000
      3      -5.1916      2.00000
      4      -5.1537      2.00000
      5      -5.1032      2.00000
      6      -5.0720      2.00000
      7      -5.0217      2.00000
      8      -4.9971      2.00000
      9      -4.9839      2.00000
     10      -4.9634      2.00000
     11      -4.9605      2.00000
     12      -4.9170      2.00000
     13      -4.9143      2.00000
     14      -4.8872      2.00000
     15      -4.8791      2.00000
     16      -4.8710      2.00000
     17      -4.8248      2.00000
     18      -4.7888      2.00000
     19      -4.7848      2.00000
     20      -4.7706      2.00000
     21      -4.7702      2.00000
     22      -4.7531      2.00000
     23      -4.7036      2.00000
     24      -4.6685      2.00000
     25      -4.6531      2.00000
     26      -4.6318      2.00000
     27      -4.6257      2.00000
     28      -4.6227      2.00000
     29      -4.6038      2.00000
     30      -4.6002      2.00000
     31      -4.5010      2.00000
     32      -4.4966      2.00000
     33      -4.4856      2.00000
     34      -4.4754      2.00000
     35      -4.4537      2.00000
     36      -4.4462      2.00000
     37      -4.4454      2.00000
     38      -4.3630      2.00000
     39      -4.3366      2.00000
     40      -4.3261      2.00000
     41      -4.3189      2.00000
     42      -4.3031      2.00000
     43      -4.2932      2.00000
     44      -4.2924      2.00000
     45      -4.2841      2.00000
     46      -4.2727      2.00000
     47      -4.2646      2.00000
     48      -4.1802      2.00000
     49      -4.1647      2.00000
     50      -4.1211      2.00000
     51      -4.1085      2.00000
     52      -4.0852      2.00000
     53      -4.0377      2.00000
     54      -4.0313      2.00000
     55      -3.9614      2.00000
     56      -3.9396      2.00000
     57      -3.9356      2.00000
     58      -3.9227      2.00000
     59      -3.9088      2.00000
     60      -3.8859      2.00000
     61      -3.8804      2.00000
     62      -3.8581      2.00000
     63      -3.8441      2.00000
     64      -3.8102      2.00000
     65      -3.7912      2.00000
     66      -3.7773      2.00000
     67      -3.7633      2.00000
     68      -3.7619      2.00000
     69      -3.7464      2.00000
     70      -3.7407      2.00000
     71      -3.7144      2.00000
     72      -3.7097      2.00000
     73      -3.6977      2.00000
     74      -3.6581      2.00000
     75      -3.6537      2.00000
     76      -3.6382      2.00000
     77      -3.6273      2.00000
     78      -3.6202      2.00000
     79      -3.6093      2.00000
     80      -3.5950      2.00000
     81      -3.5841      2.00000
     82      -3.5801      2.00000
     83      -3.5579      2.00000
     84      -3.5483      2.00000
     85      -3.5371      2.00000
     86      -3.5294      2.00000
     87      -3.5288      2.00000
     88      -3.4954      2.00000
     89      -3.4880      2.00000
     90      -3.4387      2.00000
     91      -3.4164      2.00000
     92      -3.4097      2.00000
     93      -3.4094      2.00000
     94      -3.3969      2.00000
     95      -3.3722      2.00000
     96      -3.3352      2.00000
     97      -3.3311      2.00000
     98      -3.3038      2.00000
     99      -3.2274      2.00000
    100      -3.2267      2.00000
    101      -3.2010      2.00000
    102      -3.1915      2.00000
    103      -3.1755      2.00000
    104      -3.1602      2.00000
    105      -3.1366      2.00000
    106      -3.1248      2.00000
    107      -3.1226      2.00000
    108      -3.1118      2.00000
    109      -3.1066      2.00000
    110      -3.0922      2.00000
    111      -3.0544      2.00000
    112      -3.0501      2.00000
    113      -3.0399      2.00000
    114      -3.0379      2.00000
    115      -3.0201      2.00000
[...]
  0.000   0.000   0.000   2.000   0.000   0.000   0.000   0.000   0.000   0.000   0.000   0.000   0.000   0.000   0.000   0.000
  0.000   0.000   0.000   0.000   2.000   0.000   0.000   0.000   0.000   0.000   0.000   0.000   0.000   0.000   0.000   0.000
  0.000   0.000   0.000   0.000   0.000   0.000   0.000   0.000   0.000   0.000   0.000   0.000   0.000   0.000   0.000   0.000
  0.000   0.000   0.000   0.000   0.000   0.000   0.000   0.000   0.000   0.000   0.000   0.000   0.000   0.000   0.000   0.000
  0.000   0.000   0.000   0.000   0.000   0.000   0.000   0.000   0.000   0.000   0.000   0.000   0.000   0.000   0.000   0.000
  0.000   0.000   0.000   0.000   0.000   0.000   0.000   0.000   0.000   0.000   0.000   0.000   0.000   0.000   0.000   0.000
  0.000   0.000   0.000   0.000   0.000   0.000   0.000   0.000   0.000   0.000   0.000   0.000   0.000   0.000   0.000   0.000
  0.000   0.000   0.000   0.000   0.000   0.000   0.000   0.000   0.000   0.000   1.000   0.000   0.000   0.000   0.000   0.000
  0.000   0.000   0.000   0.000   0.000   0.000   0.000   0.000   0.000   0.000   0.000   0.000   0.000   0.000   0.000   0.000
  0.000   0.000   0.000   0.000   0.000   0.000   0.000   0.000   0.000   0.000   0.000   0.000   0.000   0.000   0.000   0.000
  0.000   0.000   0.000   0.000   0.000   0.000   0.000   0.000   0.000   0.000   0.000   0.000   0.000   0.000   0.000   0.000
  0.000   0.000   0.000   0.000   0.000   0.000   0.000   0.000   0.000   0.000   0.000   0.000   0.000   0.000   0.000   0.000
  0.000   0.000   0.000   0.000   0.000   0.000   0.000   0.000   0.000   0.000   0.000   0.000   0.000   0.000   0.000   0.000
  0.000   0.000   0.000   0.000   0.000   0.000   0.000   0.000   0.000   0.000   0.000   0.000   0.000   0.000   0.000   0.000
  0.000   0.000   0.000   0.000   0.000   0.000   0.000   0.000   0.000   0.000   0.000   0.000   0.000   0.000   0.000   0.000


------------------------ aborting loop because EDIFF is reached ----------------------------------------





 total charge

# of ion       s       p       d       tot
------------------------------------------
    1        0.423   0.199   9.178   9.799
    2        0.413   0.204   9.178   9.795
    3        0.413   0.204   9.178   9.795
    4        0.413   0.204   9.178   9.795
    5        0.422   0.201   9.175   9.798
    6        0.413   0.204   9.178   9.795
    7        0.413   0.204   9.178   9.795
    8        0.413   0.204   9.178   9.795
    9        0.418   0.201   9.177   9.796
   10        0.412   0.269   9.161   9.842
   11        0.405   0.267   9.170   9.842
   12        0.412   0.269   9.161   9.842
   13        0.405   0.267   9.170   9.842
   14        0.405   0.267   9.170   9.842
   15        0.405   0.266   9.165   9.836
   16        0.412   0.269   9.161   9.842
   17        0.405   0.266   9.165   9.836
   18        0.405   0.266   9.165   9.836
   19        0.400   0.265   9.165   9.829
   20        0.449   0.312   9.124   9.885
   21        0.449   0.312   9.124   9.885
   22        0.393   0.269   9.168   9.830
   23        0.449   0.312   9.124   9.885
   24        0.393   0.269   9.168   9.830
   25        0.400   0.265   9.165   9.829
   26        0.400   0.265   9.165   9.829
   27        0.393   0.269   9.168   9.830
   28        0.405   0.200   9.173   9.779
   29        0.447   0.223   9.143   9.813
   30        0.447   0.223   9.143   9.813
   31        0.447   0.223   9.143   9.813
   32        0.447   0.223   9.143   9.813
   33        0.447   0.223   9.143   9.813
   34        0.447   0.223   9.143   9.813
   35        0.401   0.201   9.175   9.777
   36        0.680   0.429   2.865   3.974
--------------------------------------------------
tot         15.301   8.940 323.517 347.758
 
    CHARGE:  cpu time    0.6053: real time    0.6055
    FORLOC:  cpu time    0.0097: real time    0.0097
    FORNL :  cpu time    2.4570: real time    2.4580
    STRESS:  cpu time    7.7355: real time    7.7388
    FORCOR:  cpu time    0.0717: real time    0.0719
    FORHAR:  cpu time    0.0199: real time    0.0200
    OFIELD:  cpu time    0.0005: real time    0.0005

  FORCE on cell =-STRESS in cart. coord.  units (eV):
  Direction    XX          YY          ZZ          XY          YZ          ZX
  --------------------------------------------------------------------------------------
  Alpha Z   740.16585   740.16585   740.16585
  Ewald  118130.79895118130.79881************    -0.00002    -0.00001    -0.00003
  Hartree128122.99009128122.99003************    -0.00001    -0.00001    -0.00001
  E(xc)   -2049.63727 -2049.63726 -2055.64746    -0.00001     0.00000     0.00000
  Local  ************************257346.39381     0.00023    -0.00002    -0.00003
  n-local  -327.32946  -308.43428  -322.44586    10.85310    -0.44661     0.66033
  augment  3220.65777  3220.65788  3234.98597    -0.00012     0.00004     0.00001
  Kinetic  4815.17710  4813.55738  4853.09472     1.93907     0.42753    -0.34920
  Fock        0.00000     0.00000     0.00000     0.00000     0.00000     0.00000
  -------------------------------------------------------------------------------------
  Total     -10.12391   -10.12391    -0.30700    -0.00000     0.00000     0.00000
  in kB     -10.92674   -10.92674    -0.33135    -0.00000     0.00000     0.00000
  external pressure =       -7.39 kB  Pullay stress =        0.00 kB


 VOLUME and BASIS-vectors are now :
 -----------------------------------------------------------------------------
  energy-cutoff  :      500.00
  volume of cell :     1484.46
      direct lattice vectors                 reciprocal lattice vectors
     8.791366577  0.000000000  0.000000000     0.113747958 -0.065672414  0.000000000
     4.395683289  7.613546790  0.000000000     0.000000000  0.131344829  0.000000000
     0.000000000  0.000000000 22.178121567     0.000000000  0.000000000  0.045089481

  length of vectors
     8.791366577  8.791366577 22.178121567     0.131344829  0.131344829  0.045089481


 FORCES acting on ions
    electron-ion (+dipol)            ewald-force                    non-local-force                 convergence-correction
 -----------------------------------------------------------------------------------------------
   0.460E-04 -.282E-04 0.247E+04   -.953E-04 0.593E-04 -.247E+04   -.174E-17 -.431E-17 -.187E+01   -.115E-03 -.127E-03 -.676E-01
   -.163E+00 -.309E-01 0.247E+04   0.814E-01 -.833E-01 -.247E+04   0.668E-01 0.196E+00 -.163E+01   0.160E-01 -.848E-01 0.290E-01
   0.163E+00 -.309E-01 0.247E+04   -.812E-01 -.833E-01 -.247E+04   -.668E-01 0.196E+00 -.163E+01   -.165E-01 -.829E-01 0.297E-01
   -.108E+00 -.125E+00 0.247E+04   -.316E-01 0.112E+00 -.247E+04   0.203E+00 -.403E-01 -.163E+01   -.653E-01 0.564E-01 0.291E-01
   -.767E-05 -.200E-04 0.247E+04   0.980E-04 -.197E-05 -.247E+04   0.279E-17 0.101E-17 -.102E+01   0.622E-02 0.379E-02 0.273E+00
   0.108E+00 -.125E+00 0.247E+04   0.314E-01 0.112E+00 -.247E+04   -.203E+00 -.403E-01 -.163E+01   0.639E-01 0.573E-01 0.299E-01
   0.545E-01 0.156E+00 0.247E+04   -.113E+00 -.288E-01 -.247E+04   0.137E+00 -.156E+00 -.163E+01   -.797E-01 0.277E-01 0.297E-01
   -.545E-01 0.156E+00 0.247E+04   0.113E+00 -.289E-01 -.247E+04   -.137E+00 -.156E+00 -.163E+01   0.813E-01 0.267E-01 0.298E-01
   0.365E-04 -.131E-04 0.247E+04   0.792E-04 -.643E-04 -.247E+04   -.263E-17 -.273E-17 -.164E+01   -.664E-02 -.344E-02 0.455E-01
   0.189E+01 0.109E+01 0.788E+03   -.152E+01 -.878E+00 -.787E+03   -.417E+00 -.241E+00 -.759E+00   0.195E-01 0.115E-01 -.145E+00
   -.280E-04 0.458E+00 0.784E+03   0.398E-04 -.496E+00 -.784E+03   0.395E-12 0.601E-01 -.942E-01   0.620E-02 -.777E-01 -.244E+00
   -.189E+01 0.109E+01 0.788E+03   0.152E+01 -.878E+00 -.787E+03   0.417E+00 -.241E+00 -.759E+00   -.211E-01 0.124E-01 -.145E+00
   0.397E+00 -.229E+00 0.784E+03   -.430E+00 0.248E+00 -.784E+03   0.520E-01 -.300E-01 -.942E-01   -.643E-01 0.442E-01 -.244E+00
   -.397E+00 -.229E+00 0.784E+03   0.430E+00 0.248E+00 -.784E+03   -.520E-01 -.300E-01 -.942E-01   0.748E-01 0.431E-01 -.245E+00
   0.153E-04 -.333E+00 0.786E+03   -.108E-03 0.679E-01 -.785E+03   0.664E-12 0.101E+00 -.739E+00   -.156E-02 0.137E+00 -.168E+00
   -.812E-05 -.218E+01 0.788E+03   0.204E-04 0.176E+01 -.787E+03   0.316E-11 0.481E+00 -.759E+00   -.175E-03 -.243E-01 -.146E+00
   -.288E+00 0.166E+00 0.786E+03   0.588E-01 -.340E-01 -.785E+03   0.875E-01 -.505E-01 -.739E+00   0.118E+00 -.699E-01 -.168E+00
   0.288E+00 0.166E+00 0.786E+03   -.588E-01 -.339E-01 -.785E+03   -.875E-01 -.505E-01 -.739E+00   -.118E+00 -.681E-01 -.167E+00
   0.383E-04 -.559E+01 -.907E+03   -.125E-03 0.560E+01 0.906E+03   0.849E-13 0.129E-01 0.815E+00   0.431E-02 -.134E-01 -.888E-01
   -.306E+02 -.177E+02 -.921E+03   0.323E+02 0.187E+02 0.923E+03   -.125E+01 -.722E+00 -.123E+01   -.439E+00 -.253E+00 -.563E+00
   0.306E+02 -.177E+02 -.921E+03   -.323E+02 0.187E+02 0.923E+03   0.125E+01 -.722E+00 -.123E+01   0.449E+00 -.254E+00 -.563E+00
   -.162E+02 0.933E+01 -.907E+03   0.163E+02 -.940E+01 0.907E+03   0.180E+00 -.104E+00 0.367E+00   -.288E+00 0.172E+00 -.217E+00
   -.494E-04 0.354E+02 -.921E+03   0.360E-04 -.373E+02 0.923E+03   0.948E-11 0.144E+01 -.123E+01   -.759E-03 0.506E+00 -.564E+00
   0.162E+02 0.933E+01 -.907E+03   -.163E+02 -.940E+01 0.907E+03   -.180E+00 -.104E+00 0.367E+00   0.298E+00 0.172E+00 -.217E+00
   0.484E+01 0.280E+01 -.907E+03   -.485E+01 -.280E+01 0.906E+03   -.112E-01 -.647E-02 0.815E+00   0.180E-01 0.115E-01 -.895E-01
   -.484E+01 0.280E+01 -.907E+03   0.485E+01 -.280E+01 0.906E+03   0.112E-01 -.647E-02 0.815E+00   -.899E-02 0.116E-01 -.891E-01
   0.192E-04 -.187E+02 -.907E+03   0.110E-03 0.188E+02 0.907E+03   0.137E-11 0.208E+00 0.367E+00   0.431E-02 -.335E+00 -.216E+00
   0.534E-04 -.355E-04 -.249E+04   -.112E-03 0.758E-04 0.248E+04   -.262E-17 0.794E-18 0.167E+01   0.410E-04 0.158E-02 -.869E-02
   -.260E+02 -.503E+02 -.250E+04   0.273E+02 0.524E+02 0.250E+04   -.120E+01 -.172E+01 0.769E+00   -.181E+00 -.358E+00 0.352E-01
   0.260E+02 -.503E+02 -.250E+04   -.273E+02 0.524E+02 0.250E+04   0.120E+01 -.172E+01 0.769E+00   0.180E+00 -.357E+00 0.351E-01
   -.565E+02 0.267E+01 -.250E+04   0.590E+02 -.251E+01 0.250E+04   -.208E+01 -.177E+00 0.769E+00   -.406E+00 0.129E-01 0.350E-01
   0.565E+02 0.267E+01 -.250E+04   -.590E+02 -.251E+01 0.250E+04   0.208E+01 -.177E+00 0.769E+00   0.395E+00 0.136E-01 0.351E-01
   -.306E+02 0.476E+02 -.250E+04   0.317E+02 -.498E+02 0.250E+04   -.888E+00 0.189E+01 0.769E+00   -.219E+00 0.336E+00 0.351E-01
   0.306E+02 0.476E+02 -.250E+04   -.317E+02 -.498E+02 0.250E+04   0.888E+00 0.189E+01 0.769E+00   0.221E+00 0.335E+00 0.357E-01
   0.278E-04 -.142E-04 -.249E+04   0.102E-03 -.643E-04 0.249E+04   0.355E-17 -.883E-18 0.194E+01   -.638E-02 -.197E-02 -.913E-01
   -.259E-04 -.951E-06 -.109E+04   0.479E-04 0.590E-05 0.109E+04   -.718E-17 0.416E-17 0.275E+01   0.626E-03 -.185E-03 0.943E-01
 -----------------------------------------------------------------------------------------------
   0.286E-03 -.706E-03 0.120E+02   -.149E-13 0.176E-12 -.523E-11   0.218E-15 -.441E-15 -.826E+01   0.333E-01 0.773E-02 -.365E+01
 
 
 POSITION                                       TOTAL-FORCE (eV/Angst)
 -----------------------------------------------------------------------------------
      0.00000      0.00000      5.28219        -0.000000     -0.000000     -0.036228
      2.93046      0.00000      5.28219         0.002218     -0.001920      0.030676
      5.86091      0.00000      5.28219        -0.002218     -0.001920      0.030676
      1.46523      2.53785      5.28219        -0.000554      0.002880      0.030676
      4.39568      2.53785      5.28219        -0.000000      0.000000      0.003250
      7.32614      2.53785      5.28219         0.000554      0.002880      0.030676
      2.93046      5.07570      5.28219        -0.002771     -0.000961      0.030676
      5.86091      5.07570      5.28219         0.002771     -0.000961      0.030676
      8.79137      5.07570      5.28219        -0.000000      0.000000      0.003973
      1.46523      0.84595      7.67490        -0.031032     -0.017916     -0.040102
      4.39568      0.84595      7.67490        -0.000000     -0.058105     -0.081647
      7.32614      0.84595      7.67490         0.031032     -0.017916     -0.040102
      2.93046      3.38380      7.67490        -0.050320      0.029052     -0.081647
      5.86091      3.38380      7.67490         0.050320      0.029052     -0.081647
      8.79137      3.38380      7.67490        -0.000000     -0.026924      0.018042
      4.39568      5.92165      7.67490         0.000000      0.035832     -0.040102
      7.32614      5.92165      7.67490        -0.023316      0.013462      0.018042
     10.25659      5.92165      7.67490         0.023316      0.013462      0.018042
      8.79137      1.69476     10.06939         0.000000      0.006514      0.010350
      2.92162      1.68680     10.02387         0.003055      0.001764      0.020235
      5.86975      1.68680     10.02387        -0.003055      0.001764      0.020235
     10.25272      4.23198     10.06895         0.012389     -0.007153     -0.000570
      4.39568      4.23995     10.02387        -0.000000     -0.003527      0.020235
      7.33001      4.23198     10.06895        -0.012389     -0.007153     -0.000570
     11.71935      6.76617     10.06939        -0.005641     -0.003257      0.010350
      5.86339      6.76617     10.06939         0.005641     -0.003257      0.010350
      8.79137      6.76312     10.06895         0.000000      0.014306     -0.000570
      0.00000      0.00000     12.45783        -0.000000     -0.000000      0.011935
      2.95723      0.04373     12.49962         0.001183     -0.005887      0.005214
      5.83413      0.04373     12.49962        -0.001183     -0.005887      0.005214
      1.51649      2.53918     12.49962        -0.004507      0.003968      0.005214
      7.27488      2.53918     12.49962         0.004507      0.003968      0.005214
      2.95494      5.03064     12.49962        -0.005690      0.001919      0.005214
      5.83643      5.03064     12.49962         0.005690      0.001919      0.005214
      8.79137      5.07570     12.47105        -0.000000      0.000000      0.014062
      4.39568      2.53785     12.22632        -0.000000     -0.000000      0.008747
 -----------------------------------------------------------------------------------
    total drift:                                0.033536      0.007025      0.083418


--------------------------------------------------------------------------------------------------------



  FREE ENERGIE OF THE ION-ELECTRON SYSTEM (eV)
  ---------------------------------------------------
  free  energy   TOTEN  =       -97.84173833 eV

  energy  without entropy=      -97.84173833  energy(sigma->0) =      -97.84173833
 


--------------------------------------------------------------------------------------------------------


    POTLOK:  cpu time    0.0634: real time    0.0634


--------------------------------------------------------------------------------------------------------


 stress matrix after NEB project (eV)
    -10.12391     -0.00000      0.00000
     -0.00000    -10.12391     -0.00000
     -0.00000      0.00000     -0.30700
  FORCES: max atom, RMS     0.020540    0.009318
  FORCE total and by dimension    0.055906    0.020235
  Stress total and by dimension   14.320665   10.123912
     LOOP+:  cpu time   98.8017: real time   99.0588
 -----------------------------------------------------------------------------
|                                                                             |
|           W    W    AA    RRRRR   N    N  II  N    N   GGGG   !!!           |
|           W    W   A  A   R    R  NN   N  II  NN   N  G    G  !!!           |
|           W    W  A    A  R    R  N N  N  II  N N  N  G       !!!           |
|           W WW W  AAAAAA  RRRRR   N  N N  II  N  N N  G  GGG   !            |
|           WW  WW  A    A  R   R   N   NN  II  N   NN  G    G                |
|           W    W  A    A  R    R  N    N  II  N    N   GGGG   !!!           |
|                                                                             |
|     Tetrahedron method does not include variations of the Fermi             |
|     occupations, so forces and stress will be inaccurate. We suggest        |
|     using a different smearing scheme ISMEAR = 1 or 2 for metals in         |
|     relaxations.                                                            |
|                                                                             |
 -----------------------------------------------------------------------------

    4ORBIT:  cpu time    0.0000: real time    0.0000



 total charge

# of ion       s       p       d       tot
------------------------------------------
    1        0.423   0.199   9.178   9.799
    2        0.413   0.204   9.178   9.795
    3        0.413   0.204   9.178   9.795
    4        0.413   0.204   9.178   9.795
    5        0.422   0.201   9.175   9.798
    6        0.413   0.204   9.178   9.795
    7        0.413   0.204   9.178   9.795
    8        0.413   0.204   9.178   9.795
    9        0.418   0.201   9.177   9.796
   10        0.412   0.269   9.161   9.842
   11        0.405   0.267   9.170   9.842
   12        0.412   0.269   9.161   9.842
   13        0.405   0.267   9.170   9.842
   14        0.405   0.267   9.170   9.842
   15        0.405   0.266   9.165   9.836
   16        0.412   0.269   9.161   9.842
   17        0.405   0.266   9.165   9.836
   18        0.405   0.266   9.165   9.836
   19        0.400   0.265   9.165   9.829
   20        0.449   0.312   9.124   9.885
   21        0.449   0.312   9.124   9.885
   22        0.393   0.269   9.168   9.830
   23        0.449   0.312   9.124   9.885
   24        0.393   0.269   9.168   9.830
   25        0.400   0.265   9.165   9.829
   26        0.400   0.265   9.165   9.829
   27        0.393   0.269   9.168   9.830
   28        0.405   0.200   9.173   9.779
   29        0.447   0.223   9.143   9.813
   30        0.447   0.223   9.143   9.813
   31        0.447   0.223   9.143   9.813
   32        0.447   0.223   9.143   9.813
   33        0.447   0.223   9.143   9.813
   34        0.447   0.223   9.143   9.813
   35        0.401   0.201   9.175   9.777
   36        0.680   0.429   2.865   3.974
--------------------------------------------------
tot         15.301   8.940 323.517 347.758
 
 BZINTS: Fermi energy:    0.837899;  390.000000 electrons
         Band energy:-0.127351E+04;  BLOECHL correction:   -0.024375

 total amount of memory used by VASP MPI-rank0   122785. kBytes
=======================================================================

   base      :      30000. kBytes
   nonlr-proj:      15479. kBytes
   fftplans  :       4330. kBytes
   grid      :      17098. kBytes
   one-center:        559. kBytes
   wavefun   :      55319. kBytes
 
  
  
 General timing and accounting informations for this job:
 ========================================================
  
                  Total CPU time used (sec):      107.246
                            User time (sec):      103.945
                          System time (sec):        3.302
                         Elapsed time (sec):      108.131
  
                   Maximum memory used (kb):      379844.
                   Average memory used (kb):          N/A
  
                          Minor page faults:        69509
                          Major page faults:            0
                 Voluntary context switches:         6332
