PROCAR new format
# of k-points:   10         # of bands:  252         # of ions:   36

 k-point     1 :    0.00000000 0.00000000 0.00000000     weight = 0.01562500

band     1 # energy   -6.32964871 # occ.  2.00000000
 
ion      s      p      d    tot
    1  0.005  0.001  0.000  0.006
    2  0.005  0.001  0.000  0.006
    3  0.005  0.001  0.000  0.006
    4  0.005  0.001  0.000  0.006
    5  0.005  0.001  0.000  0.006
    6  0.005  0.001  0.000  0.006
    7  0.005  0.001  0.000  0.006
    8  0.005  0.001  0.000  0.006
    9  0.005  0.000  0.000  0.005
   10  0.021  0.000  0.000  0.022
   11  0.022  0.000  0.000  0.022
   12  0.021  0.000  0.000  0.022
   13  0.022  0.000  0.000  0.022
   14  0.022  0.000  0.000  0.022
   15  0.020  0.000  0.000  0.020
   16  0.021  0.000  0.000  0.022
   17  0.020  0.000  0.000  0.020
   18  0.020  0.000  0.000  0.020
   19  0.022  0.000  0.000  0.022
   20  0.028  0.000  0.001  0.029
   21  0.028  0.000  0.001  0.029
   22  0.021  0.000  0.000  0.022
   23  0.028  0.000  0.001  0.029
   24  0.021  0.000  0.000  0.022
   25  0.022  0.000  0.000  0.022
   26  0.022  0.000  0.000  0.022
   27  0.021  0.000  0.000  0.022
   28  0.006  0.000  0.000  0.007
   29  0.007  0.001  0.000  0.009
   30  0.007  0.001  0.000  0.009
   31  0.007  0.001  0.000  0.009
   32  0.007  0.001  0.000  0.009
   33  0.007  0.001  0.000  0.009
   34  0.007  0.001  0.000  0.009
   35  0.006  0.000  0.000  0.006
   36  0.027  0.002  0.000  0.029
tot    0.531  0.014  0.010  0.554
 
band     2 # energy   -5.49926473 # occ.  2.00000000
 
ion      s      p      d    tot
    1  0.009  0.000  0.001  0.010
    2  0.010  0.000  0.001  0.011
    3  0.010  0.000  0.001  0.011
    4  0.010  0.000  0.001  0.011
    5  0.010  0.001  0.000  0.011
    6  0.010  0.000  0.001  0.011
    7  0.010  0.000  0.001  0.011
    8  0.010  0.000  0.001  0.011
    9  0.011  0.001  0.001  0.012
   10  0.012  0.001  0.011  0.024
   11  0.013  0.001  0.009  0.023
   12  0.012  0.001  0.011  0.024
   13  0.013  0.001  0.009  0.023
   14  0.013  0.001  0.009  0.023
   15  0.015  0.001  0.007  0.023
   16  0.012  0.001  0.011  0.024
   17  0.015  0.001  0.007  0.023
   18  0.015  0.001  0.007  0.023
   19  0.004  0.001  0.006  0.011
   20  0.011  0.003  0.008  0.021
   21  0.011  0.003  0.008  0.021
   22  0.004  0.001  0.006  0.011
   23  0.011  0.003  0.008  0.021
   24  0.004  0.001  0.006  0.011
   25  0.004  0.001  0.006  0.011
   26  0.004  0.001  0.006  0.011
   27  0.004  0.001  0.006  0.011
   28  0.007  0.000  0.003  0.010
   29  0.012  0.001  0.007  0.020
   30  0.012  0.001  0.007  0.020
   31  0.012  0.001  0.007  0.020
   32  0.012  0.001  0.007  0.020
   33  0.012  0.001  0.007  0.020
   34  0.012  0.001  0.007  0.020
   35  0.007  0.000  0.002  0.009
   36  0.059  0.002  0.001  0.062
tot    0.411  0.031  0.199  0.641
 
band     3 # energy   -5.26146795 # occ.  2.00000000
 
ion      s      p      d    tot
    1  0.000  0.000  0.006  0.006
    2  0.001  0.000  0.002  0.003
    3  0.001  0.000  0.002  0.003
    4  0.001  0.000  0.002  0.003
    5  0.001  0.000  0.001  0.002
    6  0.001  0.000  0.002  0.003
    7  0.001  0.000  0.002  0.003
    8  0.001  0.000  0.002  0.003
    9  0.002  0.000  0.001  0.003
   10  0.002  0.000  0.019  0.022
   11  0.001  0.000  0.018  0.019
   12  0.002  0.000  0.019  0.022
   13  0.001  0.000  0.018  0.019
   14  0.001  0.000  0.018  0.019
   15  0.000  0.000  0.011  0.011
   16  0.002  0.000  0.019  0.022
   17  0.000  0.000  0.011  0.011
   18  0.000  0.000  0.011  0.011
   19  0.008  0.000  0.023  0.031
   20  0.001  0.000  0.072  0.074
   21  0.001  0.000  0.072  0.074
   22  0.007  0.000  0.018  0.026
   23  0.001  0.000  0.072  0.074
   24  0.007  0.000  0.018  0.026
   25  0.008  0.000  0.023  0.031
   26  0.008  0.000  0.023  0.031
   27  0.007  0.000  0.018  0.026
   28  0.001  0.000  0.011  0.012
   29  0.005  0.000  0.024  0.030
   30  0.005  0.000  0.024  0.030
   31  0.005  0.000  0.024  0.030
   32  0.005  0.000  0.024  0.030
   33  0.005  0.000  0.024  0.030
   34  0.005  0.000  0.024  0.030
   35  0.001  0.000  0.011  0.012
   36  0.045  0.000  0.009  0.055
tot    0.143  0.006  0.685  0.834
 
band     4 # energy   -5.08994253 # occ.  2.00000000
 
ion      s      p      d    tot
    1  0.019  0.001  0.003  0.023
    2  0.005  0.000  0.012  0.017
    3  0.005  0.000  0.012  0.017
    4  0.005  0.000  0.012  0.017
    5  0.002  0.000  0.012  0.014
    6  0.005  0.000  0.012  0.017
    7  0.005  0.000  0.012  0.017
    8  0.005  0.000  0.012  0.017
    9  0.002  0.000  0.010  0.012
   10  0.003  0.000  0.037  0.040
   11  0.000  0.000  0.012  0.013
   12  0.003  0.000  0.036  0.040
   13  0.000  0.000  0.012  0.013
   14  0.000  0.000  0.012  0.013
   15  0.005  0.001  0.001  0.007
   16  0.003  0.000  0.037  0.040
   17  0.005  0.001  0.001  0.007
   18  0.005  0.001  0.001  0.007
   19  0.000  0.001  0.029  0.029
   20  0.004  0.000  0.081  0.085
   21  0.004  0.000  0.081  0.085
   22  0.013  0.000  0.002  0.015
   23  0.004  0.000  0.081  0.085
   24  0.013  0.000  0.002  0.015
   25  0.000  0.001  0.029  0.029
   26  0.000  0.001  0.029  0.029
   27  0.013  0.000  0.002  0.015
   28  0.003  0.000  0.000  0.003
   29  0.001  0.000  0.006  0.007
   30  0.001  0.000  0.006  0.007
   31  0.001  0.000  0.006  0.007
   32  0.001  0.000  0.006  0.007
   33  0.001  0.000  0.006  0.007
   34  0.001  0.000  0.006  0.007
   35  0.010  0.001  0.000  0.011
   36  0.010  0.005  0.007  0.022
tot    0.161  0.017  0.622  0.799
 
band     5 # energy   -5.04224228 # occ.  2.00000000
 
ion      s      p      d    tot
    1  0.006  0.000  0.014  0.020
    2  0.009  0.000  0.021  0.031
    3  0.009  0.000  0.021  0.031
    4  0.009  0.000  0.021  0.031
    5  0.015  0.000  0.026  0.041
    6  0.009  0.000  0.021  0.031
    7  0.009  0.000  0.021  0.031
    8  0.009  0.000  0.021  0.031
    9  0.008  0.000  0.019  0.027
   10  0.002  0.001  0.002  0.005
   11  0.001  0.000  0.033  0.035
   12  0.002  0.001  0.002  0.005
   13  0.001  0.000  0.033  0.035
   14  0.001  0.000  0.033  0.035
   15  0.001  0.000  0.024  0.025
   16  0.002  0.001  0.002  0.005
   17  0.001  0.000  0.024  0.025
   18  0.001  0.000  0.024  0.025
   19  0.004  0.000  0.011  0.015
   20  0.002  0.000  0.060  0.063
   21  0.002  0.000  0.060  0.063
   22  0.002  0.000  0.010  0.012
   23  0.002  0.000  0.061  0.063
   24  0.002  0.000  0.010  0.012
   25  0.004  0.000  0.011  0.015
   26  0.004  0.000  0.011  0.015
   27  0.002  0.000  0.010  0.013
   28  0.000  0.000  0.000  0.001
   29  0.001  0.000  0.008  0.009
   30  0.001  0.000  0.008  0.009
   31  0.001  0.000  0.008  0.009
   32  0.001  0.000  0.008  0.009
   33  0.001  0.000  0.008  0.009
   34  0.001  0.000  0.008  0.009
   35  0.002  0.000  0.000  0.002
   36  0.004  0.001  0.010  0.014
tot    0.131  0.008  0.667  0.807
 
band     6 # energy   -5.03475700 # occ.  2.00000000
 
ion      s      p      d    tot
    1  0.000  0.000  0.007  0.007
    2  0.000  0.000  0.002  0.003
    3  0.000  0.000  0.002  0.003
    4  0.001  0.000  0.002  0.003
    5  0.000  0.000  0.004  0.004
    6  0.000  0.000  0.002  0.003
    7  0.001  0.000  0.002  0.003
    8  0.000  0.000  0.002  0.003
    9  0.000  0.000  0.002  0.002
   10  0.002  0.001  0.021  0.024
   11  0.000  0.000  0.031  0.031
   12  0.006  0.001  0.020  0.027
   13  0.000  0.000  0.021  0.021
   14  0.000  0.000  0.029  0.029
   15  0.001  0.000  0.011  0.013
   16  0.001  0.001  0.021  0.023
   17  0.006  0.001  0.011  0.017
   18  0.002  0.000  0.011  0.014
   19  0.004  0.001  0.032  0.037
   20  0.007  0.000  0.118  0.125
   21  0.020  0.000  0.013  0.033
   22  0.000  0.000  0.033  0.034
   23  0.003  0.000  0.146  0.149
   24  0.000  0.001  0.033  0.034
   25  0.008  0.001  0.034  0.042
   26  0.022  0.001  0.038  0.060
   27  0.000  0.001  0.033  0.034
   28  0.000  0.000  0.005  0.006
   29  0.000  0.000  0.007  0.007
   30  0.000  0.000  0.003  0.004
   31  0.000  0.000  0.006  0.006
   32  0.000  0.000  0.003  0.004
   33  0.000  0.000  0.006  0.007
   34  0.000  0.000  0.007  0.008
   35  0.000  0.000  0.000  0.000
   36  0.000  0.002  0.007  0.008
tot    0.084  0.013  0.728  0.825
 
band     7 # energy   -5.03473524 # occ.  2.00000000
 
ion      s      p      d    tot
    1  0.000  0.000  0.007  0.007
    2  0.001  0.000  0.002  0.003
    3  0.000  0.000  0.002  0.003
    4  0.000  0.000  0.003  0.003
    5  0.000  0.000  0.004  0.004
    6  0.000  0.000  0.002  0.003
    7  0.000  0.000  0.002  0.003
    8  0.001  0.000  0.002  0.003
    9  0.000  0.000  0.002  0.002
   10  0.004  0.001  0.021  0.025
   11  0.000  0.000  0.023  0.023
   12  0.000  0.001  0.022  0.022
   13  0.000  0.000  0.033  0.033
   14  0.000  0.000  0.025  0.025
   15  0.005  0.001  0.011  0.016
   16  0.005  0.001  0.020  0.026
   17  0.000  0.000  0.012  0.012
   18  0.004  0.000  0.011  0.015
   19  0.018  0.001  0.037  0.056
   20  0.013  0.000  0.067  0.080
   21  0.000  0.000  0.171  0.172
   22  0.000  0.001  0.033  0.035
   23  0.017  0.000  0.038  0.055
   24  0.000  0.001  0.033  0.034
   25  0.014  0.001  0.036  0.051
   26  0.000  0.001  0.031  0.033
   27  0.000  0.001  0.033  0.034
   28  0.000  0.000  0.005  0.006
   29  0.000  0.000  0.004  0.004
   30  0.000  0.000  0.007  0.008
   31  0.000  0.000  0.005  0.006
   32  0.000  0.000  0.008  0.008
   33  0.000  0.000  0.004  0.005
   34  0.000  0.000  0.003  0.004
   35  0.000  0.000  0.000  0.000
   36  0.000  0.002  0.007  0.008
tot    0.084  0.013  0.728  0.825
 
band     8 # energy   -5.02323286 # occ.  2.00000000
 
ion      s      p      d    tot
    1  0.000  0.000  0.007  0.007
    2  0.002  0.001  0.004  0.006
    3  0.002  0.001  0.007  0.009
    4  0.000  0.000  0.005  0.006
    5  0.000  0.000  0.008  0.009
    6  0.001  0.001  0.007  0.009
    7  0.000  0.000  0.003  0.003
    8  0.001  0.000  0.002  0.003
    9  0.000  0.000  0.000  0.000
   10  0.007  0.001  0.051  0.059
   11  0.030  0.001  0.025  0.055
   12  0.001  0.000  0.096  0.097
   13  0.001  0.001  0.081  0.084
   14  0.018  0.001  0.048  0.067
   15  0.004  0.000  0.033  0.037
   16  0.011  0.001  0.021  0.033
   17  0.000  0.001  0.008  0.009
   18  0.002  0.001  0.023  0.026
   19  0.000  0.000  0.015  0.015
   20  0.009  0.001  0.036  0.046
   21  0.001  0.001  0.030  0.032
   22  0.000  0.000  0.024  0.025
   23  0.015  0.001  0.039  0.055
   24  0.005  0.000  0.014  0.019
   25  0.000  0.000  0.014  0.015
   26  0.000  0.001  0.014  0.014
   27  0.007  0.001  0.008  0.016
   28  0.000  0.000  0.001  0.001
   29  0.000  0.000  0.004  0.005
   30  0.000  0.000  0.003  0.003
   31  0.002  0.000  0.005  0.008
   32  0.001  0.000  0.003  0.004
   33  0.002  0.000  0.006  0.009
   34  0.001  0.000  0.006  0.007
   35  0.000  0.000  0.006  0.006
   36  0.000  0.001  0.007  0.008
tot    0.124  0.017  0.665  0.806
 
band     9 # energy   -5.02322284 # occ.  2.00000000
 
ion      s      p      d    tot
    1  0.000  0.000  0.007  0.007
    2  0.000  0.000  0.006  0.006
    3  0.000  0.000  0.003  0.003
    4  0.002  0.001  0.004  0.007
    5  0.000  0.000  0.008  0.009
    6  0.001  0.000  0.002  0.003
    7  0.002  0.001  0.006  0.009
    8  0.001  0.000  0.007  0.009
    9  0.000  0.000  0.000  0.000
   10  0.006  0.000  0.061  0.067
   11  0.003  0.001  0.077  0.082
   12  0.012  0.001  0.016  0.029
   13  0.032  0.001  0.021  0.054
   14  0.015  0.001  0.055  0.070
   15  0.000  0.001  0.009  0.011
   16  0.001  0.000  0.091  0.093
   17  0.004  0.000  0.034  0.038
   18  0.002  0.001  0.019  0.022
   19  0.000  0.001  0.014  0.014
   20  0.008  0.001  0.035  0.043
   21  0.016  0.001  0.040  0.057
   22  0.008  0.001  0.007  0.015
   23  0.002  0.001  0.031  0.033
   24  0.004  0.000  0.017  0.021
   25  0.000  0.000  0.014  0.015
   26  0.000  0.000  0.015  0.015
   27  0.001  0.000  0.023  0.024
   28  0.000  0.000  0.001  0.001
   29  0.002  0.000  0.005  0.007
   30  0.002  0.000  0.006  0.009
   31  0.000  0.000  0.004  0.004
   32  0.002  0.000  0.006  0.008
   33  0.000  0.000  0.003  0.003
   34  0.001  0.000  0.003  0.005
   35  0.000  0.000  0.006  0.006
   36  0.000  0.001  0.007  0.008
tot    0.124  0.017  0.665  0.806
 
band    10 # energy   -4.99732129 # occ.  2.00000000
 
ion      s      p      d    tot
    1  0.000  0.000  0.001  0.002
    2  0.000  0.000  0.006  0.007
    3  0.000  0.000  0.006  0.007
    4  0.000  0.000  0.006  0.007
    5  0.005  0.001  0.002  0.008
    6  0.000  0.000  0.006  0.007
    7  0.000  0.000  0.006  0.007
    8  0.000  0.000  0.006  0.007
    9  0.000  0.000  0.007  0.007
   10  0.009  0.001  0.006  0.015
   11  0.014  0.001  0.044  0.059
   12  0.009  0.001  0.006  0.015
   13  0.014  0.001  0.044  0.059
   14  0.014  0.001  0.044  0.058
   15  0.001  0.000  0.055  0.057
   16  0.009  0.001  0.006  0.015
   17  0.001  0.000  0.055  0.057
   18  0.001  0.000  0.055  0.057
   19  0.010  0.001  0.028  0.038
   20  0.005  0.001  0.022  0.029
   21  0.005  0.001  0.022  0.029
   22  0.000  0.000  0.034  0.034
   23  0.005  0.001  0.022  0.029
   24  0.000  0.000  0.033  0.034
   25  0.010  0.001  0.028  0.038
   26  0.010  0.001  0.028  0.038
   27  0.000  0.000  0.034  0.034
   28  0.003  0.001  0.003  0.006
   29  0.000  0.000  0.006  0.006
   30  0.000  0.000  0.006  0.006
   31  0.000  0.000  0.006  0.006
   32  0.000  0.000  0.006  0.006
   33  0.000  0.000  0.006  0.006
   34  0.000  0.000  0.006  0.006
   35  0.002  0.000  0.001  0.003
   36  0.000  0.000  0.000  0.001
tot    0.129  0.018  0.650  0.797
 
band    11 # energy   -4.98436286 # occ.  2.00000000
 
ion      s      p      d    tot
    1  0.001  0.000  0.028  0.030
    2  0.002  0.000  0.010  0.012
    3  0.002  0.000  0.010  0.012
    4  0.002  0.000  0.010  0.012
    5  0.000  0.000  0.001  0.001
    6  0.002  0.000  0.010  0.012
    7  0.002  0.000  0.010  0.012
    8  0.002  0.000  0.010  0.012
    9  0.010  0.001  0.000  0.011
   10  0.003  0.000  0.066  0.069
   11  0.003  0.000  0.029  0.032
   12  0.003  0.000  0.066  0.069
   13  0.003  0.000  0.029  0.032
   14  0.003  0.000  0.029  0.032
   15  0.005  0.001  0.006  0.011
   16  0.003  0.000  0.066  0.069
   17  0.005  0.001  0.006  0.011
   18  0.005  0.001  0.006  0.011
   19  0.000  0.000  0.020  0.021
   20  0.002  0.000  0.016  0.019
   21  0.002  0.000  0.016  0.019
   22  0.002  0.000  0.023  0.025
   23  0.002  0.000  0.016  0.019
   24  0.002  0.000  0.023  0.025
   25  0.000  0.000  0.020  0.021
   26  0.000  0.000  0.020  0.021
   27  0.002  0.000  0.023  0.025
   28  0.014  0.000  0.012  0.026
   29  0.004  0.000  0.017  0.021
   30  0.004  0.000  0.017  0.021
   31  0.004  0.000  0.017  0.021
   32  0.004  0.000  0.017  0.021
   33  0.004  0.000  0.017  0.021
   34  0.004  0.000  0.017  0.021
   35  0.002  0.000  0.016  0.017
   36  0.000  0.000  0.000  0.001
tot    0.107  0.008  0.703  0.818
 
band    12 # energy   -4.96933399 # occ.  2.00000000
 
ion      s      p      d    tot
    1  0.000  0.001  0.008  0.009
    2  0.001  0.001  0.009  0.010
    3  0.001  0.000  0.005  0.007
    4  0.005  0.001  0.005  0.011
    5  0.000  0.000  0.009  0.009
    6  0.001  0.000  0.005  0.007
    7  0.005  0.001  0.006  0.011
    8  0.001  0.001  0.009  0.010
    9  0.000  0.000  0.010  0.011
   10  0.013  0.000  0.023  0.036
   11  0.000  0.000  0.027  0.027
   12  0.000  0.001  0.036  0.037
   13  0.000  0.000  0.022  0.022
   14  0.000  0.000  0.027  0.027
   15  0.012  0.000  0.025  0.037
   16  0.013  0.000  0.023  0.036
   17  0.000  0.000  0.080  0.080
   18  0.012  0.000  0.026  0.038
   19  0.004  0.000  0.024  0.028
   20  0.002  0.000  0.028  0.031
   21  0.000  0.001  0.017  0.017
   22  0.000  0.000  0.050  0.050
   23  0.002  0.000  0.029  0.031
   24  0.012  0.000  0.020  0.032
   25  0.004  0.000  0.025  0.029
   26  0.000  0.000  0.054  0.054
   27  0.012  0.000  0.019  0.032
   28  0.000  0.000  0.013  0.013
   29  0.004  0.001  0.008  0.012
   30  0.003  0.001  0.005  0.009
   31  0.000  0.000  0.007  0.007
   32  0.003  0.001  0.005  0.009
   33  0.000  0.000  0.007  0.007
   34  0.004  0.001  0.008  0.012
   35  0.000  0.000  0.006  0.006
   36  0.000  0.001  0.003  0.004
tot    0.116  0.014  0.682  0.811
 
band    13 # energy   -4.96932325 # occ.  2.00000000
 
ion      s      p      d    tot
    1  0.000  0.001  0.008  0.009
    2  0.004  0.001  0.004  0.009
    3  0.003  0.001  0.008  0.012
    4  0.000  0.000  0.007  0.008
    5  0.000  0.000  0.009  0.009
    6  0.003  0.001  0.008  0.012
    7  0.000  0.000  0.007  0.008
    8  0.004  0.001  0.004  0.009
    9  0.000  0.000  0.010  0.011
   10  0.005  0.000  0.032  0.037
   11  0.000  0.000  0.024  0.024
   12  0.018  0.000  0.019  0.036
   13  0.000  0.000  0.028  0.028
   14  0.000  0.000  0.024  0.024
   15  0.004  0.000  0.063  0.067
   16  0.004  0.000  0.032  0.037
   17  0.016  0.000  0.007  0.024
   18  0.004  0.000  0.061  0.066
   19  0.001  0.000  0.044  0.046
   20  0.001  0.000  0.021  0.022
   21  0.003  0.000  0.032  0.036
   22  0.016  0.000  0.010  0.026
   23  0.001  0.000  0.021  0.022
   24  0.004  0.000  0.039  0.044
   25  0.001  0.000  0.044  0.045
   26  0.005  0.000  0.015  0.020
   27  0.004  0.000  0.040  0.044
   28  0.000  0.000  0.013  0.013
   29  0.001  0.000  0.005  0.006
   30  0.001  0.000  0.008  0.010
   31  0.005  0.001  0.006  0.012
   32  0.001  0.000  0.008  0.010
   33  0.005  0.001  0.006  0.012
   34  0.001  0.000  0.005  0.006
   35  0.000  0.000  0.006  0.006
   36  0.000  0.001  0.003  0.004
tot    0.116  0.014  0.682  0.811
 
band    14 # energy   -4.96347971 # occ.  2.00000000
 
ion      s      p      d    tot
    1  0.000  0.000  0.000  0.000
    2  0.000  0.000  0.008  0.008
    3  0.000  0.000  0.007  0.008
    4  0.000  0.000  0.008  0.008
    5  0.001  0.000  0.000  0.001
    6  0.000  0.000  0.007  0.008
    7  0.000  0.000  0.008  0.008
    8  0.000  0.000  0.008  0.008
    9  0.002  0.000  0.012  0.014
   10  0.000  0.000  0.035  0.035
   11  0.001  0.000  0.004  0.005
   12  0.000  0.000  0.034  0.034
   13  0.001  0.000  0.004  0.005
   14  0.001  0.000  0.004  0.005
   15  0.003  0.000  0.050  0.053
   16  0.000  0.000  0.034  0.035
   17  0.003  0.000  0.050  0.053
   18  0.003  0.000  0.050  0.053
   19  0.005  0.001  0.034  0.039
   20  0.002  0.000  0.024  0.026
   21  0.002  0.000  0.023  0.026
   22  0.001  0.000  0.064  0.065
   23  0.002  0.000  0.023  0.026
   24  0.001  0.000  0.064  0.065
   25  0.005  0.001  0.034  0.039
   26  0.005  0.001  0.034  0.039
   27  0.001  0.000  0.064  0.065
   28  0.002  0.001  0.002  0.005
   29  0.001  0.000  0.012  0.013
   30  0.001  0.000  0.012  0.013
   31  0.001  0.000  0.012  0.013
   32  0.001  0.000  0.012  0.013
   33  0.001  0.000  0.012  0.013
   34  0.001  0.000  0.012  0.013
   35  0.004  0.000  0.018  0.022
   36  0.001  0.001  0.001  0.003
tot    0.054  0.009  0.779  0.842
 
band    15 # energy   -4.95754851 # occ.  2.00000000
 
ion      s      p      d    tot
    1  0.000  0.000  0.008  0.008
    2  0.001  0.000  0.006  0.008
    3  0.001  0.000  0.005  0.006
    4  0.000  0.000  0.008  0.008
    5  0.000  0.000  0.002  0.002
    6  0.001  0.000  0.005  0.006
    7  0.000  0.000  0.008  0.008
    8  0.001  0.000  0.006  0.008
    9  0.000  0.000  0.015  0.016
   10  0.001  0.000  0.034  0.035
   11  0.001  0.000  0.024  0.025
   12  0.000  0.000  0.007  0.007
   13  0.000  0.000  0.051  0.051
   14  0.001  0.000  0.023  0.024
   15  0.004  0.000  0.036  0.041
   16  0.001  0.000  0.033  0.034
   17  0.000  0.000  0.075  0.075
   18  0.004  0.000  0.035  0.039
   19  0.004  0.000  0.030  0.034
   20  0.000  0.000  0.039  0.039
   21  0.000  0.000  0.009  0.009
   22  0.000  0.000  0.053  0.053
   23  0.000  0.000  0.038  0.038
   24  0.006  0.000  0.037  0.043
   25  0.004  0.000  0.028  0.032
   26  0.000  0.000  0.092  0.092
   27  0.006  0.000  0.038  0.044
   28  0.000  0.000  0.007  0.007
   29  0.000  0.000  0.009  0.010
   30  0.000  0.000  0.005  0.006
   31  0.001  0.000  0.005  0.007
   32  0.000  0.000  0.005  0.006
   33  0.001  0.000  0.005  0.007
   34  0.000  0.000  0.009  0.010
   35  0.000  0.000  0.014  0.014
   36  0.000  0.000  0.001  0.001
tot    0.039  0.006  0.806  0.852
 
band    16 # energy   -4.95751507 # occ.  2.00000000
 
ion      s      p      d    tot
    1  0.000  0.000  0.008  0.008
    2  0.000  0.000  0.006  0.007
    3  0.001  0.000  0.008  0.009
    4  0.001  0.000  0.004  0.006
    5  0.000  0.000  0.002  0.002
    6  0.001  0.000  0.008  0.009
    7  0.001  0.000  0.005  0.006
    8  0.000  0.000  0.006  0.007
    9  0.000  0.000  0.015  0.016
   10  0.000  0.000  0.015  0.016
   11  0.000  0.000  0.041  0.042
   12  0.001  0.000  0.043  0.044
   13  0.001  0.000  0.014  0.016
   14  0.000  0.000  0.043  0.043
   15  0.001  0.000  0.061  0.062
   16  0.000  0.000  0.016  0.017
   17  0.005  0.000  0.023  0.028
   18  0.001  0.000  0.062  0.064
   19  0.001  0.000  0.070  0.071
   20  0.000  0.000  0.018  0.018
   21  0.000  0.000  0.049  0.049
   22  0.008  0.000  0.033  0.041
   23  0.000  0.000  0.019  0.020
   24  0.002  0.000  0.048  0.050
   25  0.001  0.000  0.072  0.073
   26  0.005  0.000  0.008  0.013
   27  0.002  0.000  0.047  0.050
   28  0.000  0.000  0.007  0.007
   29  0.001  0.000  0.004  0.005
   30  0.001  0.000  0.008  0.009
   31  0.000  0.000  0.008  0.008
   32  0.001  0.000  0.008  0.009
   33  0.000  0.000  0.008  0.008
   34  0.001  0.000  0.004  0.005
   35  0.000  0.000  0.014  0.014
   36  0.000  0.000  0.001  0.001
tot    0.040  0.006  0.806  0.852
 
band    17 # energy   -4.83768854 # occ.  2.00000000
 
ion      s      p      d    tot
    1  0.000  0.000  0.001  0.001
    2  0.000  0.000  0.007  0.008
    3  0.000  0.000  0.007  0.008
    4  0.002  0.001  0.006  0.008
    5  0.000  0.001  0.017  0.018
    6  0.002  0.001  0.006  0.008
    7  0.000  0.000  0.006  0.007
    8  0.001  0.000  0.006  0.007
    9  0.000  0.000  0.009  0.009
   10  0.000  0.001  0.022  0.023
   11  0.000  0.000  0.075  0.076
   12  0.000  0.001  0.020  0.021
   13  0.003  0.000  0.057  0.060
   14  0.003  0.000  0.050  0.054
   15  0.000  0.000  0.008  0.009
   16  0.000  0.000  0.013  0.014
   17  0.002  0.000  0.018  0.020
   18  0.003  0.000  0.021  0.024
   19  0.000  0.000  0.002  0.002
   20  0.002  0.000  0.081  0.083
   21  0.001  0.000  0.091  0.092
   22  0.000  0.001  0.026  0.027
   23  0.000  0.000  0.117  0.118
   24  0.000  0.001  0.023  0.024
   25  0.001  0.001  0.024  0.025
   26  0.000  0.001  0.018  0.019
   27  0.000  0.000  0.035  0.035
   28  0.000  0.000  0.004  0.004
   29  0.000  0.000  0.007  0.008
   30  0.000  0.000  0.008  0.008
   31  0.001  0.000  0.007  0.008
   32  0.001  0.001  0.007  0.009
   33  0.001  0.000  0.009  0.010
   34  0.001  0.001  0.009  0.010
   35  0.000  0.000  0.001  0.001
   36  0.000  0.003  0.008  0.012
tot    0.025  0.017  0.828  0.869
 
band    18 # energy   -4.83767530 # occ.  2.00000000
 
ion      s      p      d    tot
    1  0.000  0.000  0.001  0.001
    2  0.001  0.000  0.006  0.007
    3  0.002  0.001  0.005  0.008
    4  0.000  0.000  0.007  0.007
    5  0.000  0.001  0.017  0.018
    6  0.000  0.000  0.007  0.007
    7  0.001  0.001  0.006  0.008
    8  0.001  0.001  0.007  0.008
    9  0.000  0.000  0.009  0.009
   10  0.000  0.000  0.015  0.015
   11  0.004  0.000  0.047  0.051
   12  0.000  0.001  0.017  0.018
   13  0.001  0.000  0.065  0.067
   14  0.001  0.000  0.072  0.073
   15  0.003  0.001  0.023  0.027
   16  0.000  0.001  0.023  0.025
   17  0.001  0.000  0.014  0.015
   18  0.000  0.000  0.010  0.011
   19  0.001  0.001  0.027  0.029
   20  0.000  0.000  0.112  0.112
   21  0.001  0.000  0.102  0.103
   22  0.000  0.000  0.030  0.030
   23  0.002  0.000  0.076  0.078
   24  0.000  0.000  0.033  0.033
   25  0.000  0.000  0.005  0.005
   26  0.000  0.000  0.011  0.012
   27  0.000  0.001  0.021  0.022
   28  0.000  0.000  0.004  0.004
   29  0.001  0.001  0.008  0.010
   30  0.001  0.001  0.008  0.010
   31  0.000  0.000  0.009  0.010
   32  0.000  0.000  0.009  0.009
   33  0.001  0.000  0.007  0.008
   34  0.000  0.000  0.007  0.007
   35  0.000  0.000  0.001  0.001
   36  0.000  0.003  0.008  0.012
tot    0.025  0.017  0.828  0.869
 
band    19 # energy   -4.83011595 # occ.  2.00000000
 
ion      s      p      d    tot
    1  0.000  0.000  0.000  0.000
    2  0.000  0.000  0.004  0.004
    3  0.000  0.000  0.004  0.004
    4  0.000  0.000  0.004  0.004
    5  0.001  0.001  0.017  0.018
    6  0.000  0.000  0.004  0.004
    7  0.000  0.000  0.004  0.004
    8  0.000  0.000  0.004  0.004
    9  0.001  0.000  0.006  0.007
   10  0.000  0.000  0.010  0.010
   11  0.000  0.001  0.084  0.085
   12  0.000  0.000  0.010  0.010
   13  0.000  0.001  0.084  0.085
   14  0.000  0.001  0.084  0.085
   15  0.001  0.001  0.034  0.035
   16  0.000  0.000  0.010  0.010
   17  0.001  0.001  0.034  0.035
   18  0.001  0.001  0.034  0.035
   19  0.000  0.000  0.016  0.017
   20  0.002  0.000  0.066  0.069
   21  0.002  0.000  0.066  0.069
   22  0.003  0.000  0.018  0.021
   23  0.002  0.000  0.066  0.069
   24  0.003  0.000  0.018  0.021
   25  0.000  0.000  0.016  0.017
   26  0.000  0.000  0.016  0.017
   27  0.003  0.000  0.018  0.021
   28  0.006  0.001  0.000  0.007
   29  0.000  0.001  0.014  0.015
   30  0.000  0.000  0.014  0.015
   31  0.000  0.001  0.014  0.015
   32  0.000  0.000  0.014  0.015
   33  0.000  0.000  0.014  0.015
   34  0.000  0.000  0.014  0.015
   35  0.003  0.001  0.001  0.004
   36  0.001  0.001  0.003  0.006
tot    0.031  0.014  0.819  0.864
 
band    20 # energy   -4.80557583 # occ.  2.00000000
 
ion      s      p      d    tot
    1  0.000  0.000  0.002  0.002
    2  0.000  0.001  0.015  0.016
    3  0.000  0.001  0.015  0.016
    4  0.000  0.001  0.015  0.016
    5  0.006  0.001  0.000  0.007
    6  0.000  0.001  0.015  0.016
    7  0.000  0.001  0.015  0.016
    8  0.000  0.001  0.015  0.016
    9  0.004  0.001  0.001  0.006
   10  0.003  0.000  0.037  0.040
   11  0.000  0.000  0.027  0.027
   12  0.003  0.000  0.037  0.040
   13  0.000  0.000  0.027  0.027
   14  0.000  0.000  0.027  0.027
   15  0.005  0.000  0.015  0.020
   16  0.003  0.000  0.037  0.040
   17  0.005  0.000  0.015  0.020
   18  0.005  0.000  0.015  0.020
   19  0.000  0.000  0.059  0.060
   20  0.000  0.000  0.010  0.011
   21  0.000  0.000  0.011  0.011
   22  0.000  0.001  0.038  0.040
   23  0.000  0.000  0.011  0.011
   24  0.000  0.001  0.038  0.040
   25  0.000  0.000  0.059  0.060
   26  0.000  0.000  0.059  0.060
   27  0.000  0.001  0.039  0.040
   28  0.002  0.000  0.029  0.031
   29  0.001  0.000  0.015  0.016
   30  0.001  0.000  0.015  0.016
   31  0.001  0.000  0.015  0.016
   32  0.001  0.000  0.015  0.016
   33  0.001  0.000  0.015  0.016
   34  0.001  0.000  0.015  0.016
   35  0.006  0.001  0.000  0.007
   36  0.004  0.001  0.000  0.005
tot    0.054  0.018  0.772  0.843
 
band    21 # energy   -4.78601897 # occ.  2.00000000
 
ion      s      p      d    tot
    1  0.000  0.001  0.018  0.019
    2  0.001  0.001  0.009  0.011
    3  0.001  0.000  0.010  0.011
    4  0.001  0.001  0.004  0.006
    5  0.000  0.000  0.003  0.003
    6  0.001  0.001  0.004  0.006
    7  0.000  0.000  0.008  0.009
    8  0.000  0.000  0.007  0.008
    9  0.000  0.000  0.003  0.003
   10  0.000  0.000  0.068  0.069
   11  0.000  0.001  0.032  0.034
   12  0.001  0.000  0.067  0.068
   13  0.000  0.000  0.011  0.011
   14  0.000  0.000  0.006  0.006
   15  0.000  0.001  0.019  0.020
   16  0.002  0.000  0.061  0.063
   17  0.000  0.000  0.055  0.055
   18  0.000  0.000  0.063  0.063
   19  0.002  0.000  0.030  0.032
   20  0.000  0.000  0.011  0.011
   21  0.000  0.000  0.017  0.017
   22  0.001  0.000  0.029  0.031
   23  0.001  0.001  0.043  0.045
   24  0.001  0.000  0.028  0.029
   25  0.000  0.000  0.066  0.067
   26  0.001  0.000  0.059  0.060
   27  0.003  0.000  0.035  0.038
   28  0.000  0.001  0.013  0.013
   29  0.000  0.000  0.007  0.007
   30  0.000  0.000  0.008  0.008
   31  0.001  0.000  0.004  0.006
   32  0.002  0.001  0.004  0.006
   33  0.001  0.001  0.009  0.010
   34  0.001  0.001  0.008  0.010
   35  0.000  0.001  0.013  0.013
   36  0.000  0.000  0.001  0.001
tot    0.020  0.014  0.833  0.867
 
band    22 # energy   -4.78598865 # occ.  2.00000000
 
ion      s      p      d    tot
    1  0.000  0.001  0.018  0.019
    2  0.001  0.000  0.005  0.006
    3  0.001  0.000  0.004  0.005
    4  0.000  0.000  0.010  0.010
    5  0.000  0.000  0.003  0.003
    6  0.000  0.000  0.011  0.011
    7  0.001  0.001  0.006  0.008
    8  0.001  0.001  0.007  0.009
    9  0.000  0.000  0.003  0.003
   10  0.001  0.000  0.062  0.064
   11  0.000  0.000  0.001  0.001
   12  0.001  0.000  0.064  0.065
   13  0.000  0.001  0.022  0.023
   14  0.000  0.001  0.027  0.028
   15  0.000  0.000  0.072  0.072
   16  0.000  0.000  0.070  0.070