 vasp.6.2.0 18Jan21 (build Jun 12 2021 23:27:24) complex                        
  
 executed on             LinuxIFC date 2022.05.28  02:04:10
 running on   28 total cores
 distrk:  each k-point on   28 cores,    1 groups
 distr:  one band on NCORE=   1 cores,   28 groups


--------------------------------------------------------------------------------------------------------


 INCAR:
   ISMEAR = -5
   SIGMA = 0.1
   ISPIN = 1
   EDIFF = 1.d-5
   EDIFFG = -0.01
   NSW = 0
   NELM = 150
   ENCUT = 500
   ISIF = 2
   IBRION = 2
   LREAL = Auto
   ALGO = Fast
   ICHARG = 11
   LORBIT = 10
   LCHARG = .F.
   LWAVE = .F.

 POTCAR:    PAW_PBE Ag 02Apr2005                  
 POTCAR:    PAW_PBE Re 17Jan2003                  
 POTCAR:    PAW_PBE O 08Apr2002                   
 POTCAR:    PAW_PBE H 15Jun2001                   
 -----------------------------------------------------------------------------
|                                                                             |
|           W    W    AA    RRRRR   N    N  II  N    N   GGGG   !!!           |
|           W    W   A  A   R    R  NN   N  II  NN   N  G    G  !!!           |
|           W    W  A    A  R    R  N N  N  II  N N  N  G       !!!           |
|           W WW W  AAAAAA  RRRRR   N  N N  II  N  N N  G  GGG   !            |
|           WW  WW  A    A  R   R   N   NN  II  N   NN  G    G                |
|           W    W  A    A  R    R  N    N  II  N    N   GGGG   !!!           |
|                                                                             |
|     For optimal performance we recommend to set                             |
|       NCORE = 2 up to number-of-cores-per-socket                            |
|     NCORE specifies how many cores store one orbital (NPAR=cpu/NCORE).      |
|     This setting can greatly improve the performance of VASP for DFT.       |
|     The default, NCORE=1 might be grossly inefficient on modern             |
|     multi-core architectures or massively parallel machines. Do your        |
|     own testing! More info at https://www.vasp.at/wiki/index.php/NCORE      |
|     Unfortunately you need to use the default for GW and RPA                |
|     calculations (for HF NCORE is supported but not extensively tested      |
|     yet).                                                                   |
|                                                                             |
 -----------------------------------------------------------------------------

 POTCAR:    PAW_PBE Ag 02Apr2005                  
   VRHFIN =Ag : s1 d10                                                                              
   LEXCH  = PE                                                                                      
   EATOM  =  1037.2675 eV,   76.2370 Ry                                                             
                                                                                                    
   TITEL  = PAW_PBE Ag 02Apr2005                                                                    
   LULTRA =        F    use ultrasoft PP ?                                                          
   IUNSCR =        1    unscreen: 0-lin 1-nonlin 2-no                                               
   RPACOR =    2.000    partial core radius                                                         
   POMASS =  107.868; ZVAL   =   11.000    mass and valenz                                          
   RCORE  =    2.500    outmost cutoff radius                                                       
   RWIGS  =    2.840; RWIGS  =    1.503    wigner-seitz radius (au A)                               
   ENMAX  =  249.844; ENMIN  =  187.383 eV                                                          
   ICORE  =        3    local potential                                                             
   LCOR   =        T    correct aug charges                                                         
   LPAW   =        T    paw PP                                                                      
   EAUG   =  412.496                                                                                
   DEXC   =    0.000                                                                                
   RMAX   =    2.560    core radius for proj-oper                                                   
   RAUG   =    1.300    factor for augmentation sphere                                              
   RDEP   =    2.576    radius for radial grids                                                     
   RDEPT  =    2.072    core radius for aug-charge                                                  
                                                                                                    
   Atomic configuration                                                                             
   12 entries                                                                                       
     n  l   j            E        occ.                                                              
     1  0  0.50    -25324.9161   2.0000                                                             
     2  0  0.50     -3728.5341   2.0000                                                             
     2  1  1.50     -3344.0404   6.0000                                                             
     3  0  0.50      -683.5581   2.0000                                                             
     3  1  1.50      -557.3225   6.0000                                                             
     3  2  2.50      -358.3853  10.0000                                                             
     4  0  0.50       -95.0341   2.0000                                                             
     4  1  1.50       -58.5511   6.0000                                                             
     4  2  2.50        -7.4440  10.0000                                                             
     5  0  0.50        -4.4045   1.0000                                                             
     5  1  0.50        -1.3606   0.0000                                                             
     4  3  2.50        -1.3606   0.0000                                                             
   Description                                                                                      
     l       E           TYP  RCUT    TYP  RCUT                                                     
     2     -7.4439781     23  2.400                                                                 
     2     -8.8045607     23  2.400                                                                 
     0     -4.4044681     23  2.400                                                                 
     0      1.9520038     23  2.400                                                                 
     1     -1.3605826     23  2.500                                                                 
     1     27.2116520     23  2.500                                                                 
     3     -4.0817478     23  2.400                                                                 
  local pseudopotential read in
  partial core-charges read in
  partial kinetic energy density read in
  atomic valenz-charges read in
  non local Contribution for L=           2  read in
    real space projection operators read in
  non local Contribution for L=           2  read in
    real space projection operators read in
  non local Contribution for L=           0  read in
    real space projection operators read in
  non local Contribution for L=           0  read in
    real space projection operators read in
  non local Contribution for L=           1  read in
    real space projection operators read in
  non local Contribution for L=           1  read in
    real space projection operators read in
    PAW grid and wavefunctions read in
 
   number of l-projection  operators is LMAX  =           6
   number of lm-projection operators is LMMAX =          18
 
 POTCAR:    PAW_PBE Re 17Jan2003                  
   VRHFIN =Re: 5p6s5d                                                                               
   LEXCH  = PE                                                                                      
   EATOM  =   299.6589 eV,   22.0243 Ry                                                             
                                                                                                    
   TITEL  = PAW_PBE Re 17Jan2003                                                                    
   LULTRA =        F    use ultrasoft PP ?                                                          
   IUNSCR =        1    unscreen: 0-lin 1-nonlin 2-no                                               
   RPACOR =    2.250    partial core radius                                                         
   POMASS =  186.207; ZVAL   =    7.000    mass and valenz                                          
   RCORE  =    2.700    outmost cutoff radius                                                       
   RWIGS  =    2.710; RWIGS  =    1.434    wigner-seitz radius (au A)                               
   ENMAX  =  226.216; ENMIN  =  169.662 eV                                                          
   RCLOC  =    2.105    cutoff for local pot                                                        
   LCOR   =        T    correct aug charges                                                         
   LPAW   =        T    paw PP                                                                      
   EAUG   =  370.280                                                                                
   DEXC   =    0.000                                                                                
   RMAX   =    2.768    core radius for proj-oper                                                   
   RAUG   =    1.300    factor for augmentation sphere                                              
   RDEP   =    2.719    radius for radial grids                                                     
   RDEPT  =    2.204    core radius for aug-charge                                                  
                                                                                                    
   Atomic configuration                                                                             
   16 entries                                                                                       
     n  l   j            E        occ.                                                              
     1  0  0.50    -71633.0043   2.0000                                                             
     2  0  0.50    -12416.1215   2.0000                                                             
     2  1  1.50    -10832.4223   6.0000                                                             
     3  0  0.50     -2872.9330   2.0000                                                             
     3  1  1.50     -2406.1720   6.0000                                                             
     3  2  2.50     -1877.8916  10.0000                                                             
     4  0  0.50      -597.8463   2.0000                                                             
     4  1  1.50      -444.8000   6.0000                                                             
     4  2  2.50      -252.9938  10.0000                                                             
     4  3  3.50       -40.1243  14.0000                                                             
     5  0  0.50       -83.0609   2.0000                                                             
     5  1  1.50       -44.9781   6.0000                                                             
     5  2  2.50        -4.0055   6.0000                                                             
     6  0  0.50        -5.2962   1.0000                                                             
     6  1  1.50        -2.7212   0.0000                                                             
     5  3  2.50        -1.3606   0.0000                                                             
   Description                                                                                      
     l       E           TYP  RCUT    TYP  RCUT                                                     
     2     -4.0054887     23  2.500                                                                 
     2     -2.6236470     23  2.500                                                                 
     0     -5.2961782     23  2.600                                                                 
     0      4.1641227     23  2.600                                                                 
     1     -2.7211652     23  2.700                                                                 
     1     27.2116520     23  2.700                                                                 
  local pseudopotential read in
  partial core-charges read in
  partial kinetic energy density read in
  kinetic energy density of atom read in
  atomic valenz-charges read in
  non local Contribution for L=           2  read in
    real space projection operators read in
  non local Contribution for L=           2  read in
    real space projection operators read in
  non local Contribution for L=           0  read in
    real space projection operators read in
  non local Contribution for L=           0  read in
    real space projection operators read in
  non local Contribution for L=           1  read in
    real space projection operators read in
  non local Contribution for L=           1  read in
    real space projection operators read in
    PAW grid and wavefunctions read in
 
   number of l-projection  operators is LMAX  =           6
   number of lm-projection operators is LMMAX =          18
 
 POTCAR:    PAW_PBE O 08Apr2002                   
   VRHFIN =O: s2p4                                                                                  
   LEXCH  = PE                                                                                      
   EATOM  =   432.3788 eV,   31.7789 Ry                                                             
                                                                                                    
   TITEL  = PAW_PBE O 08Apr2002                                                                     
   LULTRA =        F    use ultrasoft PP ?                                                          
   IUNSCR =        1    unscreen: 0-lin 1-nonlin 2-no                                               
   RPACOR =    1.200    partial core radius                                                         
   POMASS =   16.000; ZVAL   =    6.000    mass and valenz                                          
   RCORE  =    1.520    outmost cutoff radius                                                       
   RWIGS  =    1.550; RWIGS  =    0.820    wigner-seitz radius (au A)                               
   ENMAX  =  400.000; ENMIN  =  300.000 eV                                                          
   ICORE  =        2    local potential                                                             
   LCOR   =        T    correct aug charges                                                         
   LPAW   =        T    paw PP                                                                      
   EAUG   =  605.392                                                                                
   DEXC   =    0.000                                                                                
   RMAX   =    1.553    core radius for proj-oper                                                   
   RAUG   =    1.300    factor for augmentation sphere                                              
   RDEP   =    1.550    radius for radial grids                                                     
   RDEPT  =    1.329    core radius for aug-charge                                                  
                                                                                                    
   Atomic configuration                                                                             
    4 entries                                                                                       
     n  l   j            E        occ.                                                              
     1  0  0.50      -514.6923   2.0000                                                             
     2  0  0.50       -23.9615   2.0000                                                             
     2  1  0.50        -9.0305   4.0000                                                             
     3  2  1.50        -9.5241   0.0000                                                             
   Description                                                                                      
     l       E           TYP  RCUT    TYP  RCUT                                                     
     0    -23.9615318     23  1.200                                                                 
     0     -9.5240782     23  1.200                                                                 
     1     -9.0304911     23  1.520                                                                 
     1      8.1634956     23  1.520                                                                 
     2     -9.5240782      7  1.500                                                                 
  local pseudopotential read in
  partial core-charges read in
  partial kinetic energy density read in
  kinetic energy density of atom read in
  atomic valenz-charges read in
  non local Contribution for L=           0  read in
    real space projection operators read in
  non local Contribution for L=           0  read in
    real space projection operators read in
  non local Contribution for L=           1  read in
    real space projection operators read in
  non local Contribution for L=           1  read in
    real space projection operators read in
    PAW grid and wavefunctions read in
 
   number of l-projection  operators is LMAX  =           4
   number of lm-projection operators is LMMAX =           8
 
 POTCAR:    PAW_PBE H 15Jun2001                   
   VRHFIN =H: ultrasoft test                                                                        
   LEXCH  = PE                                                                                      
   EATOM  =    12.4884 eV,    0.9179 Ry                                                             
                                                                                                    
   TITEL  = PAW_PBE H 15Jun2001                                                                     
   LULTRA =        F    use ultrasoft PP ?                                                          
   IUNSCR =        0    unscreen: 0-lin 1-nonlin 2-no                                               
   RPACOR =    0.000    partial core radius                                                         
   POMASS =    1.000; ZVAL   =    1.000    mass and valenz                                          
   RCORE  =    1.100    outmost cutoff radius                                                       
   RWIGS  =    0.700; RWIGS  =    0.370    wigner-seitz radius (au A)                               
   ENMAX  =  250.000; ENMIN  =  200.000 eV                                                          
   RCLOC  =    0.701    cutoff for local pot                                                        
   LCOR   =        T    correct aug charges                                                         
   LPAW   =        T    paw PP                                                                      
   EAUG   =  400.000                                                                                
   RMAX   =    1.123    core radius for proj-oper                                                   
   RAUG   =    1.200    factor for augmentation sphere                                              
   RDEP   =    1.112    radius for radial grids                                                     
   RDEPT  =    0.926    core radius for aug-charge                                                  
                                                                                                    
   Atomic configuration                                                                             
    2 entries                                                                                       
     n  l   j            E        occ.                                                              
     1  0  0.50        -6.4927   1.0000                                                             
     2  1  0.50        -3.4015   0.0000                                                             
   Description                                                                                      
     l       E           TYP  RCUT    TYP  RCUT                                                     
     0     -6.4927494     23  1.100                                                                 
     0      6.8029130     23  1.100                                                                 
     1     -4.0817478     23  1.100                                                                 
  local pseudopotential read in
  atomic valenz-charges read in
  non local Contribution for L=           0  read in
    real space projection operators read in
  non local Contribution for L=           0  read in
    real space projection operators read in
  non local Contribution for L=           1  read in
    real space projection operators read in
    PAW grid and wavefunctions read in
 
   number of l-projection  operators is LMAX  =           3
   number of lm-projection operators is LMMAX =           5
 
 Optimization of the real space projectors (new method)

 maximal supplied QI-value         = 15.12
 optimisation between [QCUT,QGAM] = [ 11.34, 22.83] = [ 36.00,145.93] Ry 
 Optimized for a Real-space Cutoff    1.43 Angstroem

   l    n(q)    QCUT    max X(q) W(low)/X(q) W(high)/X(q)  e(spline) 
   2      9    11.338    53.897    0.16E-03    0.20E-03    0.28E-06
   2      9    11.338    52.416    0.16E-03    0.20E-03    0.29E-06
   0     10    11.338   122.045    0.31E-04    0.76E-04    0.15E-06
   0     10    11.338    73.629    0.30E-04    0.72E-04    0.15E-06
   1      9    11.338    15.255    0.20E-03    0.19E-04    0.17E-06
   1      9    11.338     9.562    0.16E-03    0.15E-04    0.14E-06
 Optimization of the real space projectors (new method)

 maximal supplied QI-value         = 13.98
 optimisation between [QCUT,QGAM] = [ 11.33, 22.79] = [ 35.93,145.49] Ry 
 Optimized for a Real-space Cutoff    1.56 Angstroem

   l    n(q)    QCUT    max X(q) W(low)/X(q) W(high)/X(q)  e(spline) 
   2     10    11.327   884.633    0.22E-03    0.51E-03    0.88E-06
   2     10    11.327   796.723    0.22E-03    0.51E-03    0.88E-06
   0     11    11.327    65.348    0.44E-04    0.11E-03    0.75E-06
   0     11    11.327    39.642    0.40E-04    0.10E-03    0.69E-06
   1     10    11.327    13.988    0.15E-03    0.10E-03    0.19E-06
   1     10    11.327     8.682    0.11E-03    0.76E-04    0.14E-06
 Optimization of the real space projectors (new method)

 maximal supplied QI-value         = 24.76
 optimisation between [QCUT,QGAM] = [ 11.39, 22.77] = [ 36.31,145.25] Ry 
 Optimized for a Real-space Cutoff    1.00 Angstroem

   l    n(q)    QCUT    max X(q) W(low)/X(q) W(high)/X(q)  e(spline) 
   0      7    11.387    20.381    0.39E-03    0.13E-02    0.15E-06
   0      7    11.387    15.268    0.42E-03    0.14E-02    0.17E-06
   1      6    11.387     5.964    0.41E-03    0.11E-02    0.17E-06
   1      6    11.387     5.382    0.39E-03    0.87E-03    0.15E-06
 Optimization of the real space projectors (new method)

 maximal supplied QI-value         = 34.20
 optimisation between [QCUT,QGAM] = [ 11.29, 22.57] = [ 35.68,142.71] Ry 
 Optimized for a Real-space Cutoff    1.16 Angstroem

   l    n(q)    QCUT    max X(q) W(low)/X(q) W(high)/X(q)  e(spline) 
   0      8    11.287    19.460    0.40E-03    0.73E-03    0.16E-06
   0      8    11.287    12.209    0.38E-03    0.70E-03    0.15E-06
   1      7    11.287     4.655    0.22E-03    0.25E-04    0.22E-06
  PAW_PBE Ag 02Apr2005                  :
 energy of atom  1       EATOM=-1037.2675
 kinetic energy error for atom=    0.0052 (will be added to EATOM!!)
  PAW_PBE Re 17Jan2003                  :
 energy of atom  2       EATOM= -299.6589
 kinetic energy error for atom=    0.0023 (will be added to EATOM!!)
  PAW_PBE O 08Apr2002                   :
 energy of atom  3       EATOM= -432.3788
 kinetic energy error for atom=    0.0224 (will be added to EATOM!!)
  PAW_PBE H 15Jun2001                   :
 energy of atom  4       EATOM=  -12.4884
 kinetic energy error for atom=    0.0020 (will be added to EATOM!!)
 
 
 POSCAR: Ag-Re-OOH
  positions in direct lattice
  velocities in cartesian coordinates
 exchange correlation table for  LEXCH =        8
   RHO(1)=    0.500       N(1)  =     2000
   RHO(2)=  100.500       N(2)  =     4000

 VTST: version 3.2, (02/03/18)

 CHAIN: initializing optimizer
 
 OPT: Using VASP Conjugate-Gradient optimizer
 CHAIN: Read ICHAIN            0
 
 POSCAR: Ag-Re-OOH
  positions in direct lattice
  velocities in cartesian coordinates
 


--------------------------------------------------------------------------------------------------------


 ion  position               nearest neighbor table
   1  0.000  0.000  0.204-   2 2.93   8 2.93   7 2.93   6 2.93   4 2.93  12 2.93  16 2.93  10 2.93
                             3 2.93
   2  0.333  0.000  0.204-   1 2.93   8 2.93   9 2.93   3 2.93   4 2.93   5 2.93  10 2.93  17 2.93
                            11 2.93
   3  0.667  0.000  0.204-   9 2.93   2 2.93   5 2.93  11 2.93   7 2.93  18 2.93   1 2.93   6 2.93
                            12 2.93
   4  0.000  0.333  0.204-   5 2.93   6 2.93   2 2.93   1 2.93   7 2.93  13 2.93  15 2.93   9 2.93
                            10 2.93
   5  0.333  0.333  0.204-   4 2.93   3 2.93   7 2.93   2 2.93   8 2.93  14 2.93  13 2.93  11 2.93
                             6 2.93
   6  0.667  0.333  0.204-   4 2.93   9 2.93   1 2.93  15 2.93   8 2.93  12 2.93   3 2.93   5 2.93
                            14 2.93
   7  0.000  0.667  0.204-   8 2.93   1 2.93   5 2.93   3 2.93   4 2.93  16 2.93  18 2.93  13 2.93
                             9 2.93
   8  0.333  0.667  0.204-   7 2.93   1 2.93   2 2.93   9 2.93   5 2.93  16 2.93   6 2.93  17 2.93
                            14 2.93
   9  0.667  0.667  0.204-   3 2.93   2 2.93   8 2.93   6 2.93  17 2.93   4 2.93  15 2.93   7 2.93
                            18 2.93
  10  0.111  0.111  0.296-  20 2.89  12 2.93  16 2.93  15 2.93  17 2.93  13 2.93  11 2.93   2 2.93
                             1 2.93   4 2.93  19 2.93  26 2.93
  11  0.444  0.111  0.296-  21 2.89  20 2.89  27 2.93  14 2.93  17 2.93  18 2.93   3 2.93  12 2.93
                            13 2.93  10 2.93   5 2.93   2 2.93
  12  0.778  0.111  0.296-  21 2.89  10 2.93  16 2.93  18 2.93  15 2.93  11 2.93   1 2.93  14 2.93
                             6 2.93   3 2.93  25 2.93  19 2.93
  13  0.111  0.444  0.296-  20 2.89  23 2.89  22 2.93  15 2.93  14 2.93  18 2.93  10 2.93  11 2.93
                            16 2.93   4 2.93   5 2.93   7 2.93
  14  0.444  0.444  0.296-  23 2.89  21 2.89  24 2.93  13 2.93  11 2.93  16 2.93   5 2.93  12 2.93
                            17 2.93   8 2.93  15 2.93   6 2.93
  15  0.778  0.444  0.296-  24 2.92  22 2.92  19 2.93  13 2.93  10 2.93  12 2.93  17 2.93  18 2.93
                             4 2.93   6 2.93   9 2.93  14 2.93
  16  0.111  0.778  0.296-  23 2.89  18 2.93  12 2.93  10 2.93  14 2.93  17 2.93  13 2.93   7 2.93
                             8 2.93   1 2.93  26 2.93  25 2.93
  17  0.444  0.778  0.296-  27 2.92  24 2.92  26 2.93  11 2.93  10 2.93   9 2.93  18 2.93  15 2.93
                            16 2.93   2 2.93  14 2.93   8 2.93
  18  0.778  0.778  0.296-  22 2.92  27 2.92  25 2.93  16 2.93  12 2.93  13 2.93  11 2.93  17 2.93
                            15 2.93   7 2.93   3 2.93   9 2.93
  19  0.889  0.223  0.389-  28 2.91  24 2.93  22 2.93  15 2.93  20 2.93  21 2.93  10 2.93  12 2.93
                            26 2.94  25 2.94  32 2.97  31 2.97
  20  0.222  0.222  0.387-  36 2.76  10 2.89  13 2.89  11 2.89  19 2.93  26 2.93  21 2.93  23 2.93
                            27 2.94  22 2.94  31 2.94  29 2.94
  21  0.556  0.222  0.387-  36 2.76  12 2.89  11 2.89  14 2.89  25 2.93  19 2.93  20 2.93  23 2.93
                            27 2.94  24 2.94  30 2.94  32 2.94
  22  0.888  0.556  0.388-  35 2.91  24 2.92  27 2.92  18 2.92  15 2.92  13 2.93  25 2.93  19 2.93
                            23 2.94  20 2.94  33 2.95  31 2.95
  23  0.222  0.556  0.387-  36 2.76  16 2.89  14 2.89  13 2.89  26 2.93  25 2.93  21 2.93  20 2.93
                            22 2.94  24 2.94  34 2.94  33 2.94
  24  0.556  0.556  0.388-  35 2.91  27 2.92  22 2.92  15 2.92  17 2.92  14 2.93  19 2.93  26 2.93
                            23 2.94  21 2.94  32 2.95  34 2.95
  25  0.889  0.889  0.389-  28 2.91  22 2.93  27 2.93  18 2.93  23 2.93  21 2.93  16 2.93  12 2.93
                            26 2.94  19 2.94  33 2.97  30 2.97
  26  0.223  0.889  0.389-  28 2.91  27 2.93  24 2.93  17 2.93  23 2.93  20 2.93  16 2.93  10 2.93
                            25 2.94  19 2.94  34 2.97  29 2.97
  27  0.556  0.888  0.388-  35 2.91  24 2.92  22 2.92  17 2.92  18 2.92  11 2.93  26 2.93  25 2.93
                            20 2.94  21 2.94  29 2.95  30 2.95
  28  0.000  0.000  0.480-  38 2.23  26 2.91  25 2.91  19 2.91  29 2.96  34 2.96  33 2.96  32 2.96
                            31 2.96  30 2.96
  29  0.333  0.008  0.481-  38 2.34  31 2.86  30 2.87  36 2.88  20 2.94  27 2.95  28 2.96  26 2.97
                            35 2.97  34 3.06
  30  0.659  0.008  0.481-  32 2.86  29 2.87  36 2.88  21 2.94  27 2.95  28 2.96  25 2.97  35 2.97
                            33 3.06
  31  0.008  0.333  0.481-  38 2.32  29 2.86  33 2.87  36 2.88  20 2.94  22 2.95  28 2.96  19 2.97
                            35 2.97  32 3.06
  32  0.659  0.333  0.481-  30 2.86  34 2.87  36 2.88  21 2.94  24 2.95  28 2.96  19 2.97  35 2.97
                            31 3.06
  33  0.008  0.659  0.481-  34 2.86  31 2.87  36 2.88  23 2.94  22 2.95  28 2.96  25 2.97  35 2.97
                            30 3.06
  34  0.333  0.659  0.481-  33 2.86  32 2.87  36 2.88  23 2.94  24 2.95  28 2.96  26 2.97  35 2.97
                            29 3.06
  35  0.667  0.667  0.480-  24 2.91  27 2.91  22 2.91  30 2.97  32 2.97  29 2.97  34 2.97  31 2.97
                            33 2.97
  36  0.333  0.333  0.471-  37 1.72  21 2.76  20 2.76  23 2.76  31 2.88  30 2.88  33 2.88  29 2.88
                            34 2.88  32 2.88
  37  0.322  0.331  0.537-  36 1.72
  38  0.103  0.106  0.540-  39 0.97  28 2.23  31 2.32  29 2.34
  39  0.094  0.102  0.578-  38 0.97
 
  LATTYP: Found a hexagonal cell.
 ALAT       =     8.7913665772
 C/A-ratio  =     2.9469639759
  
  Lattice vectors:
  
 A1 = (  -4.3956832886,  -7.6135467898,   0.0000000000)
 A2 = (   8.7913665771,   0.0000000000,   0.0000000000)
 A3 = (   0.0000000000,   0.0000000000,  25.9078406020)


Analysis of symmetry for initial positions (statically):
=====================================================================
 Subroutine PRICEL returns:
 Original cell was already a primitive cell.
 

 Routine SETGRP: Setting up the symmetry group for a 
 hexagonal supercell.


 Subroutine GETGRP returns: Found  1 space group operations
 (whereof  1 operations were pure point group operations)
 out of a pool of 24 trial point group operations.


The static configuration has the point symmetry C_1 .


Analysis of symmetry for dynamics (positions and initial velocities):
=====================================================================
 Subroutine PRICEL returns:
 Original cell was already a primitive cell.
 

 Routine SETGRP: Setting up the symmetry group for a 
 hexagonal supercell.


 Subroutine GETGRP returns: Found  1 space group operations
 (whereof  1 operations were pure point group operations)
 out of a pool of 24 trial point group operations.


The dynamic configuration has the point symmetry C_1 .


Analysis of constrained symmetry for selective dynamics:
=====================================================================
 Subroutine PRICEL returns:
 Original cell was already a primitive cell.
 

 Routine SETGRP: Setting up the symmetry group for a 
 hexagonal supercell.


 Subroutine GETGRP returns: Found  1 space group operations
 (whereof  1 operations were pure point group operations)
 out of a pool of 24 trial point group operations.


The constrained configuration has the point symmetry C_1 .


 Subroutine INISYM returns: Found  1 space group operations
 (whereof  1 operations are pure point group operations),
 and found     1 'primitive' translations


----------------------------------------------------------------------------------------

                                     Primitive cell                                     

  volume of cell :    1734.1020

  direct lattice vectors                    reciprocal lattice vectors
     8.791366577  0.000000000  0.000000000     0.113747958 -0.065672414  0.000000000
     4.395683289  7.613546790  0.000000000     0.000000000  0.131344829  0.000000000
     0.000000000  0.000000000 25.907840602     0.000000000  0.000000000  0.038598354

  length of vectors
     8.791366577  8.791366577 25.907840602     0.131344829  0.131344829  0.038598354

  position of ions in fractional coordinates (direct lattice)
     0.000000000  0.000000000  0.203883767
     0.333333313  0.000000000  0.203883767
     0.666666627  0.000000000  0.203883767
     1.000000000  0.333333343  0.203883767
     0.333333313  0.333333343  0.203883767
     0.666666687  0.333333343  0.203883767
     1.000000000  0.666666687  0.203883767
     0.333333313  0.666666687  0.203883767
     0.666666627  0.666666687  0.203883767
     0.111111104  0.111111112  0.296238327
     0.444444448  0.111111112  0.296238327
     0.777777791  0.111111112  0.296238327
     0.111111097  0.444444448  0.296238327
     0.444444418  0.444444448  0.296238327
     0.777777791  0.444444448  0.296238327
     0.111111104  0.777777791  0.296238327
     0.444444448  0.777777791  0.296238327
     0.777777791  0.777777791  0.296238327
     0.888537475  0.222925067  0.388598065
     0.222149514  0.222149529  0.386800316
     0.555700912  0.222149529  0.386800316
     0.887981608  0.556009226  0.388182142
     0.222149529  0.555700972  0.386800316
     0.556009226  0.556009226  0.388182142
     0.888537475  0.888537475  0.388598065
     0.222925037  0.888537475  0.388598065
     0.556009166  0.887981608  0.388182142
     0.000000000  0.000000000  0.479793118
     0.333030248  0.007722346  0.481102749
     0.659247346  0.007722346  0.481102749
     0.007722346  0.333030278  0.481102749
     0.659247406  0.333030278  0.481102749
     0.007722346  0.659247406  0.481102749
     0.333030248  0.659247406  0.481102749
     0.666666627  0.666666687  0.479604750
     0.333333313  0.333333343  0.470853048
     0.321774350  0.330788102  0.536942387
     0.103014848  0.105637364  0.540443794
     0.093667755  0.101595896  0.577797310

  ion indices of the primitive-cell ions
   primitive index   ion index
                 1           1
                 2           2
                 3           3
                 4           4
                 5           5
                 6           6
                 7           7
                 8           8
                 9           9
                10          10
                11          11
                12          12
                13          13
                14          14
                15          15
                16          16
                17          17
                18          18
                19          19
                20          20
                21          21
                22          22
                23          23
                24          24
                25          25
                26          26
                27          27
                28          28
                29          29
                30          30
                31          31
                32          32
                33          33
                34          34
                35          35
                36          36
                37          37
                38          38
                39          39

----------------------------------------------------------------------------------------

 
 
 KPOINTS: Automatic mesh                          

Automatic generation of k-mesh.
 Grid dimensions read from file:
 generate k-points for:    8    8    1

 Generating k-lattice:

  Cartesian coordinates                     Fractional coordinates (reciprocal lattice)
     0.014218495 -0.008209052  0.000000000     0.125000000 -0.000000000  0.000000000
     0.000000000  0.016418104  0.000000000     0.000000000  0.125000000  0.000000000
     0.000000000  0.000000000  0.038598354     0.000000000  0.000000000  1.000000000

  Length of vectors
     0.016418104  0.016418104  0.038598354

  Shift w.r.t. Gamma in fractional coordinates (k-lattice)
     0.000000000  0.000000000  0.000000000

 TETIRR: Found    192 inequivalent tetrahedra from      384
 
 Subroutine IBZKPT returns following result:
 ===========================================
 
 Found     34 irreducible k-points:
 
 Following reciprocal coordinates:
            Coordinates               Weight
  0.000000  0.000000  0.000000      1.000000
  0.125000  0.000000  0.000000      2.000000
  0.125000  0.125000  0.000000      2.000000
  0.000000  0.125000  0.000000      2.000000
  0.250000  0.000000  0.000000      2.000000
  0.250000  0.250000  0.000000      2.000000
  0.000000  0.250000  0.000000      2.000000
  0.375000  0.000000  0.000000      2.000000
  0.375000  0.375000  0.000000      2.000000
  0.000000  0.375000  0.000000      2.000000
  0.500000  0.000000  0.000000      1.000000
  0.500000  0.500000  0.000000      1.000000
  0.000000  0.500000  0.000000      1.000000
  0.250000  0.125000  0.000000      2.000000
  0.125000  0.250000  0.000000      2.000000
 -0.125000  0.125000  0.000000      2.000000
  0.375000  0.125000  0.000000      2.000000
  0.250000  0.375000  0.000000      2.000000
 -0.125000  0.250000  0.000000      2.000000
  0.250000 -0.125000  0.000000      2.000000
 -0.125000 -0.375000  0.000000      2.000000
 -0.375000 -0.250000  0.000000      2.000000
  0.500000  0.125000  0.000000      2.000000
  0.375000  0.500000  0.000000      2.000000
 -0.125000  0.375000  0.000000      2.000000
  0.375000 -0.125000  0.000000      2.000000
 -0.125000  0.500000  0.000000      2.000000
  0.500000 -0.375000  0.000000      2.000000
  0.500000  0.250000  0.000000      2.000000
  0.250000  0.500000  0.000000      2.000000
 -0.250000  0.250000  0.000000      2.000000
 -0.375000  0.250000  0.000000      2.000000
  0.375000 -0.375000  0.000000      2.000000
 -0.250000  0.375000  0.000000      2.000000
 
 Following cartesian coordinates:
            Coordinates               Weight
  0.000000  0.000000  0.000000      1.000000
  0.014218 -0.008209  0.000000      2.000000
  0.014218  0.008209  0.000000      2.000000
  0.000000  0.016418  0.000000      2.000000
  0.028437 -0.016418  0.000000      2.000000
  0.028437  0.016418  0.000000      2.000000
  0.000000  0.032836  0.000000      2.000000
  0.042655 -0.024627  0.000000      2.000000
  0.042655  0.024627  0.000000      2.000000
  0.000000  0.049254  0.000000      2.000000
  0.056874 -0.032836  0.000000      1.000000
  0.056874  0.032836  0.000000      1.000000
  0.000000  0.065672  0.000000      1.000000
  0.028437 -0.000000  0.000000      2.000000
  0.014218  0.024627  0.000000      2.000000
 -0.014218  0.024627  0.000000      2.000000
  0.042655 -0.008209  0.000000      2.000000
  0.028437  0.032836  0.000000      2.000000
 -0.014218  0.041045  0.000000      2.000000
  0.028437 -0.032836  0.000000      2.000000
 -0.014218 -0.041045  0.000000      2.000000
 -0.042655 -0.008209  0.000000      2.000000
  0.056874 -0.016418  0.000000      2.000000
  0.042655  0.041045  0.000000      2.000000
 -0.014218  0.057463  0.000000      2.000000
  0.042655 -0.041045  0.000000      2.000000
 -0.014218  0.073881  0.000000      2.000000
  0.056874 -0.082091  0.000000      2.000000
  0.056874 -0.000000  0.000000      2.000000
  0.028437  0.049254  0.000000      2.000000
 -0.028437  0.049254  0.000000      2.000000
 -0.042655  0.057463  0.000000      2.000000
  0.042655 -0.073881  0.000000      2.000000
 -0.028437  0.065672  0.000000      2.000000
 


--------------------------------------------------------------------------------------------------------




 Dimension of arrays:
   k-points           NKPTS =     34   k-points in BZ     NKDIM =     34   number of bands    NBANDS=    252
   number of dos      NEDOS =    301   number of ions     NIONS =     39
   non local maximal  LDIM  =      6   non local SUM 2l+1 LMDIM =     18
   total plane-waves  NPLWV = 331776
   max r-space proj   IRMAX =   3117   max aug-charges    IRDMAX=  11259
   dimension x,y,z NGX =    48 NGY =   48 NGZ =  144
   dimension x,y,z NGXF=    96 NGYF=   96 NGZF=  288
   support grid    NGXF=    96 NGYF=   96 NGZF=  288
   ions per type =              35   1   2   1
   NGX,Y,Z   is equivalent  to a cutoff of   9.08,  9.08,  9.24 a.u.
   NGXF,Y,Z  is equivalent  to a cutoff of  18.15, 18.15, 18.48 a.u.

 SYSTEM =  unknown system                          
 POSCAR =  Ag-Re-OOH                               

 Startparameter for this run:
   NWRITE =      2    write-flag & timer
   PREC   = normal    normal or accurate (medium, high low for compatibility)
   ISTART =      0    job   : 0-new  1-cont  2-samecut
   ICHARG =     11    charge: 1-file 2-atom 10-const
   ISPIN  =      1    spin polarized calculation?
   LNONCOLLINEAR =      F non collinear calculations
   LSORBIT =      F    spin-orbit coupling
   INIWAV =      1    electr: 0-lowe 1-rand  2-diag
   LASPH  =      F    aspherical Exc in radial PAW
   METAGGA=      F    non-selfconsistent MetaGGA calc.

 Electronic Relaxation 1
   ENCUT  =  500.0 eV  36.75 Ry    6.06 a.u.  16.03 16.03 47.24*2*pi/ulx,y,z
   ENINI  =  500.0     initial cutoff
   ENAUG  =  605.4 eV  augmentation charge cutoff
   NELM   =    150;   NELMIN=  2; NELMDL= -5     # of ELM steps 
   EDIFF  = 0.1E-04   stopping-criterion for ELM
   LREAL  =      T    real-space projection
   NLSPLINE    = F    spline interpolate recip. space projectors
   LCOMPAT=      F    compatible to vasp.4.4
   GGA_COMPAT  = T    GGA compatible to vasp.4.4-vasp.4.6
   LMAXPAW     = -100 max onsite density
   LMAXMIX     =    2 max onsite mixed and CHGCAR
   VOSKOWN=      0    Vosko Wilk Nusair interpolation
   ROPT   =   -0.00050  -0.00050  -0.00050  -0.00050
 Ionic relaxation
   EDIFFG = -.1E-01   stopping-criterion for IOM
   NSW    =      0    number of steps for IOM
   NBLOCK =      1;   KBLOCK =      1    inner block; outer block 
   IBRION =     -1    ionic relax: 0-MD 1-quasi-New 2-CG
   NFREE  =      1    steps in history (QN), initial steepest desc. (CG)
   ISIF   =      2    stress and relaxation
   IWAVPR =     10    prediction:  0-non 1-charg 2-wave 3-comb
   ISYM   =      2    0-nonsym 1-usesym 2-fastsym
   LCORR  =      T    Harris-Foulkes like correction to forces

   POTIM  = 0.5000    time-step for ionic-motion
   TEIN   =    0.0    initial temperature
   TEBEG  =    0.0;   TEEND  =   0.0 temperature during run
   SMASS  =  -3.00    Nose mass-parameter (am)
   estimated Nose-frequenzy (Omega)   =  0.10E-29 period in steps = 0.13E+47 mass=  -0.177E-26a.u.
   SCALEE = 1.0000    scale energy and forces
   NPACO  =    256;   APACO  = 16.0  distance and # of slots for P.C.
   PSTRESS=    0.0 pullay stress

  Mass of Ions in am
   POMASS = 107.87186.21 16.00  1.00
  Ionic Valenz
   ZVAL   =  11.00  7.00  6.00  1.00
  Atomic Wigner-Seitz radii
   RWIGS  =  -1.00 -1.00 -1.00 -1.00
  virtual crystal weights 
   VCA    =   1.00  1.00  1.00  1.00
   NELECT =     405.0000    total number of electrons
   NUPDOWN=      -1.0000    fix difference up-down

 DOS related values:
   EMIN   =  10.00;   EMAX   =-10.00  energy-range for DOS
   EFERMI =   0.00
   ISMEAR =    -5;   SIGMA  =   0.10  broadening in eV -4-tet -1-fermi 0-gaus

 Electronic relaxation 2 (details)
   IALGO  =     68    algorithm
   LDIAG  =      T    sub-space diagonalisation (order eigenvalues)
   LSUBROT=      F    optimize rotation matrix (better conditioning)
   TURBO    =      0    0=normal 1=particle mesh
   IRESTART =      0    0=no restart 2=restart with 2 vectors
   NREBOOT  =      0    no. of reboots
   NMIN     =      0    reboot dimension
   EREF     =   0.00    reference energy to select bands
   IMIX   =      4    mixing-type and parameters
     AMIX     =   0.40;   BMIX     =  1.00
     AMIX_MAG =   1.60;   BMIX_MAG =  1.00
     AMIN     =   0.10
     WC   =   100.;   INIMIX=   1;  MIXPRE=   1;  MAXMIX= -45

 Intra band minimization:
   WEIMIN = 0.0000     energy-eigenvalue tresh-hold
   EBREAK =  0.99E-08  absolut break condition
   DEPER  =   0.30     relativ break condition  

   TIME   =   0.40     timestep for ELM

  volume/ion in A,a.u.               =      44.46       300.06
  Fermi-wavevector in a.u.,A,eV,Ry     =   1.008173  1.905170 13.829129  1.016412
  Thomas-Fermi vector in A             =   2.141023
 
 Write flags
   LWAVE        =      F    write WAVECAR
   LDOWNSAMPLE  =      F    k-point downsampling of WAVECAR
   LCHARG       =      F    write CHGCAR
   LVTOT        =      F    write LOCPOT, total local potential
   LVHAR        =      F    write LOCPOT, Hartree potential only
   LELF         =      F    write electronic localiz. function (ELF)
   LORBIT       =     10    0 simple, 1 ext, 2 COOP (PROOUT), +10 PAW based schemes


 Dipole corrections
   LMONO  =      F    monopole corrections only (constant potential shift)
   LDIPOL =      F    correct potential (dipole corrections)
   IDIPOL =      0    1-x, 2-y, 3-z, 4-all directions 
   EPSILON=  1.0000000 bulk dielectric constant

 Exchange correlation treatment:
   GGA     =    --    GGA type
   LEXCH   =     8    internal setting for exchange type
   VOSKOWN=      0    Vosko Wilk Nusair interpolation
   LHFCALC =     F    Hartree Fock is set to
   LHFONE  =     F    Hartree Fock one center treatment
   AEXX    =    0.0000 exact exchange contribution

 Linear response parameters
   LEPSILON=     F    determine dielectric tensor
   LRPA    =     F    only Hartree local field effects (RPA)
   LNABLA  =     F    use nabla operator in PAW spheres
   LVEL    =     F    velocity operator in full k-point grid
   LINTERFAST=   F  fast interpolation
   KINTER  =     0    interpolate to denser k-point grid
   CSHIFT  =0.1000    complex shift for real part using Kramers Kronig
   OMEGAMAX=  -1.0    maximum frequency
   DEG_THRESHOLD= 0.2000000E-02 threshold for treating states as degnerate
   RTIME   =   -0.100 relaxation time in fs
  (WPLASMAI=    0.000 imaginary part of plasma frequency in eV, 0.658/RTIME)
   DFIELD  = 0.0000000 0.0000000 0.0000000 field for delta impulse in time
 
 Orbital magnetization related:
   ORBITALMAG=     F  switch on orbital magnetization
   LCHIMAG   =     F  perturbation theory with respect to B field
   DQ        =  0.001000  dq finite difference perturbation B field
   LLRAUG    =     F  two centre corrections for induced B field



--------------------------------------------------------------------------------------------------------


 Static calculation
 charge density and potential remain constant during run
 non-spin polarized calculation
 RMM-DIIS sequential band-by-band and
  variant of blocked Davidson during initial phase
 perform sub-space diagonalisation
    before iterative eigenvector-optimisation
 no mixing
 using additional bands           49
 real space projection scheme for non local part
 use partial core corrections
 calculate Harris-corrections to forces 
   (improved forces if not selfconsistent)
 use gradient corrections 
 WARNING: stress and forces are not correct
  (second derivative of E(xc) not defined)
 use of overlap-Matrix (Vanderbilt PP)
 Fermi weights with tetrahedron method with Bloechl corrections


--------------------------------------------------------------------------------------------------------


  energy-cutoff  :      500.00
  volume of cell :     1734.10
      direct lattice vectors                 reciprocal lattice vectors
     8.791366577  0.000000000  0.000000000     0.113747958 -0.065672414  0.000000000
     4.395683289  7.613546790  0.000000000     0.000000000  0.131344829  0.000000000
     0.000000000  0.000000000 25.907840602     0.000000000  0.000000000  0.038598354

  length of vectors
     8.791366577  8.791366577 25.907840602     0.131344829  0.131344829  0.038598354


 
 k-points in units of 2pi/SCALE and weight: Automatic mesh                          
   0.00000000  0.00000000  0.00000000       0.016
   0.01421849 -0.00820905  0.00000000       0.031
   0.01421849  0.00820905  0.00000000       0.031
   0.00000000  0.01641810  0.00000000       0.031
   0.02843699 -0.01641810  0.00000000       0.031
   0.02843699  0.01641810  0.00000000       0.031
   0.00000000  0.03283621  0.00000000       0.031
   0.04265548 -0.02462716  0.00000000       0.031
   0.04265548  0.02462716  0.00000000       0.031
   0.00000000  0.04925431  0.00000000       0.031
   0.05687398 -0.03283621  0.00000000       0.016
   0.05687398  0.03283621  0.00000000       0.016
   0.00000000  0.06567241  0.00000000       0.016
   0.02843699 -0.00000000  0.00000000       0.031
   0.01421849  0.02462716  0.00000000       0.031
  -0.01421849  0.02462716  0.00000000       0.031
   0.04265548 -0.00820905  0.00000000       0.031
   0.02843699  0.03283621  0.00000000       0.031
  -0.01421849  0.04104526  0.00000000       0.031
   0.02843699 -0.03283621  0.00000000       0.031
  -0.01421849 -0.04104526  0.00000000       0.031
  -0.04265548 -0.00820905  0.00000000       0.031
   0.05687398 -0.01641810  0.00000000       0.031
   0.04265548  0.04104526  0.00000000       0.031
  -0.01421849  0.05746336  0.00000000       0.031
   0.04265548 -0.04104526  0.00000000       0.031
  -0.01421849  0.07388147  0.00000000       0.031
   0.05687398 -0.08209052  0.00000000       0.031
   0.05687398 -0.00000000  0.00000000       0.031
   0.02843699  0.04925431  0.00000000       0.031
  -0.02843699  0.04925431  0.00000000       0.031
  -0.04265548  0.05746336  0.00000000       0.031
   0.04265548 -0.07388147  0.00000000       0.031
  -0.02843699  0.06567241  0.00000000       0.031
 
 k-points in reciprocal lattice and weights: Automatic mesh                          
   0.00000000  0.00000000  0.00000000       0.016
   0.12500000  0.00000000  0.00000000       0.031
   0.12500000  0.12500000  0.00000000       0.031
   0.00000000  0.12500000  0.00000000       0.031
   0.25000000  0.00000000  0.00000000       0.031
   0.25000000  0.25000000  0.00000000       0.031
   0.00000000  0.25000000  0.00000000       0.031
   0.37500000  0.00000000  0.00000000       0.031
   0.37500000  0.37500000  0.00000000       0.031
   0.00000000  0.37500000  0.00000000       0.031
   0.50000000  0.00000000  0.00000000       0.016
   0.50000000  0.50000000  0.00000000       0.016
   0.00000000  0.50000000  0.00000000       0.016
   0.25000000  0.12500000  0.00000000       0.031
   0.12500000  0.25000000  0.00000000       0.031
  -0.12500000  0.12500000  0.00000000       0.031
   0.37500000  0.12500000  0.00000000       0.031
   0.25000000  0.37500000  0.00000000       0.031
  -0.12500000  0.25000000  0.00000000       0.031
   0.25000000 -0.12500000  0.00000000       0.031
  -0.12500000 -0.37500000  0.00000000       0.031
  -0.37500000 -0.25000000  0.00000000       0.031
   0.50000000  0.12500000  0.00000000       0.031
   0.37500000  0.50000000  0.00000000       0.031
  -0.12500000  0.37500000  0.00000000       0.031
   0.37500000 -0.12500000  0.00000000       0.031
  -0.12500000  0.50000000  0.00000000       0.031
   0.50000000 -0.37500000  0.00000000       0.031
   0.50000000  0.25000000  0.00000000       0.031
   0.25000000  0.50000000  0.00000000       0.031
  -0.25000000  0.25000000  0.00000000       0.031
  -0.37500000  0.25000000  0.00000000       0.031
   0.37500000 -0.37500000  0.00000000       0.031
  -0.25000000  0.37500000  0.00000000       0.031
 
 position of ions in fractional coordinates (direct lattice) 
   0.00000000  0.00000000  0.20388377
   0.33333331  0.00000000  0.20388377
   0.66666663  0.00000000  0.20388377
   0.00000000  0.33333334  0.20388377
   0.33333331  0.33333334  0.20388377
   0.66666669  0.33333334  0.20388377
   0.00000000  0.66666669  0.20388377
   0.33333331  0.66666669  0.20388377
   0.66666663  0.66666669  0.20388377
   0.11111110  0.11111111  0.29623833
   0.44444445  0.11111111  0.29623833
   0.77777779  0.11111111  0.29623833
   0.11111110  0.44444445  0.29623833
   0.44444442  0.44444445  0.29623833
   0.77777779  0.44444445  0.29623833
   0.11111110  0.77777779  0.29623833
   0.44444445  0.77777779  0.29623833
   0.77777779  0.77777779  0.29623833
   0.88853747  0.22292507  0.38859807
   0.22214951  0.22214953  0.38680032
   0.55570091  0.22214953  0.38680032
   0.88798161  0.55600923  0.38818214
   0.22214953  0.55570097  0.38680032
   0.55600923  0.55600923  0.38818214
   0.88853747  0.88853747  0.38859807
   0.22292504  0.88853747  0.38859807
   0.55600917  0.88798161  0.38818214
   0.00000000  0.00000000  0.47979312
   0.33303025  0.00772235  0.48110275
   0.65924735  0.00772235  0.48110275
   0.00772235  0.33303028  0.48110275
   0.65924741  0.33303028  0.48110275
   0.00772235  0.65924741  0.48110275
   0.33303025  0.65924741  0.48110275
   0.66666663  0.66666669  0.47960475
   0.33333331  0.33333334  0.47085305
   0.32177435  0.33078810  0.53694239
   0.10301485  0.10563736  0.54044379
   0.09366776  0.10159590  0.57779731
 
 position of ions in cartesian coordinates  (Angst):
   0.00000000  0.00000000  5.28218814
   2.93045535  0.00000000  5.28218814
   5.86091070  0.00000000  5.28218814
   1.46522781  2.53784900  5.28218814
   4.39568315  2.53784900  5.28218814
   7.32613904  2.53784900  5.28218814
   2.93045562  5.07569801  5.28218814
   5.86091096  5.07569801  5.28218814
   8.79136632  5.07569801  5.28218814
   1.46522770  0.84594965  7.67489535
   4.39568332  0.84594965  7.67489535
   7.32613893  0.84594965  7.67489535
   2.93045542  3.38379860  7.67489535
   5.86091083  3.38379860  7.67489535
   8.79136671  3.38379860  7.67489535
   4.39568328  5.92164760  7.67489535
   7.32613890  5.92164760  7.67489535
  10.25659451  5.92164760  7.67489535
   8.79136665  1.69725042 10.06773673
   2.92949678  1.69134583 10.02116094
   5.86186940  1.69134583 10.02116094
  10.25061229  4.23320226 10.05696105
   4.39568342  4.23085535 10.02116094
   7.33212139  4.23320226 10.05696105
  11.71718799  6.76492164 10.06773673
   5.86554504  6.76492164 10.06773673
   8.79136631  6.76068952 10.05696105
   0.00000000  0.00000000 12.43040361
   2.96173598  0.05879444 12.46433333
   5.82963007  0.05879444 12.46433333
   1.53178560  2.53554161 12.46433333
   7.25958124  2.53554161 12.46433333
   2.96573278  5.01921097 12.46433333
   5.82563380  5.01921097 12.46433333
   8.79136632  5.07569801 12.42552341
   4.39568315  2.53784900 12.19878570
   4.28287600  2.51847070 13.91101776
   1.36998969  0.80427501 14.00173168
   1.27005095  0.77350511 14.96948060
 


--------------------------------------------------------------------------------------------------------


 k-point   1 :   0.0000 0.0000 0.0000  plane waves:   43913
 k-point   2 :   0.1250 0.0000 0.0000  plane waves:   43928
 k-point   3 :   0.1250 0.1250 0.0000  plane waves:   43928
 k-point   4 :   0.0000 0.1250 0.0000  plane waves:   43928
 k-point   5 :   0.2500 0.0000 0.0000  plane waves:   43978
 k-point   6 :   0.2500 0.2500 0.0000  plane waves:   43978
 k-point   7 :   0.0000 0.2500 0.0000  plane waves:   43978
 k-point   8 :   0.3750 0.0000 0.0000  plane waves:   44020
 k-point   9 :   0.3750 0.3750 0.0000  plane waves:   44020
 k-point  10 :   0.0000 0.3750 0.0000  plane waves:   44020
 k-point  11 :   0.5000 0.0000 0.0000  plane waves:   44008
 k-point  12 :   0.5000 0.5000 0.0000  plane waves:   44008
 k-point  13 :   0.0000 0.5000 0.0000  plane waves:   44008
 k-point  14 :   0.2500 0.1250 0.0000  plane waves:   43994
 k-point  15 :   0.1250 0.2500 0.0000  plane waves:   43994
 k-point  16 :  -0.1250 0.1250 0.0000  plane waves:   43994
 k-point  17 :   0.3750 0.1250 0.0000  plane waves:   44042
 k-point  18 :   0.2500 0.3750 0.0000  plane waves:   44042
 k-point  19 :  -0.1250 0.2500 0.0000  plane waves:   44042
 k-point  20 :   0.2500-0.1250 0.0000  plane waves:   44042
 k-point  21 :  -0.1250-0.3750 0.0000  plane waves:   44042
 k-point  22 :  -0.3750-0.2500 0.0000  plane waves:   44042
 k-point  23 :   0.5000 0.1250 0.0000  plane waves:   44080
 k-point  24 :   0.3750 0.5000 0.0000  plane waves:   44080
 k-point  25 :  -0.1250 0.3750 0.0000  plane waves:   44080
 k-point  26 :   0.3750-0.1250 0.0000  plane waves:   44080
 k-point  27 :  -0.1250 0.5000 0.0000  plane waves:   44080
 k-point  28 :   0.5000-0.3750 0.0000  plane waves:   44080
 k-point  29 :   0.5000 0.2500 0.0000  plane waves:   44092
 k-point  30 :   0.2500 0.5000 0.0000  plane waves:   44092
 k-point  31 :  -0.2500 0.2500 0.0000  plane waves:   44092
 k-point  32 :  -0.3750 0.2500 0.0000  plane waves:   44050
 k-point  33 :   0.3750-0.3750 0.0000  plane waves:   44050
 k-point  34 :  -0.2500 0.3750 0.0000  plane waves:   44050

 maximum and minimum number of plane-waves per node :     44092    43913

 maximum number of plane-waves:     44092
 maximum index in each direction: 
   IXMAX=   16   IYMAX=   16   IZMAX=   47
   IXMIN=  -16   IYMIN=  -16   IZMIN=  -47


 serial   3D FFT for wavefunctions
 parallel 3D FFT for charge:
    minimum data exchange during FFTs selected (reduces bandwidth)


 total amount of memory used by VASP MPI-rank0   291401. kBytes
=======================================================================

   base      :      30000. kBytes
   nonlr-proj:      15331. kBytes
   fftplans  :       4948. kBytes
   grid      :      21313. kBytes
   one-center:        606. kBytes
   wavefun   :     219203. kBytes
 
     INWAV:  cpu time    0.0000: real time    0.0001
 initial charge density was supplied:
 number of electron     405.0000081 magnetization 
 keeping initial charge density in first step


--------------------------------------------------------------------------------------------------------


 Maximum index for non-local projection operator         2969
 Maximum index for augmentation-charges          696 (set IRDMAX)


--------------------------------------------------------------------------------------------------------


 First call to EWALD:  gamma=   0.148
 Maximum number of real-space cells 4x 4x 2
 Maximum number of reciprocal cells 2x 2x 5

    FEWALD:  cpu time    0.0012: real time    0.0013


--------------------------------------- Iteration      1(   1)  ---------------------------------------


    POTLOK:  cpu time    0.0474: real time    0.0477
    SETDIJ:  cpu time    0.0043: real time    0.0043
     EDDAV:  cpu time   36.4247: real time   36.4266
 BZINTS: Fermi energy:    6.904622;  405.000000 electrons
         Band energy: 0.436100E+03;  BLOECHL correction:   -0.030917
       DOS:  cpu time    0.0465: real time    0.0466
    --------------------------------------------
      LOOP:  cpu time   36.5229: real time   36.5252

 eigenvalue-minimisations  : 25676
 total energy-change (2. order) : 0.1979128E+04  (-0.1889924E+05)
 number of electron     405.0000081 magnetization 
 augmentation part      405.0000081 magnetization 

 Free energy of the ion-electron system (eV)
  ---------------------------------------------------
  alpha Z        PSCENC =       675.05522907
  Ewald energy   TEWEN  =    155470.65652542
  -Hartree energ DENC   =   -193298.67220785
  -exchange      EXHF   =         0.00000000
  -V(xc)+E(xc)   XCENC  =      -375.96438908
  PAW double counting   =     40273.23437078   -38682.31831947
  entropy T*S    EENTRO =         0.00000000
  eigenvalues    EBANDS =       436.10020298
  atomic energy  EATOM  =     37481.03675193
  Solvation  Ediel_sol  =         0.00000000
  ---------------------------------------------------
  free energy    TOTEN  =      1979.12816378 eV

  energy without entropy =     1979.12816378  energy(sigma->0) =     1979.12816378


--------------------------------------------------------------------------------------------------------




--------------------------------------- Iteration      1(   2)  ---------------------------------------


     EDDAV:  cpu time   35.0344: real time   35.0351
 BZINTS: Fermi energy:    0.600464;  405.000000 electrons
         Band energy:-0.160780E+04;  BLOECHL correction:   -0.039147
       DOS:  cpu time    0.0503: real time    0.0503
    --------------------------------------------
      LOOP:  cpu time   35.0847: real time   35.0854

 eigenvalue-minimisations  : 24192
 total energy-change (2. order) :-0.2043902E+04  (-0.2007296E+04)
 number of electron     405.0000081 magnetization 
 augmentation part      405.0000081 magnetization 

 Free energy of the ion-electron system (eV)
  ---------------------------------------------------
  alpha Z        PSCENC =       675.05522907
  Ewald energy   TEWEN  =    155470.65652542
  -Hartree energ DENC   =   -193298.67220785
  -exchange      EXHF   =         0.00000000
  -V(xc)+E(xc)   XCENC  =      -375.96438908
  PAW double counting   =     40273.23437078   -38682.31831947
  entropy T*S    EENTRO =         0.00000000
  eigenvalues    EBANDS =     -1607.80178774
  atomic energy  EATOM  =     37481.03675193
  Solvation  Ediel_sol  =         0.00000000
  ---------------------------------------------------
  free energy    TOTEN  =       -64.77382694 eV

  energy without entropy =      -64.77382694  energy(sigma->0) =      -64.77382694


--------------------------------------------------------------------------------------------------------




--------------------------------------- Iteration      1(   3)  ---------------------------------------


     EDDAV:  cpu time   35.6114: real time   35.6119
 BZINTS: Fermi energy:    0.142067;  405.000000 electrons
         Band energy:-0.165805E+04;  BLOECHL correction:   -0.034178
       DOS:  cpu time    0.0521: real time    0.0521
    --------------------------------------------
      LOOP:  cpu time   35.6635: real time   35.6640

 eigenvalue-minimisations  : 24612
 total energy-change (2. order) :-0.5024919E+02  (-0.4928291E+02)
 number of electron     405.0000081 magnetization 
 augmentation part      405.0000081 magnetization 

 Free energy of the ion-electron system (eV)
  ---------------------------------------------------
  alpha Z        PSCENC =       675.05522907
  Ewald energy   TEWEN  =    155470.65652542
  -Hartree energ DENC   =   -193298.67220785
  -exchange      EXHF   =         0.00000000
  -V(xc)+E(xc)   XCENC  =      -375.96438908
  PAW double counting   =     40273.23437078   -38682.31831947
  entropy T*S    EENTRO =         0.00000000
  eigenvalues    EBANDS =     -1658.05098111
  atomic energy  EATOM  =     37481.03675193
  Solvation  Ediel_sol  =         0.00000000
  ---------------------------------------------------
  free energy    TOTEN  =      -115.02302031 eV

  energy without entropy =     -115.02302031  energy(sigma->0) =     -115.02302031


--------------------------------------------------------------------------------------------------------




--------------------------------------- Iteration      1(   4)  ---------------------------------------


     EDDAV:  cpu time   29.1815: real time   29.1818
 BZINTS: Fermi energy:    0.132932;  405.000000 electrons
         Band energy:-0.165888E+04;  BLOECHL correction:   -0.033800
       DOS:  cpu time    0.0491: real time    0.0491
    --------------------------------------------
      LOOP:  cpu time   29.2306: real time   29.2309

 eigenvalue-minimisations  : 19320
 total energy-change (2. order) :-0.8326415E+00  (-0.8310546E+00)
 number of electron     405.0000081 magnetization 
 augmentation part      405.0000081 magnetization 

 Free energy of the ion-electron system (eV)
  ---------------------------------------------------
  alpha Z        PSCENC =       675.05522907
  Ewald energy   TEWEN  =    155470.65652542
  -Hartree energ DENC   =   -193298.67220785
  -exchange      EXHF   =         0.00000000
  -V(xc)+E(xc)   XCENC  =      -375.96438908
  PAW double counting   =     40273.23437078   -38682.31831947
  entropy T*S    EENTRO =         0.00000000
  eigenvalues    EBANDS =     -1658.88362258
  atomic energy  EATOM  =     37481.03675193
  Solvation  Ediel_sol  =         0.00000000
  ---------------------------------------------------
  free energy    TOTEN  =      -115.85566178 eV

  energy without entropy =     -115.85566178  energy(sigma->0) =     -115.85566178


--------------------------------------------------------------------------------------------------------




--------------------------------------- Iteration      1(   5)  ---------------------------------------


     EDDAV:  cpu time   33.2501: real time   33.2541
 BZINTS: Fermi energy:    0.132617;  405.000000 electrons
         Band energy:-0.165892E+04;  BLOECHL correction:   -0.033809
       DOS:  cpu time    0.0525: real time    0.0525
    --------------------------------------------
      LOOP:  cpu time   33.3026: real time   33.3066

 eigenvalue-minimisations  : 22596
 total energy-change (2. order) :-0.3355011E-01  (-0.3353352E-01)
 number of electron     405.0000081 magnetization 
 augmentation part      405.0000081 magnetization 

 Free energy of the ion-electron system (eV)
  ---------------------------------------------------
  alpha Z        PSCENC =       675.05522907
  Ewald energy   TEWEN  =    155470.65652542
  -Hartree energ DENC   =   -193298.67220785
  -exchange      EXHF   =         0.00000000
  -V(xc)+E(xc)   XCENC  =      -375.96438908
  PAW double counting   =     40273.23437078   -38682.31831947
  entropy T*S    EENTRO =         0.00000000
  eigenvalues    EBANDS =     -1658.91717270
  atomic energy  EATOM  =     37481.03675193
  Solvation  Ediel_sol  =         0.00000000
  ---------------------------------------------------
  free energy    TOTEN  =      -115.88921189 eV

  energy without entropy =     -115.88921189  energy(sigma->0) =     -115.88921189


--------------------------------------------------------------------------------------------------------




--------------------------------------- Iteration      1(   6)  ---------------------------------------


    EDDIAG:  cpu time    5.1501: real time    5.1505
  RMM-DIIS:  cpu time   19.8463: real time   19.8464
    ORTHCH:  cpu time    1.0107: real time    1.0107
 BZINTS: Fermi energy:    0.132614;  405.000000 electrons
         Band energy:-0.165892E+04;  BLOECHL correction:   -0.033809
       DOS:  cpu time    0.0525: real time    0.0525
    --------------------------------------------
      LOOP:  cpu time   26.0596: real time   26.0602

 eigenvalue-minimisations  : 21986
 total energy-change (2. order) :-0.1137534E-02  (-0.1137395E-02)
 number of electron     405.0000081 magnetization 
 augmentation part      405.0000081 magnetization 

 Free energy of the ion-electron system (eV)
  ---------------------------------------------------
  alpha Z        PSCENC =       675.05522907
  Ewald energy   TEWEN  =    155470.65652542
  -Hartree energ DENC   =   -193298.67220785
  -exchange      EXHF   =         0.00000000
  -V(xc)+E(xc)   XCENC  =      -375.96438908
  PAW double counting   =     40273.23437078   -38682.31831947
  entropy T*S    EENTRO =         0.00000000
  eigenvalues    EBANDS =     -1658.91831023
  atomic energy  EATOM  =     37481.03675193
  Solvation  Ediel_sol  =         0.00000000
  ---------------------------------------------------
  free energy    TOTEN  =      -115.89034943 eV

  energy without entropy =     -115.89034943  energy(sigma->0) =     -115.89034943


--------------------------------------------------------------------------------------------------------




--------------------------------------- Iteration      1(   7)  ---------------------------------------


    EDDIAG:  cpu time    5.1560: real time    5.1562
  RMM-DIIS:  cpu time   23.8181: real time   23.8184
    ORTHCH:  cpu time    0.9477: real time    0.9477
 BZINTS: Fermi energy:    0.132614;  405.000000 electrons
         Band energy:-0.165892E+04;  BLOECHL correction:   -0.033809
       DOS:  cpu time    0.0491: real time    0.0491
    --------------------------------------------
      LOOP:  cpu time   29.9709: real time   29.9714

 eigenvalue-minimisations  : 26645
 total energy-change (2. order) :-0.3511691E-03  (-0.3504793E-03)
 number of electron     405.0000081 magnetization 
 augmentation part      405.0000081 magnetization 

 Free energy of the ion-electron system (eV)
  ---------------------------------------------------
  alpha Z        PSCENC =       675.05522907
  Ewald energy   TEWEN  =    155470.65652542
  -Hartree energ DENC   =   -193298.67220785
  -exchange      EXHF   =         0.00000000
  -V(xc)+E(xc)   XCENC  =      -375.96438908
  PAW double counting   =     40273.23437078   -38682.31831947
  entropy T*S    EENTRO =         0.00000000
  eigenvalues    EBANDS =     -1658.91866140
  atomic energy  EATOM  =     37481.03675193
  Solvation  Ediel_sol  =         0.00000000
  ---------------------------------------------------
  free energy    TOTEN  =      -115.89070060 eV

  energy without entropy =     -115.89070060  energy(sigma->0) =     -115.89070060


--------------------------------------------------------------------------------------------------------




--------------------------------------- Iteration      1(   8)  ---------------------------------------


    EDDIAG:  cpu time    5.1590: real time    5.1592
  RMM-DIIS:  cpu time   26.4575: real time   26.4576
    ORTHCH:  cpu time    0.9599: real time    0.9599
 BZINTS: Fermi energy:    0.132613;  405.000000 electrons
         Band energy:-0.165892E+04;  BLOECHL correction:   -0.033809
       DOS:  cpu time    0.0503: real time    0.0503
    --------------------------------------------
      LOOP:  cpu time   32.6266: real time   32.6271

 eigenvalue-minimisations  : 28434
 total energy-change (2. order) :-0.8458353E-04  (-0.8440789E-04)
 number of electron     405.0000081 magnetization 
 augmentation part      405.0000081 magnetization 

 Free energy of the ion-electron system (eV)
  ---------------------------------------------------
  alpha Z        PSCENC =       675.05522907
  Ewald energy   TEWEN  =    155470.65652542
  -Hartree energ DENC   =   -193298.67220785
  -exchange      EXHF   =         0.00000000
  -V(xc)+E(xc)   XCENC  =      -375.96438908
  PAW double counting   =     40273.23437078   -38682.31831947
  entropy T*S    EENTRO =         0.00000000
  eigenvalues    EBANDS =     -1658.91874598
  atomic energy  EATOM  =     37481.03675193
  Solvation  Ediel_sol  =         0.00000000
  ---------------------------------------------------
  free energy    TOTEN  =      -115.89078518 eV

  energy without entropy =     -115.89078518  energy(sigma->0) =     -115.89078518


--------------------------------------------------------------------------------------------------------




--------------------------------------- Iteration      1(   9)  ---------------------------------------


    EDDIAG:  cpu time    5.1636: real time    5.1639
  RMM-DIIS:  cpu time   18.2918: real time   18.2920
    ORTHCH:  cpu time    0.9477: real time    0.9478
 BZINTS: Fermi energy:    0.132613;  405.000000 electrons
         Band energy:-0.165892E+04;  BLOECHL correction:   -0.033809
       DOS:  cpu time    0.0514: real time    0.0514
    --------------------------------------------
      LOOP:  cpu time   24.4545: real time   24.4550

 eigenvalue-minimisations  : 18180
 total energy-change (2. order) :-0.1619282E-04  (-0.1631905E-04)
 number of electron     405.0000081 magnetization 
 augmentation part      405.0000081 magnetization 

 Free energy of the ion-electron system (eV)
  ---------------------------------------------------
  alpha Z        PSCENC =       675.05522907
  Ewald energy   TEWEN  =    155470.65652542
  -Hartree energ DENC   =   -193298.67220785
  -exchange      EXHF   =         0.00000000
  -V(xc)+E(xc)   XCENC  =      -375.96438908
  PAW double counting   =     40273.23437078   -38682.31831947
  entropy T*S    EENTRO =         0.00000000
  eigenvalues    EBANDS =     -1658.91876218
  atomic energy  EATOM  =     37481.03675193
  Solvation  Ediel_sol  =         0.00000000
  ---------------------------------------------------
  free energy    TOTEN  =      -115.89080137 eV

  energy without entropy =     -115.89080137  energy(sigma->0) =     -115.89080137


--------------------------------------------------------------------------------------------------------




--------------------------------------- Iteration      1(  10)  ---------------------------------------


    EDDIAG:  cpu time    5.1575: real time    5.1578
  RMM-DIIS:  cpu time   14.5329: real time   14.5330
    ORTHCH:  cpu time    0.9532: real time    0.9532
 BZINTS: Fermi energy:    0.132613;  405.000000 electrons
         Band energy:-0.165892E+04;  BLOECHL correction:   -0.033809
       DOS:  cpu time    0.0491: real time    0.0491
    --------------------------------------------
      LOOP:  cpu time   20.6927: real time   20.6931

 eigenvalue-minimisations  : 13919
 total energy-change (2. order) :-0.2422865E-05  (-0.2439044E-05)
 number of electron     405.0000081 magnetization 
 augmentation part      405.0000081 magnetization 

 Free energy of the ion-electron system (eV)
  ---------------------------------------------------
  alpha Z        PSCENC =       675.05522907
  Ewald energy   TEWEN  =    155470.65652542
  -Hartree energ DENC   =   -193298.67220785
  -exchange      EXHF   =         0.00000000
  -V(xc)+E(xc)   XCENC  =      -375.96438908
  PAW double counting   =     40273.23437078   -38682.31831947
  entropy T*S    EENTRO =         0.00000000
  eigenvalues    EBANDS =     -1658.91876460
  atomic energy  EATOM  =     37481.03675193
  Solvation  Ediel_sol  =         0.00000000
  ---------------------------------------------------
  free energy    TOTEN  =      -115.89080380 eV

  energy without entropy =     -115.89080380  energy(sigma->0) =     -115.89080380


--------------------------------------------------------------------------------------------------------




 average (electrostatic) potential at core
  the test charge radii are     1.1249  1.1873  0.7215  0.5201
  (the norm of the test charge is              1.0000)
       1 -78.7528       2 -78.7329       3 -78.7416       4 -78.7325       5 -78.7242
       6 -78.7322       7 -78.7416       8 -78.7333       9 -78.7714      10 -78.9777
      11 -78.9672      12 -78.9767      13 -78.9670      14 -78.9672      15 -78.9628
      16 -78.9779      17 -78.9633      18 -78.9789      19 -78.9283      20 -79.1626
      21 -79.1791      22 -78.9319      23 -79.1732      24 -78.9446      25 -78.9314
      26 -78.9287      27 -78.9304      28 -78.6237      29 -78.5941      30 -78.6964
      31 -78.5962      32 -78.7326      33 -78.6983      34 -78.7312      35 -78.6512
      36 -47.7715      37 -77.0602      38 -75.2222      39 -39.5194
 
 
 
 E-fermi :   0.1326     XC(G=0):  -5.1865     alpha+bet : -4.8599

 Fermi energy:         0.1326133550

 k-point     1 :       0.0000    0.0000    0.0000
  band No.  band energies     occupation 
      1     -19.1862      2.00000
      2     -18.8698      2.00000
      3      -7.4345      2.00000
      4      -6.9964      2.00000
      5      -6.2812      2.00000
      6      -6.0064      2.00000
      7      -5.9055      2.00000
      8      -5.8240      2.00000
      9      -5.8193      2.00000
     10      -5.7417      2.00000
     11      -5.7123      2.00000
     12      -5.7104      2.00000
     13      -5.6946      2.00000
     14      -5.6715      2.00000
     15      -5.6657      2.00000
     16      -5.6619      2.00000
     17      -5.6442      2.00000
     18      -5.6425      2.00000
     19      -5.6298      2.00000
     20      -5.6078      2.00000
     21      -5.6066      2.00000
     22      -5.5668      2.00000
     23      -5.4898      2.00000
     24      -5.4777      2.00000
     25      -5.4729      2.00000
     26      -5.3999      2.00000
     27      -5.3859      2.00000
     28      -5.3835      2.00000
     29      -5.3205      2.00000
     30      -5.3031      2.00000
     31      -5.2917      2.00000
     32      -5.2862      2.00000
     33      -5.2782      2.00000
     34      -5.2756      2.00000
     35      -5.2655      2.00000
     36      -5.2452      2.00000
     37      -5.2379      2.00000
     38      -5.2258      2.00000
     39      -5.2085      2.00000
     40      -5.1857      2.00000
     41      -5.1660      2.00000
     42      -5.1371      2.00000
     43      -5.1237      2.00000
     44      -5.0833      2.00000
     45      -5.0803      2.00000
     46      -5.0048      2.00000
     47      -4.9205      2.00000
     48      -4.9087      2.00000
     49      -4.8953      2.00000
     50      -4.8891      2.00000
     51      -4.8769      2.00000
     52      -4.8705      2.00000
     53      -4.8679      2.00000
     54      -4.8323      2.00000
[...]
  0.000   0.000   0.000   0.000   0.000   0.000   0.000   0.000   0.000   0.000   1.000   0.000   0.000   0.000   0.000   0.000
  0.000   0.000   0.000   0.000   0.000   0.000   0.000   0.000   0.000   0.000   0.000   0.000   0.000   0.000   0.000   0.000
  0.000   0.000   0.000   0.000   0.000   0.000   0.000   0.000   0.000   0.000   0.000   0.000   0.000   0.000   0.000   0.000
  0.000   0.000   0.000   0.000   0.000   0.000   0.000   0.000   0.000   0.000   0.000   0.000   0.000   0.000   0.000   0.000
  0.000   0.000   0.000   0.000   0.000   0.000   0.000   0.000   0.000   0.000   0.000   0.000   0.000   0.000   0.000   0.000
  0.000   0.000   0.000   0.000   0.000   0.000   0.000   0.000   0.000   0.000   0.000   0.000   0.000   0.000   0.000   0.000
  0.000   0.000   0.000   0.000   0.000   0.000   0.000   0.000   0.000   0.000   0.000   0.000   0.000   0.000   0.000   0.000
  0.000   0.000   0.000   0.000   0.000   0.000   0.000   0.000   0.000   0.000   0.000   0.000   0.000   0.000   0.000   0.000


------------------------ aborting loop because EDIFF is reached ----------------------------------------





 total charge

# of ion       s       p       d       tot
------------------------------------------
    1        0.419   0.200   9.179   9.798
    2        0.416   0.203   9.178   9.797
    3        0.416   0.204   9.177   9.797
    4        0.417   0.203   9.178   9.797
    5        0.420   0.202   9.176   9.798
    6        0.416   0.204   9.177   9.797
    7        0.416   0.204   9.177   9.797
    8        0.416   0.204   9.177   9.797
    9        0.412   0.204   9.178   9.793
   10        0.410   0.267   9.165   9.842
   11        0.404   0.273   9.166   9.843
   12        0.413   0.266   9.164   9.844
   13        0.404   0.273   9.166   9.843
   14        0.401   0.274   9.168   9.843
   15        0.404   0.268   9.165   9.838
   16        0.413   0.267   9.164   9.843
   17        0.404   0.269   9.165   9.838
   18        0.400   0.273   9.162   9.835
   19        0.406   0.264   9.165   9.836
   20        0.438   0.314   9.130   9.883
   21        0.445   0.306   9.136   9.887
   22        0.390   0.277   9.165   9.831
   23        0.444   0.307   9.135   9.886
   24        0.391   0.275   9.167   9.833
   25        0.401   0.268   9.162   9.832
   26        0.406   0.264   9.165   9.835
   27        0.390   0.277   9.165   9.832
   28        0.378   0.240   9.181   9.798
   29        0.374   0.240   9.187   9.802
   30        0.411   0.219   9.176   9.807
   31        0.374   0.243   9.187   9.803
   32        0.409   0.216   9.182   9.806
   33        0.410   0.218   9.178   9.806
   34        0.408   0.215   9.183   9.806
   35        0.412   0.194   9.183   9.789
   36        0.620   0.545   4.826   5.991
   37        1.609   3.300   0.000   4.909
   38        1.557   3.490   0.000   5.047
   39        0.616   0.120   0.000   0.736
--------------------------------------------------
tot         18.689  16.052 325.753 360.495
 
    CHARGE:  cpu time    1.2434: real time    1.2436
    FORLOC:  cpu time    0.0230: real time    0.0230
    FORNL :  cpu time    5.4406: real time    5.4408
    STRESS:  cpu time   16.3160: real time   16.3163
    FORCOR:  cpu time    0.0541: real time    0.0542
    FORHAR:  cpu time    0.0182: real time    0.0183
    OFIELD:  cpu time    0.0003: real time    0.0003

  FORCE on cell =-STRESS in cart. coord.  units (eV):
  Direction    XX          YY          ZZ          XY          YZ          ZX
  --------------------------------------------------------------------------------------
  Alpha Z   675.05523   675.05523   675.05523
  Ewald  178252.86818178191.70247************    58.26770    -1.26483    -8.14883
  Hartree188278.23119188229.89809************    46.61331     2.65361     7.24949
  E(xc)   -2124.72894 -2124.76791 -2128.56740     0.03730    -0.01784    -0.07919
  Local  ************************377647.87866  -104.59709    -2.19740    -2.83982
  n-local  -389.01196  -388.82144  -386.01489    -0.19017    -0.07925    -0.66863
  augment  3243.15646  3243.20569  3248.25296    -0.00968    -0.00959     0.23283
  Kinetic  5151.95667  5152.06654  5119.51580     0.09475     0.78601     4.04819
  Fock        0.00000     0.00000     0.00000     0.00000     0.00000     0.00000
  -------------------------------------------------------------------------------------
  Total      -4.10926    -4.36580    -0.51081     0.21613    -0.12929    -0.20596
  in kB      -3.79665    -4.03367    -0.47195     0.19969    -0.11946    -0.19029
  external pressure =       -2.77 kB  Pullay stress =        0.00 kB


 VOLUME and BASIS-vectors are now :
 -----------------------------------------------------------------------------
  energy-cutoff  :      500.00
  volume of cell :     1734.10
      direct lattice vectors                 reciprocal lattice vectors
     8.791366577  0.000000000  0.000000000     0.113747958 -0.065672414  0.000000000
     4.395683289  7.613546790  0.000000000     0.000000000  0.131344829  0.000000000
     0.000000000  0.000000000 25.907840602     0.000000000  0.000000000  0.038598354

  length of vectors
     8.791366577  8.791366577 25.907840602     0.131344829  0.131344829  0.038598354


 FORCES acting on ions
    electron-ion (+dipol)            ewald-force                    non-local-force                 convergence-correction
 -----------------------------------------------------------------------------------------------
   0.196E+00 0.119E+00 0.282E+04   -.206E+00 -.117E+00 -.281E+04   -.227E-01 -.149E-01 -.191E+01   0.337E-01 0.145E-01 -.124E+00
   0.434E-01 0.541E+00 0.282E+04   -.213E+00 -.612E+00 -.281E+04   0.100E+00 0.939E-01 -.157E+01   0.698E-01 -.147E-01 -.119E+00
   -.246E+00 0.401E+00 0.282E+04   0.420E+00 -.526E+00 -.281E+04   -.710E-01 0.162E+00 -.165E+01   -.102E+00 -.295E-01 -.112E+00
   0.485E+00 -.231E+00 0.282E+04   -.638E+00 0.113E+00 -.281E+04   0.134E+00 0.403E-01 -.157E+01   0.255E-01 0.715E-01 -.118E+00
   -.110E+00 -.700E-01 0.282E+04   0.175E+00 0.924E-01 -.282E+04   -.167E-01 -.132E-03 -.157E+01   -.400E-01 -.181E-01 -.109E+00
   -.362E+00 -.364E-02 0.282E+04   0.463E+00 -.239E-01 -.281E+04   -.142E+00 -.355E-01 -.156E+01   0.245E-01 0.639E-01 -.152E+00
   0.222E+00 -.420E+00 0.282E+04   -.247E+00 0.634E+00 -.281E+04   0.104E+00 -.141E+00 -.166E+01   -.728E-01 -.745E-01 -.111E+00
   -.184E+00 -.320E+00 0.282E+04   0.218E+00 0.415E+00 -.281E+04   -.102E+00 -.102E+00 -.158E+01   0.615E-01 -.867E-02 -.153E+00
   -.398E-01 -.184E-01 0.282E+04   0.290E-01 0.234E-01 -.281E+04   0.115E-01 -.209E-02 -.192E+01   -.343E-03 -.239E-02 -.117E+00
   0.564E+01 0.329E+01 0.995E+03   -.521E+01 -.304E+01 -.995E+03   -.470E+00 -.265E+00 -.830E+00   0.248E-01 0.125E-01 0.153E+00
   -.164E+01 0.485E+01 0.997E+03   0.159E+01 -.506E+01 -.997E+03   0.810E-01 0.181E+00 -.372E+00   -.290E-01 -.276E-01 0.191E+00
   -.393E+01 0.319E+01 0.992E+03   0.362E+01 -.298E+01 -.991E+03   0.317E+00 -.211E+00 -.711E+00   0.793E-02 -.144E-01 0.194E+00
   0.335E+01 -.380E+01 0.997E+03   -.356E+01 0.386E+01 -.997E+03   0.208E+00 -.286E-01 -.383E+00   -.364E-01 -.668E-02 0.187E+00
   -.413E+01 -.236E+01 0.995E+03   0.441E+01 0.251E+01 -.995E+03   -.213E+00 -.114E+00 -.244E+00   -.131E-01 0.504E-03 0.181E+00
   0.757E+00 -.358E+00 0.992E+03   -.848E+00 0.149E+00 -.991E+03   0.196E-01 0.904E-01 -.712E+00   0.620E-01 0.851E-01 0.160E+00
   0.765E+00 -.505E+01 0.992E+03   -.738E+00 0.468E+01 -.991E+03   -.275E-01 0.393E+00 -.730E+00   -.710E-02 0.861E-02 0.193E+00
   0.512E-01 0.789E+00 0.992E+03   -.268E+00 -.760E+00 -.991E+03   0.842E-01 -.305E-01 -.720E+00   0.987E-01 0.989E-02 0.158E+00
   -.810E+00 -.527E+00 0.991E+03   0.101E+01 0.644E+00 -.990E+03   -.718E-01 -.428E-01 -.808E+00   -.872E-01 -.545E-01 0.149E+00
   0.122E+02 -.734E+01 -.848E+03   -.120E+02 0.730E+01 0.848E+03   -.139E+00 0.139E-01 0.229E+00   0.180E-01 0.231E-01 0.355E+00
   -.711E+01 -.363E+01 -.814E+03   0.819E+01 0.425E+01 0.815E+03   -.120E+01 -.690E+00 -.117E+01   -.943E-02 -.167E-02 0.391E+00
   -.446E+01 0.801E+00 -.836E+03   0.326E+01 -.587E-02 0.836E+03   0.136E+01 -.794E+00 -.793E+00   -.171E-01 -.621E-01 0.387E+00
   -.753E+00 -.850E+01 -.855E+03   0.420E+00 0.849E+01 0.854E+03   0.433E+00 -.164E+00 0.578E+00   -.587E-01 0.412E-01 0.311E+00
   -.192E+01 -.429E+01 -.835E+03   0.202E+01 0.279E+01 0.835E+03   -.196E-01 0.163E+01 -.808E+00   -.641E-01 0.174E-01 0.386E+00
   0.262E+01 0.147E+01 -.859E+03   -.247E+01 -.137E+01 0.858E+03   -.290E+00 -.176E+00 0.758E+00   0.104E+00 0.586E-01 0.308E+00
   0.837E+01 0.452E+01 -.866E+03   -.813E+01 -.439E+01 0.865E+03   -.128E+00 -.620E-01 0.384E+00   -.161E-01 -.120E-01 0.337E+00
   -.609E+00 0.140E+02 -.849E+03   0.642E+00 -.139E+02 0.848E+03   -.511E-01 -.116E+00 0.230E+00   0.229E-01 0.268E-02 0.352E+00
   -.766E+01 0.319E+01 -.856E+03   0.749E+01 -.344E+01 0.855E+03   0.638E-01 0.428E+00 0.591E+00   0.870E-02 -.734E-01 0.310E+00
   0.114E+03 0.664E+02 -.257E+04   -.115E+03 -.671E+02 0.257E+04   0.587E+00 0.357E+00 0.139E+01   0.159E-01 0.936E-02 0.193E+00
   -.925E+02 0.934E+02 -.259E+04   0.943E+02 -.935E+02 0.259E+04   -.162E+01 -.412E+00 0.234E+01   0.186E-02 -.109E-01 0.132E+00
   -.190E+02 0.392E+02 -.269E+04   0.186E+02 -.387E+02 0.269E+04   0.529E+00 -.803E+00 0.207E+01   -.192E-01 0.369E-02 0.121E+00
   0.355E+02 -.126E+03 -.259E+04   -.348E+02 0.128E+03 0.258E+04   -.109E+01 -.108E+01 0.223E+01   -.111E-01 0.104E-01 0.132E+00
   -.133E+01 -.219E+02 -.269E+04   -.394E+00 0.225E+02 0.268E+04   0.182E+01 -.401E+00 0.239E+01   0.841E-01 -.390E-02 0.138E+00
   0.258E+02 -.396E+02 -.269E+04   -.256E+02 0.393E+02 0.269E+04   -.352E+00 0.704E+00 0.215E+01   -.640E-02 -.195E-01 0.122E+00
   -.218E+02 0.819E+01 -.269E+04   0.215E+02 -.984E+01 0.268E+04   0.499E+00 0.170E+01 0.240E+01   0.340E-01 0.723E-01 0.137E+00
   -.413E+01 -.351E+01 -.269E+04   0.410E+01 0.348E+01 0.269E+04   0.523E-01 0.467E-01 0.198E+01   -.498E-02 -.778E-02 0.141E+00
   -.311E+02 -.126E+02 -.145E+04   0.313E+02 0.127E+02 0.145E+04   0.795E-01 0.595E-01 0.110E+01   -.296E-01 -.163E-01 0.814E-01
   -.309E+02 -.177E+02 -.183E+04   0.287E+02 0.172E+02 0.187E+04   0.217E+01 0.527E+00 -.337E+02   -.463E-02 -.544E-02 -.112E+00
   0.157E+02 0.111E+02 -.181E+04   -.103E+02 -.920E+01 0.179E+04   -.533E+01 -.185E+01 0.261E+02   -.253E-01 -.973E-02 -.222E-01
   0.111E+02 0.417E+01 -.365E+03   -.120E+02 -.442E+01 0.373E+03   0.804E+00 0.243E+00 -.806E+01   -.147E-03 -.123E-04 -.132E-01
 -----------------------------------------------------------------------------------------------
   0.184E+01 0.869E+00 0.135E+02   -.480E-13 -.211E-12 0.119E-11   -.190E+01 -.871E+00 -.181E+02   0.432E-01 0.312E-01 0.463E+01
 
 
 POSITION                                       TOTAL-FORCE (eV/Angst)
 -----------------------------------------------------------------------------------
      0.00000      0.00000      5.28219         0.000752      0.000408     -0.049518
      2.93046      0.00000      5.28219         0.000307      0.007884      0.022811
      5.86091      0.00000      5.28219         0.000628      0.006972      0.031771
      1.46523      2.53785      5.28219         0.006831     -0.006568      0.021565
      4.39568      2.53785      5.28219         0.009031      0.003337      0.006703
      7.32614      2.53785      5.28219        -0.016312      0.000109      0.032062
      2.93046      5.07570      5.28219         0.006683     -0.002814      0.031187
      5.86091      5.07570      5.28219        -0.006010     -0.015728      0.031973
      8.79137      5.07570      5.28219         0.000603     -0.000213      0.024902
      1.46523      0.84595      7.67490        -0.016654     -0.009431     -0.045402
      4.39568      0.84595      7.67490        -0.000251     -0.055089     -0.075635
      7.32614      0.84595      7.67490         0.018253     -0.017300     -0.045095
      2.93046      3.38380      7.67490        -0.046720      0.025682     -0.076660
      5.86091      3.38380      7.67490         0.060228      0.033829     -0.055480
      8.79137      3.38380      7.67490        -0.009174     -0.034041     -0.003666
      4.39568      5.92165      7.67490        -0.006903      0.023677     -0.041920
      7.32614      5.92165      7.67490        -0.034079      0.007069     -0.003427
     10.25659      5.92165      7.67490         0.037296      0.018876      0.060707
      8.79137      1.69725     10.06774         0.013732     -0.002264      0.017075
      2.92950      1.69135     10.02116        -0.135264     -0.076164     -0.045722
      5.86187      1.69135     10.02116         0.144901     -0.062148     -0.153721
     10.25061      4.23320     10.05696         0.041746     -0.129138      0.088989
      4.39568      4.23086     10.02116         0.017195      0.143673     -0.137207
      7.33212      4.23320     10.05696        -0.034193     -0.021618      0.029065
     11.71719      6.76492     10.06774         0.100204      0.058359      0.130875
      5.86555      6.76492     10.06774         0.005232      0.013409      0.021747
      8.79137      6.76069     10.05696        -0.088455      0.098125      0.084999
      0.00000      0.00000     12.43040        -0.532835     -0.312945     -0.036064
      2.96174      0.05879     12.46433         0.232176     -0.577823     -0.143672
      5.82963      0.05879     12.46433         0.166824     -0.327999     -0.263011
      1.53179      2.53554     12.46433        -0.405015      0.494266     -0.161093
      7.25958      2.53554     12.46433         0.188199      0.125613     -0.296455
      2.96573      5.01921     12.46433        -0.218819      0.342773     -0.272315
      5.82563      5.01921     12.46433         0.221657      0.116140     -0.301027
      8.79137      5.07570     12.42552         0.012230      0.008680     -0.009604
      4.39568      2.53785     12.19879         0.270346      0.125364      1.586851
      4.28288      2.51847     13.91102        -0.001757      0.004791      0.015179
      1.36999      0.80428     14.00173        -0.002314     -0.001401     -0.017896
      1.27005      0.77351     14.96948        -0.000299     -0.006352     -0.003873
 -----------------------------------------------------------------------------------
    total drift:                               -0.011374      0.029292      0.016781


--------------------------------------------------------------------------------------------------------



  FREE ENERGIE OF THE ION-ELECTRON SYSTEM (eV)
  ---------------------------------------------------
  free  energy   TOTEN  =      -115.89080380 eV

  energy  without entropy=     -115.89080380  energy(sigma->0) =     -115.89080380
 


--------------------------------------------------------------------------------------------------------


    POTLOK:  cpu time    0.0453: real time    0.0453


--------------------------------------------------------------------------------------------------------


 stress matrix after NEB project (eV)
     -4.10926      0.21613     -0.20596
      0.21613     -4.36580     -0.12929
     -0.20596     -0.12929     -0.51081
  FORCES: max atom, RMS     0.018099    0.004049
  FORCE total and by dimension    0.025288    0.017896
  Stress total and by dimension    6.034807    4.365801
     LOOP+:  cpu time  326.8570: real time  326.8720
 -----------------------------------------------------------------------------
|                                                                             |
|           W    W    AA    RRRRR   N    N  II  N    N   GGGG   !!!           |
|           W    W   A  A   R    R  NN   N  II  NN   N  G    G  !!!           |
|           W    W  A    A  R    R  N N  N  II  N N  N  G       !!!           |
|           W WW W  AAAAAA  RRRRR   N  N N  II  N  N N  G  GGG   !            |
|           WW  WW  A    A  R   R   N   NN  II  N   NN  G    G                |
|           W    W  A    A  R    R  N    N  II  N    N   GGGG   !!!           |
|                                                                             |
|     Tetrahedron method does not include variations of the Fermi             |
|     occupations, so forces and stress will be inaccurate. We suggest        |
|     using a different smearing scheme ISMEAR = 1 or 2 for metals in         |
|     relaxations.                                                            |
|                                                                             |
 -----------------------------------------------------------------------------

    4ORBIT:  cpu time    0.0000: real time    0.0000



 total charge

# of ion       s       p       d       tot
------------------------------------------
    1        0.419   0.200   9.179   9.798
    2        0.416   0.203   9.178   9.797
    3        0.416   0.204   9.177   9.797
    4        0.417   0.203   9.178   9.797
    5        0.420   0.202   9.176   9.798
    6        0.416   0.204   9.177   9.797
    7        0.416   0.204   9.177   9.797
    8        0.416   0.204   9.177   9.797
    9        0.412   0.204   9.178   9.793
   10        0.410   0.267   9.165   9.842
   11        0.404   0.273   9.166   9.843
   12        0.413   0.266   9.164   9.844
   13        0.404   0.273   9.166   9.843
   14        0.401   0.274   9.168   9.843
   15        0.404   0.268   9.165   9.838
   16        0.413   0.267   9.164   9.843
   17        0.404   0.269   9.165   9.838
   18        0.400   0.273   9.162   9.835
   19        0.406   0.264   9.165   9.836
   20        0.438   0.314   9.130   9.883
   21        0.445   0.306   9.136   9.887
   22        0.390   0.277   9.165   9.831
   23        0.444   0.307   9.135   9.886
   24        0.391   0.275   9.167   9.833
   25        0.401   0.268   9.162   9.832
   26        0.406   0.264   9.165   9.835
   27        0.390   0.277   9.165   9.832
   28        0.378   0.240   9.181   9.798
   29        0.374   0.240   9.187   9.802
   30        0.411   0.219   9.176   9.807
   31        0.374   0.243   9.187   9.803
   32        0.409   0.216   9.182   9.806
   33        0.410   0.218   9.178   9.806
   34        0.408   0.215   9.183   9.806
   35        0.412   0.194   9.183   9.789
   36        0.620   0.545   4.826   5.991
   37        1.609   3.300   0.000   4.909
   38        1.557   3.490   0.000   5.047
   39        0.616   0.120   0.000   0.736
--------------------------------------------------
tot         18.689  16.052 325.753 360.495
 
 BZINTS: Fermi energy:    0.132613;  405.000000 electrons
         Band energy:-0.165892E+04;  BLOECHL correction:   -0.033809

 total amount of memory used by VASP MPI-rank0   291401. kBytes
=======================================================================

   base      :      30000. kBytes
   nonlr-proj:      15331. kBytes
   fftplans  :       4948. kBytes
   grid      :      21313. kBytes
   one-center:        606. kBytes
   wavefun   :     219203. kBytes
 
  
  
 General timing and accounting informations for this job:
 ========================================================
  
                  Total CPU time used (sec):      348.343
                            User time (sec):      337.709
                          System time (sec):       10.634
                         Elapsed time (sec):      348.846
  
                   Maximum memory used (kb):      595440.
                   Average memory used (kb):          N/A
  
                          Minor page faults:       200143
                          Major page faults:            0
                 Voluntary context switches:         7510
