 vasp.6.2.0 18Jan21 (build Jun 12 2021 23:27:24) complex                        
  
 executed on             LinuxIFC date 2022.05.28  02:32:55
 running on   28 total cores
 distrk:  each k-point on   28 cores,    1 groups
 distr:  one band on NCORE=   1 cores,   28 groups


--------------------------------------------------------------------------------------------------------


 INCAR:
   ISMEAR = -5
   SIGMA = 0.1
   ISPIN = 1
   EDIFF = 1.d-5
   EDIFFG = -0.01
   NSW = 0
   NELM = 150
   ENCUT = 500
   ISIF = 2
   IBRION = 2
   LREAL = Auto
   ALGO = Fast
   ICHARG = 11
   LORBIT = 10
   LCHARG = .F.
   LWAVE = .F.

 POTCAR:    PAW_PBE Cu 22Jun2005                  
 POTCAR:    PAW_PBE Nb_sv 25May2007               
 POTCAR:    PAW_PBE O 08Apr2002                   
 POTCAR:    PAW_PBE H 15Jun2001                   
 -----------------------------------------------------------------------------
|                                                                             |
|           W    W    AA    RRRRR   N    N  II  N    N   GGGG   !!!           |
|           W    W   A  A   R    R  NN   N  II  NN   N  G    G  !!!           |
|           W    W  A    A  R    R  N N  N  II  N N  N  G       !!!           |
|           W WW W  AAAAAA  RRRRR   N  N N  II  N  N N  G  GGG   !            |
|           WW  WW  A    A  R   R   N   NN  II  N   NN  G    G                |
|           W    W  A    A  R    R  N    N  II  N    N   GGGG   !!!           |
|                                                                             |
|     For optimal performance we recommend to set                             |
|       NCORE = 2 up to number-of-cores-per-socket                            |
|     NCORE specifies how many cores store one orbital (NPAR=cpu/NCORE).      |
|     This setting can greatly improve the performance of VASP for DFT.       |
|     The default, NCORE=1 might be grossly inefficient on modern             |
|     multi-core architectures or massively parallel machines. Do your        |
|     own testing! More info at https://www.vasp.at/wiki/index.php/NCORE      |
|     Unfortunately you need to use the default for GW and RPA                |
|     calculations (for HF NCORE is supported but not extensively tested      |
|     yet).                                                                   |
|                                                                             |
 -----------------------------------------------------------------------------

 POTCAR:    PAW_PBE Cu 22Jun2005                  
   VRHFIN =Cu: d10 p1                                                                               
   LEXCH  = PE                                                                                      
   EATOM  =  1390.9808 eV,  102.2342 Ry                                                             
                                                                                                    
   TITEL  = PAW_PBE Cu 22Jun2005                                                                    
   LULTRA =        F    use ultrasoft PP ?                                                          
   IUNSCR =        1    unscreen: 0-lin 1-nonlin 2-no                                               
   RPACOR =    2.000    partial core radius                                                         
   POMASS =   63.546; ZVAL   =   11.000    mass and valenz                                          
   RCORE  =    2.300    outmost cutoff radius                                                       
   RWIGS  =    2.200; RWIGS  =    1.164    wigner-seitz radius (au A)                               
   ENMAX  =  295.446; ENMIN  =  221.585 eV                                                          
   ICORE  =        3    local potential                                                             
   LCOR   =        T    correct aug charges                                                         
   LPAW   =        T    paw PP                                                                      
   EAUG   =  586.980                                                                                
   DEXC   =    0.000                                                                                
   RMAX   =    2.344    core radius for proj-oper                                                   
   RAUG   =    1.300    factor for augmentation sphere                                              
   RDEP   =    2.302    radius for radial grids                                                     
   RDEPT  =    1.771    core radius for aug-charge                                                  
                                                                                                    
   Atomic configuration                                                                             
    9 entries                                                                                       
     n  l   j            E        occ.                                                              
     1  0  0.50     -8850.2468   2.0000                                                             
     2  0  0.50     -1062.3498   2.0000                                                             
     2  1  1.50      -916.8226   6.0000                                                             
     3  0  0.50      -114.6929   2.0000                                                             
     3  1  1.50       -72.1325   6.0000                                                             
     3  2  2.50        -5.0394  10.0000                                                             
     4  0  0.50        -4.6097   1.0000                                                             
     4  1  0.50        -4.0817   0.0000                                                             
     4  3  2.50        -1.3606   0.0000                                                             
   Description                                                                                      
     l       E           TYP  RCUT    TYP  RCUT                                                     
     2     -5.0393973     23  2.200                                                                 
     2     10.8846608     23  2.200                                                                 
     0     -4.6097109     23  2.200                                                                 
     0      8.2520465     23  2.200                                                                 
     1     -2.7211652     23  2.200                                                                 
     1     21.7055443     23  2.200                                                                 
     3      2.7211652     23  2.300                                                                 
  local pseudopotential read in
  partial core-charges read in
  partial kinetic energy density read in
  atomic valenz-charges read in
  non local Contribution for L=           2  read in
    real space projection operators read in
  non local Contribution for L=           2  read in
    real space projection operators read in
  non local Contribution for L=           0  read in
    real space projection operators read in
  non local Contribution for L=           0  read in
    real space projection operators read in
  non local Contribution for L=           1  read in
    real space projection operators read in
  non local Contribution for L=           1  read in
    real space projection operators read in
    PAW grid and wavefunctions read in
 
   number of l-projection  operators is LMAX  =           6
   number of lm-projection operators is LMMAX =          18
 
 POTCAR:    PAW_PBE Nb_sv 25May2007               
   VRHFIN =Nb: 4p5s4d                                                                               
   LEXCH  = PE                                                                                      
   EATOM  =  1555.1913 eV,  114.3033 Ry                                                             
                                                                                                    
   TITEL  = PAW_PBE Nb_sv 25May2007                                                                 
   LULTRA =        F    use ultrasoft PP ?                                                          
   IUNSCR =        1    unscreen: 0-lin 1-nonlin 2-no                                               
   RPACOR =    1.800    partial core radius                                                         
   POMASS =   92.910; ZVAL   =   13.000    mass and valenz                                          
   RCORE  =    2.400    outmost cutoff radius                                                       
   RWIGS  =    2.400; RWIGS  =    1.270    wigner-seitz radius (au A)                               
   ENMAX  =  293.235; ENMIN  =  219.927 eV                                                          
   ICORE  =        3    local potential                                                             
   LCOR   =        T    correct aug charges                                                         
   LPAW   =        T    paw PP                                                                      
   EAUG   =  455.659                                                                                
   DEXC   =    0.000                                                                                
   RMAX   =    2.456    core radius for proj-oper                                                   
   RAUG   =    1.300    factor for augmentation sphere                                              
   RDEP   =    2.451    radius for radial grids                                                     
   RDEPT  =    1.956    core radius for aug-charge                                                  
                                                                                                    
   Atomic configuration                                                                             
   11 entries                                                                                       
     n  l   j            E        occ.                                                              
     1  0  0.50    -18805.2457   2.0000                                                             
     2  0  0.50     -2630.2869   2.0000                                                             
     2  1  1.50     -2348.4046   6.0000                                                             
     3  0  0.50      -438.8757   2.0000                                                             
     3  1  1.50      -346.7588   6.0000                                                             
     3  2  2.50      -196.2560  10.0000                                                             
     4  0  0.50       -58.3859   2.0000                                                             
     5  0  0.50        -3.9816   1.0000                                                             
     4  1  1.50       -34.5141   6.0000                                                             
     4  2  2.50        -3.0408   4.0000                                                             
     4  3  2.50        -1.3606   0.0000                                                             
   Description                                                                                      
     l       E           TYP  RCUT    TYP  RCUT                                                     
     0    -58.3859094     23  2.200                                                                 
     0     -3.9816262     23  2.200                                                                 
     1    -34.5140738     23  2.200                                                                 
     1     13.6058260     23  2.200                                                                 
     2     -3.0408010     23  2.200                                                                 
     2     -0.1283038     23  2.200                                                                 
     3     -1.3605826     23  2.400                                                                 
  local pseudopotential read in
  partial core-charges read in
  partial kinetic energy density read in
  atomic valenz-charges read in
  non local Contribution for L=           0  read in
    real space projection operators read in
  non local Contribution for L=           0  read in
    real space projection operators read in
  non local Contribution for L=           1  read in
    real space projection operators read in
  non local Contribution for L=           1  read in
    real space projection operators read in
  non local Contribution for L=           2  read in
    real space projection operators read in
  non local Contribution for L=           2  read in
    real space projection operators read in
    PAW grid and wavefunctions read in
 
   number of l-projection  operators is LMAX  =           6
   number of lm-projection operators is LMMAX =          18
 
 POTCAR:    PAW_PBE O 08Apr2002                   
   VRHFIN =O: s2p4                                                                                  
   LEXCH  = PE                                                                                      
   EATOM  =   432.3788 eV,   31.7789 Ry                                                             
                                                                                                    
   TITEL  = PAW_PBE O 08Apr2002                                                                     
   LULTRA =        F    use ultrasoft PP ?                                                          
   IUNSCR =        1    unscreen: 0-lin 1-nonlin 2-no                                               
   RPACOR =    1.200    partial core radius                                                         
   POMASS =   16.000; ZVAL   =    6.000    mass and valenz                                          
   RCORE  =    1.520    outmost cutoff radius                                                       
   RWIGS  =    1.550; RWIGS  =    0.820    wigner-seitz radius (au A)                               
   ENMAX  =  400.000; ENMIN  =  300.000 eV                                                          
   ICORE  =        2    local potential                                                             
   LCOR   =        T    correct aug charges                                                         
   LPAW   =        T    paw PP                                                                      
   EAUG   =  605.392                                                                                
   DEXC   =    0.000                                                                                
   RMAX   =    1.553    core radius for proj-oper                                                   
   RAUG   =    1.300    factor for augmentation sphere                                              
   RDEP   =    1.550    radius for radial grids                                                     
   RDEPT  =    1.329    core radius for aug-charge                                                  
                                                                                                    
   Atomic configuration                                                                             
    4 entries                                                                                       
     n  l   j            E        occ.                                                              
     1  0  0.50      -514.6923   2.0000                                                             
     2  0  0.50       -23.9615   2.0000                                                             
     2  1  0.50        -9.0305   4.0000                                                             
     3  2  1.50        -9.5241   0.0000                                                             
   Description                                                                                      
     l       E           TYP  RCUT    TYP  RCUT                                                     
     0    -23.9615318     23  1.200                                                                 
     0     -9.5240782     23  1.200                                                                 
     1     -9.0304911     23  1.520                                                                 
     1      8.1634956     23  1.520                                                                 
     2     -9.5240782      7  1.500                                                                 
  local pseudopotential read in
  partial core-charges read in
  partial kinetic energy density read in
  kinetic energy density of atom read in
  atomic valenz-charges read in
  non local Contribution for L=           0  read in
    real space projection operators read in
  non local Contribution for L=           0  read in
    real space projection operators read in
  non local Contribution for L=           1  read in
    real space projection operators read in
  non local Contribution for L=           1  read in
    real space projection operators read in
    PAW grid and wavefunctions read in
 
   number of l-projection  operators is LMAX  =           4
   number of lm-projection operators is LMMAX =           8
 
 POTCAR:    PAW_PBE H 15Jun2001                   
   VRHFIN =H: ultrasoft test                                                                        
   LEXCH  = PE                                                                                      
   EATOM  =    12.4884 eV,    0.9179 Ry                                                             
                                                                                                    
   TITEL  = PAW_PBE H 15Jun2001                                                                     
   LULTRA =        F    use ultrasoft PP ?                                                          
   IUNSCR =        0    unscreen: 0-lin 1-nonlin 2-no                                               
   RPACOR =    0.000    partial core radius                                                         
   POMASS =    1.000; ZVAL   =    1.000    mass and valenz                                          
   RCORE  =    1.100    outmost cutoff radius                                                       
   RWIGS  =    0.700; RWIGS  =    0.370    wigner-seitz radius (au A)                               
   ENMAX  =  250.000; ENMIN  =  200.000 eV                                                          
   RCLOC  =    0.701    cutoff for local pot                                                        
   LCOR   =        T    correct aug charges                                                         
   LPAW   =        T    paw PP                                                                      
   EAUG   =  400.000                                                                                
   RMAX   =    1.123    core radius for proj-oper                                                   
   RAUG   =    1.200    factor for augmentation sphere                                              
   RDEP   =    1.112    radius for radial grids                                                     
   RDEPT  =    0.926    core radius for aug-charge                                                  
                                                                                                    
   Atomic configuration                                                                             
    2 entries                                                                                       
     n  l   j            E        occ.                                                              
     1  0  0.50        -6.4927   1.0000                                                             
     2  1  0.50        -3.4015   0.0000                                                             
   Description                                                                                      
     l       E           TYP  RCUT    TYP  RCUT                                                     
     0     -6.4927494     23  1.100                                                                 
     0      6.8029130     23  1.100                                                                 
     1     -4.0817478     23  1.100                                                                 
  local pseudopotential read in
  atomic valenz-charges read in
  non local Contribution for L=           0  read in
    real space projection operators read in
  non local Contribution for L=           0  read in
    real space projection operators read in
  non local Contribution for L=           1  read in
    real space projection operators read in
    PAW grid and wavefunctions read in
 
   number of l-projection  operators is LMAX  =           3
   number of lm-projection operators is LMMAX =           5
 
 Optimization of the real space projectors (new method)

 maximal supplied QI-value         = 16.25
 optimisation between [QCUT,QGAM] = [ 11.38, 22.75] = [ 36.24,144.96] Ry 
 Optimized for a Real-space Cutoff    1.52 Angstroem

   l    n(q)    QCUT    max X(q) W(low)/X(q) W(high)/X(q)  e(spline) 
   2      9    11.376     4.610    0.21E-03    0.10E-03    0.26E-06
   2      9    11.376     8.522    0.33E-03    0.16E-03    0.37E-06
   0     10    11.376    51.609    0.62E-04    0.20E-04    0.13E-06
   0     10    11.376    27.747    0.54E-04    0.20E-04    0.13E-06
   1     10    11.376    20.408    0.13E-04    0.99E-04    0.19E-06
   1     10    11.376    13.425    0.12E-04    0.87E-04    0.17E-06
 Optimization of the real space projectors (new method)

 maximal supplied QI-value         = 15.68
 optimisation between [QCUT,QGAM] = [ 11.45, 22.90] = [ 36.71,146.85] Ry 
 Optimized for a Real-space Cutoff    1.56 Angstroem

   l    n(q)    QCUT    max X(q) W(low)/X(q) W(high)/X(q)  e(spline) 
   0     11    11.450    10.201    0.21E-04    0.96E-05    0.78E-07
   0     11    11.450     8.174    0.31E-04    0.18E-04    0.14E-06
   1     10    11.450     3.488    0.27E-04    0.12E-04    0.96E-07
   1     10    11.450     4.917    0.11E-03    0.11E-03    0.37E-06
   2     10    11.450   153.744    0.37E-03    0.81E-03    0.10E-05
   2     10    11.450   126.342    0.37E-03    0.81E-03    0.10E-05
 Optimization of the real space projectors (new method)

 maximal supplied QI-value         = 24.76
 optimisation between [QCUT,QGAM] = [ 11.39, 22.77] = [ 36.31,145.25] Ry 
 Optimized for a Real-space Cutoff    1.00 Angstroem

   l    n(q)    QCUT    max X(q) W(low)/X(q) W(high)/X(q)  e(spline) 
   0      7    11.387    20.381    0.39E-03    0.13E-02    0.15E-06
   0      7    11.387    15.268    0.42E-03    0.14E-02    0.17E-06
   1      6    11.387     5.964    0.41E-03    0.11E-02    0.17E-06
   1      6    11.387     5.382    0.39E-03    0.87E-03    0.15E-06
 Optimization of the real space projectors (new method)

 maximal supplied QI-value         = 34.20
 optimisation between [QCUT,QGAM] = [ 11.29, 22.57] = [ 35.68,142.71] Ry 
 Optimized for a Real-space Cutoff    1.16 Angstroem

   l    n(q)    QCUT    max X(q) W(low)/X(q) W(high)/X(q)  e(spline) 
   0      8    11.287    19.460    0.40E-03    0.73E-03    0.16E-06
   0      8    11.287    12.209    0.38E-03    0.70E-03    0.15E-06
   1      7    11.287     4.655    0.22E-03    0.25E-04    0.22E-06
  PAW_PBE Cu 22Jun2005                  :
 energy of atom  1       EATOM=-1390.9808
 kinetic energy error for atom=    0.0043 (will be added to EATOM!!)
  PAW_PBE Nb_sv 25May2007               :
 energy of atom  2       EATOM=-1555.1913
 kinetic energy error for atom=    0.0069 (will be added to EATOM!!)
  PAW_PBE O 08Apr2002                   :
 energy of atom  3       EATOM= -432.3788
 kinetic energy error for atom=    0.0224 (will be added to EATOM!!)
  PAW_PBE H 15Jun2001                   :
 energy of atom  4       EATOM=  -12.4884
 kinetic energy error for atom=    0.0020 (will be added to EATOM!!)
 
 
 POSCAR: Cu-Nb-OOH
  positions in direct lattice
  velocities in cartesian coordinates
 exchange correlation table for  LEXCH =        8
   RHO(1)=    0.500       N(1)  =     2000
   RHO(2)=  100.500       N(2)  =     4000

 VTST: version 3.2, (02/03/18)

 CHAIN: initializing optimizer
 
 OPT: Using VASP Conjugate-Gradient optimizer
 CHAIN: Read ICHAIN            0
 
 POSCAR: Cu-Nb-OOH
  positions in direct lattice
  velocities in cartesian coordinates
 


--------------------------------------------------------------------------------------------------------


 ion  position               nearest neighbor table
   1  0.000  0.000  0.212-   7 2.57   3 2.57   4 2.57   2 2.57   6 2.57   8 2.57  12 2.57  10 2.57
                            16 2.57
   2  0.333  0.000  0.212-   8 2.57   9 2.57   5 2.57   1 2.57   3 2.57  11 2.57   4 2.57  10 2.57
                            17 2.57
   3  0.667  0.000  0.212-   1 2.57   7 2.57   6 2.57   9 2.57   2 2.57  12 2.57   5 2.57  18 2.57
                            11 2.57
   4  0.000  0.333  0.212-   5 2.57   6 2.57   1 2.57   7 2.57   2 2.57  13 2.57   9 2.57  10 2.57
                            15 2.57
   5  0.333  0.333  0.212-   4 2.57   2 2.57   7 2.57  13 2.57   8 2.57   6 2.57   3 2.57  11 2.57
                            14 2.57
   6  0.667  0.333  0.212-   4 2.57   9 2.57  15 2.57   3 2.57   1 2.57   8 2.57  14 2.57   5 2.57
                            12 2.57
   7  0.000  0.667  0.212-   1 2.57   3 2.57  16 2.57  18 2.57   4 2.57   5 2.57   8 2.57   9 2.57
                            13 2.57
   8  0.333  0.667  0.212-   9 2.57   2 2.57  17 2.57   6 2.57   1 2.57   7 2.57   5 2.57  14 2.57
                            16 2.57
   9  0.667  0.667  0.212-   8 2.57   6 2.57   2 2.57  17 2.57   3 2.57   7 2.57   4 2.57  15 2.57
                            18 2.57
  10  0.111  0.111  0.294-  26 2.55  19 2.55  11 2.57  12 2.57  13 2.57   1 2.57   2 2.57   4 2.57
                            15 2.57  16 2.57  17 2.57  20 2.57
  11  0.444  0.111  0.294-  20 2.57  21 2.57  10 2.57  13 2.57   2 2.57  17 2.57  14 2.57  12 2.57
                             5 2.57   3 2.57  18 2.57  27 2.57
  12  0.778  0.111  0.294-  19 2.55  25 2.55  15 2.57  10 2.57  14 2.57  18 2.57   3 2.57   1 2.57
                            16 2.57  11 2.57   6 2.57  21 2.57
  13  0.111  0.444  0.294-  23 2.57  20 2.57  16 2.57  18 2.57  10 2.57  11 2.57  14 2.57   5 2.57
                             4 2.57   7 2.57  15 2.57  22 2.57
  14  0.444  0.444  0.294-  21 2.57  23 2.57  15 2.57  17 2.57  12 2.57  16 2.57  13 2.57  11 2.57
                             6 2.57   8 2.57   5 2.57  24 2.57
  15  0.778  0.444  0.294-  19 2.55  14 2.57  17 2.57  12 2.57   6 2.57  18 2.57  10 2.57   9 2.57
                            13 2.57   4 2.57  24 2.57  22 2.57
  16  0.111  0.778  0.294-  25 2.55  26 2.55  18 2.57  13 2.57   7 2.57  14 2.57  17 2.57  12 2.57
                            10 2.57   8 2.57   1 2.57  23 2.57
  17  0.444  0.778  0.294-  26 2.55  14 2.57  15 2.57   8 2.57   9 2.57  11 2.57  16 2.57  18 2.57
                            10 2.57   2 2.57  27 2.57  24 2.57
  18  0.778  0.778  0.294-  25 2.55  16 2.57  13 2.57   7 2.57  15 2.57  12 2.57  17 2.57   9 2.57
                             3 2.57  11 2.57  22 2.57  27 2.57
  19  0.889  0.222  0.376-  12 2.55  10 2.55  15 2.55  25 2.56  26 2.56  21 2.57  20 2.57  22 2.57
                            24 2.57  28 2.57  32 2.58  31 2.58
  20  0.222  0.222  0.377-  23 2.56  21 2.56  11 2.57  13 2.57  10 2.57  26 2.57  19 2.57  27 2.57
                            22 2.57  29 2.59  31 2.59  36 2.66
  21  0.555  0.222  0.377-  20 2.56  23 2.56  14 2.57  11 2.57  12 2.57  19 2.57  25 2.57  24 2.57
                            27 2.57  32 2.59  30 2.59  36 2.66
  22  0.889  0.556  0.377-  24 2.56  27 2.56  18 2.57  15 2.57  23 2.57  20 2.57  19 2.57  25 2.57
                            13 2.57  35 2.57  31 2.57  33 2.57
  23  0.222  0.555  0.377-  20 2.56  21 2.56  13 2.57  14 2.57  16 2.57  25 2.57  26 2.57  22 2.57
                            24 2.57  33 2.59  34 2.59  36 2.66
  24  0.556  0.556  0.377-  22 2.56  27 2.56  15 2.57  17 2.57  21 2.57  23 2.57  19 2.57  26 2.57
                            14 2.57  35 2.57  32 2.57  34 2.57
  25  0.889  0.889  0.376-  12 2.55  16 2.55  18 2.55  19 2.56  26 2.56  21 2.57  23 2.57  22 2.57
                            27 2.57  28 2.57  33 2.58  30 2.58
  26  0.222  0.889  0.376-  10 2.55  16 2.55  17 2.55  25 2.56  19 2.56  20 2.57  23 2.57  27 2.57
                            24 2.57  28 2.57  29 2.58  34 2.58
  27  0.556  0.889  0.377-  24 2.56  22 2.56  17 2.57  18 2.57  20 2.57  21 2.57  26 2.57  25 2.57
                            11 2.57  35 2.57  29 2.57  30 2.57
  28  0.000  0.000  0.459-  33 2.55  30 2.55  31 2.55  29 2.55  32 2.55  34 2.55  25 2.57  19 2.57
                            26 2.57
  29  0.334  0.996  0.460-  34 2.51  35 2.55  28 2.55  27 2.57  26 2.58  20 2.59  30 2.59  36 2.60
                            31 2.60
  30  0.670  0.996  0.460-  33 2.51  35 2.55  28 2.55  27 2.57  25 2.58  21 2.59  29 2.59  36 2.60
                            32 2.60
  31  0.996  0.334  0.460-  32 2.51  35 2.55  28 2.55  22 2.57  19 2.58  20 2.59  33 2.59  36 2.60
                            29 2.60
  32  0.670  0.334  0.460-  31 2.51  35 2.55  28 2.55  24 2.57  19 2.58  21 2.59  34 2.59  36 2.60
                            30 2.60
  33  0.996  0.670  0.460-  30 2.51  35 2.55  28 2.55  22 2.57  25 2.58  23 2.59  31 2.59  36 2.60
                            34 2.60
  34  0.334  0.670  0.460-  29 2.51  35 2.55  28 2.55  24 2.57  26 2.58  23 2.59  32 2.59  36 2.60
                            33 2.60
  35  0.667  0.667  0.460-  34 2.55  32 2.55  29 2.55  30 2.55  33 2.55  31 2.55  24 2.57  27 2.57
                            22 2.57
  36  0.333  0.333  0.464-  37 1.76  31 2.60  29 2.60  33 2.60  32 2.60  34 2.60  30 2.60  23 2.66
                            20 2.66  21 2.66
  37  0.336  0.334  0.533-  36 1.76  38 1.87
  38  0.305  0.333  0.606-  39 0.98  37 1.87
  39  0.431  0.333  0.613-  38 0.98
 
  LATTYP: Found a hexagonal cell.
 ALAT       =     7.6967864036
 C/A-ratio  =     3.2973366172
  
  Lattice vectors:
  
 A1 = (  -3.8483927580,  -6.6656128093,   0.0000000000)
 A2 = (   7.6967864037,   0.0000000000,   0.0000000000)
 A3 = (   0.0000000000,   0.0000000000,  25.3788956434)


Analysis of symmetry for initial positions (statically):
=====================================================================
 Subroutine PRICEL returns:
 Original cell was already a primitive cell.
 

 Routine SETGRP: Setting up the symmetry group for a 
 hexagonal supercell.


 Subroutine GETGRP returns: Found  1 space group operations
 (whereof  1 operations were pure point group operations)
 out of a pool of 24 trial point group operations.


The static configuration has the point symmetry C_1 .


Analysis of symmetry for dynamics (positions and initial velocities):
=====================================================================
 Subroutine PRICEL returns:
 Original cell was already a primitive cell.
 

 Routine SETGRP: Setting up the symmetry group for a 
 hexagonal supercell.


 Subroutine GETGRP returns: Found  1 space group operations
 (whereof  1 operations were pure point group operations)
 out of a pool of 24 trial point group operations.


The dynamic configuration has the point symmetry C_1 .


Analysis of constrained symmetry for selective dynamics:
=====================================================================
 Subroutine PRICEL returns:
 Original cell was already a primitive cell.
 

 Routine SETGRP: Setting up the symmetry group for a 
 hexagonal supercell.


 Subroutine GETGRP returns: Found  1 space group operations
 (whereof  1 operations were pure point group operations)
 out of a pool of 24 trial point group operations.


The constrained configuration has the point symmetry C_1 .


 Subroutine INISYM returns: Found  1 space group operations
 (whereof  1 operations are pure point group operations),
 and found     1 'primitive' translations


----------------------------------------------------------------------------------------

                                     Primitive cell                                     

  volume of cell :    1302.0337

  direct lattice vectors                    reciprocal lattice vectors
     7.696786404  0.000000000  0.000000000     0.129924354 -0.075011849  0.000000000
     3.848392758  6.665612809  0.000000000     0.000000000  0.150023716  0.000000000
     0.000000000  0.000000000 25.378895643     0.000000000  0.000000000  0.039402818

  length of vectors
     7.696786404  7.696786404 25.378895643     0.150023716  0.150023716  0.039402818

  position of ions in fractional coordinates (direct lattice)
     0.000000000  0.000000000  0.211654586
     0.333333343  0.000000000  0.211654586
     0.666666687  0.000000000  0.211654586
     1.000000000  0.333333343  0.211654586
     0.333333313  0.333333343  0.211654586
     0.666666687  0.333333343  0.211654586
     1.000000000  0.666666687  0.211654586
     0.333333373  0.666666687  0.211654586
     0.666666627  0.666666687  0.211654586
     0.111111119  0.111111112  0.294195619
     0.444444418  0.111111112  0.294195619
     0.777777791  0.111111112  0.294195619
     0.111111119  0.444444448  0.294195619
     0.444444478  0.444444448  0.294195619
     0.777777731  0.444444448  0.294195619
     0.111111112  0.777777731  0.294195619
     0.444444478  0.777777731  0.294195619
     0.777777851  0.777777731  0.294195619
     0.889090897  0.221818223  0.375982094
     0.222349378  0.222349363  0.376743756
     0.555301304  0.222349363  0.376743756
     0.888569748  0.555715096  0.376814042
     0.222349348  0.555301244  0.376743756
     0.555715156  0.555715096  0.376814042
     0.889090897  0.889090897  0.375982094
     0.221818238  0.889090897  0.375982094
     0.555715096  0.888569748  0.376814042
     0.000000000  0.000000000  0.458804677
     0.333604747  0.995966759  0.459716213
     0.670428523  0.995966759  0.459716213
     0.995966759  0.333604747  0.459716213
     0.670428523  0.333604747  0.459716213
     0.995966759  0.670428523  0.459716213
     0.333604777  0.670428523  0.459716213
     0.666666627  0.666666687  0.459683388
     0.333333313  0.333333343  0.463954204
     0.336439055  0.333997566  0.533181942
     0.305365309  0.333382336  0.606114764
     0.431036111  0.333283685  0.612666018

  ion indices of the primitive-cell ions
   primitive index   ion index
                 1           1
                 2           2
                 3           3
                 4           4
                 5           5
                 6           6
                 7           7
                 8           8
                 9           9
                10          10
                11          11
                12          12
                13          13
                14          14
                15          15
                16          16
                17          17
                18          18
                19          19
                20          20
                21          21
                22          22
                23          23
                24          24
                25          25
                26          26
                27          27
                28          28
                29          29
                30          30
                31          31
                32          32
                33          33
                34          34
                35          35
                36          36
                37          37
                38          38
                39          39

----------------------------------------------------------------------------------------

 
 
 KPOINTS: Automatic mesh                          

Automatic generation of k-mesh.
 Grid dimensions read from file:
 generate k-points for:    8    8    1

 Generating k-lattice:

  Cartesian coordinates                     Fractional coordinates (reciprocal lattice)
     0.016240544 -0.009376481  0.000000000     0.125000000 -0.000000000  0.000000000
     0.000000000  0.018752964  0.000000000     0.000000000  0.125000000  0.000000000
     0.000000000  0.000000000  0.039402818     0.000000000  0.000000000  1.000000000

  Length of vectors
     0.018752964  0.018752964  0.039402818

  Shift w.r.t. Gamma in fractional coordinates (k-lattice)
     0.000000000  0.000000000  0.000000000

 TETIRR: Found    192 inequivalent tetrahedra from      384
 
 Subroutine IBZKPT returns following result:
 ===========================================
 
 Found     34 irreducible k-points:
 
 Following reciprocal coordinates:
            Coordinates               Weight
  0.000000  0.000000  0.000000      1.000000
  0.125000  0.000000  0.000000      2.000000
  0.125000  0.125000  0.000000      2.000000
  0.000000  0.125000  0.000000      2.000000
  0.250000  0.000000  0.000000      2.000000
  0.250000  0.250000  0.000000      2.000000
  0.000000  0.250000  0.000000      2.000000
  0.375000  0.000000  0.000000      2.000000
  0.375000  0.375000  0.000000      2.000000
  0.000000  0.375000  0.000000      2.000000
  0.500000  0.000000  0.000000      1.000000
  0.500000  0.500000  0.000000      1.000000
  0.000000  0.500000  0.000000      1.000000
  0.250000  0.125000  0.000000      2.000000
  0.125000  0.250000  0.000000      2.000000
 -0.125000  0.125000  0.000000      2.000000
  0.375000  0.125000  0.000000      2.000000
  0.250000  0.375000  0.000000      2.000000
 -0.125000  0.250000  0.000000      2.000000
  0.250000 -0.125000  0.000000      2.000000
 -0.125000 -0.375000  0.000000      2.000000
 -0.375000 -0.250000  0.000000      2.000000
  0.500000  0.125000  0.000000      2.000000
  0.375000  0.500000  0.000000      2.000000
 -0.125000  0.375000  0.000000      2.000000
  0.375000 -0.125000  0.000000      2.000000
 -0.125000  0.500000  0.000000      2.000000
  0.500000 -0.375000  0.000000      2.000000
  0.500000  0.250000  0.000000      2.000000
  0.250000  0.500000  0.000000      2.000000
 -0.250000  0.250000  0.000000      2.000000
 -0.375000  0.250000  0.000000      2.000000
  0.375000 -0.375000  0.000000      2.000000
 -0.250000  0.375000  0.000000      2.000000
 
 Following cartesian coordinates:
            Coordinates               Weight
  0.000000  0.000000  0.000000      1.000000
  0.016241 -0.009376  0.000000      2.000000
  0.016241  0.009376  0.000000      2.000000
  0.000000  0.018753  0.000000      2.000000
  0.032481 -0.018753  0.000000      2.000000
  0.032481  0.018753  0.000000      2.000000
  0.000000  0.037506  0.000000      2.000000
  0.048722 -0.028129  0.000000      2.000000
  0.048722  0.028129  0.000000      2.000000
  0.000000  0.056259  0.000000      2.000000
  0.064962 -0.037506  0.000000      1.000000
  0.064962  0.037506  0.000000      1.000000
  0.000000  0.075012  0.000000      1.000000
  0.032481  0.000000  0.000000      2.000000
  0.016241  0.028129  0.000000      2.000000
 -0.016241  0.028129  0.000000      2.000000
  0.048722 -0.009376  0.000000      2.000000
  0.032481  0.037506  0.000000      2.000000
 -0.016241  0.046882  0.000000      2.000000
  0.032481 -0.037506  0.000000      2.000000
 -0.016241 -0.046882  0.000000      2.000000
 -0.048722 -0.009376  0.000000      2.000000
  0.064962 -0.018753  0.000000      2.000000
  0.048722  0.046882  0.000000      2.000000
 -0.016241  0.065635  0.000000      2.000000
  0.048722 -0.046882  0.000000      2.000000
 -0.016241  0.084388  0.000000      2.000000
  0.064962 -0.093765  0.000000      2.000000
  0.064962  0.000000  0.000000      2.000000
  0.032481  0.056259  0.000000      2.000000
 -0.032481  0.056259  0.000000      2.000000
 -0.048722  0.065635  0.000000      2.000000
  0.048722 -0.084388  0.000000      2.000000
 -0.032481  0.075012  0.000000      2.000000
 


--------------------------------------------------------------------------------------------------------




 Dimension of arrays:
   k-points           NKPTS =     34   k-points in BZ     NKDIM =     34   number of bands    NBANDS=    252
   number of dos      NEDOS =    301   number of ions     NIONS =     39
   non local maximal  LDIM  =      6   non local SUM 2l+1 LMDIM =     18
   total plane-waves  NPLWV = 246960
   max r-space proj   IRMAX =   3090   max aug-charges    IRDMAX=   8231
   dimension x,y,z NGX =    42 NGY =   42 NGZ =  140
   dimension x,y,z NGXF=    84 NGYF=   84 NGZF=  280
   support grid    NGXF=    84 NGYF=   84 NGZF=  280
   ions per type =              35   1   2   1
   NGX,Y,Z   is equivalent  to a cutoff of   9.07,  9.07,  9.17 a.u.
   NGXF,Y,Z  is equivalent  to a cutoff of  18.14, 18.14, 18.34 a.u.

 SYSTEM =  unknown system                          
 POSCAR =  Cu-Nb-OOH                               

 Startparameter for this run:
   NWRITE =      2    write-flag & timer
   PREC   = normal    normal or accurate (medium, high low for compatibility)
   ISTART =      0    job   : 0-new  1-cont  2-samecut
   ICHARG =     11    charge: 1-file 2-atom 10-const
   ISPIN  =      1    spin polarized calculation?
   LNONCOLLINEAR =      F non collinear calculations
   LSORBIT =      F    spin-orbit coupling
   INIWAV =      1    electr: 0-lowe 1-rand  2-diag
   LASPH  =      F    aspherical Exc in radial PAW
   METAGGA=      F    non-selfconsistent MetaGGA calc.

 Electronic Relaxation 1
   ENCUT  =  500.0 eV  36.75 Ry    6.06 a.u.  14.03 14.03 46.27*2*pi/ulx,y,z
   ENINI  =  500.0     initial cutoff
   ENAUG  =  605.4 eV  augmentation charge cutoff
   NELM   =    150;   NELMIN=  2; NELMDL= -5     # of ELM steps 
   EDIFF  = 0.1E-04   stopping-criterion for ELM
   LREAL  =      T    real-space projection
   NLSPLINE    = F    spline interpolate recip. space projectors
   LCOMPAT=      F    compatible to vasp.4.4
   GGA_COMPAT  = T    GGA compatible to vasp.4.4-vasp.4.6
   LMAXPAW     = -100 max onsite density
   LMAXMIX     =    2 max onsite mixed and CHGCAR
   VOSKOWN=      0    Vosko Wilk Nusair interpolation
   ROPT   =   -0.00050  -0.00050  -0.00050  -0.00050
 Ionic relaxation
   EDIFFG = -.1E-01   stopping-criterion for IOM
   NSW    =      0    number of steps for IOM
   NBLOCK =      1;   KBLOCK =      1    inner block; outer block 
   IBRION =     -1    ionic relax: 0-MD 1-quasi-New 2-CG
   NFREE  =      1    steps in history (QN), initial steepest desc. (CG)
   ISIF   =      2    stress and relaxation
   IWAVPR =     10    prediction:  0-non 1-charg 2-wave 3-comb
   ISYM   =      2    0-nonsym 1-usesym 2-fastsym
   LCORR  =      T    Harris-Foulkes like correction to forces

   POTIM  = 0.5000    time-step for ionic-motion
   TEIN   =    0.0    initial temperature
   TEBEG  =    0.0;   TEEND  =   0.0 temperature during run
   SMASS  =  -3.00    Nose mass-parameter (am)
   estimated Nose-frequenzy (Omega)   =  0.10E-29 period in steps = 0.13E+47 mass=  -0.135E-26a.u.
   SCALEE = 1.0000    scale energy and forces
   NPACO  =    256;   APACO  = 16.0  distance and # of slots for P.C.
   PSTRESS=    0.0 pullay stress

  Mass of Ions in am
   POMASS =  63.55 92.91 16.00  1.00
  Ionic Valenz
   ZVAL   =  11.00 13.00  6.00  1.00
  Atomic Wigner-Seitz radii
   RWIGS  =  -1.00 -1.00 -1.00 -1.00
  virtual crystal weights 
   VCA    =   1.00  1.00  1.00  1.00
   NELECT =     411.0000    total number of electrons
   NUPDOWN=      -1.0000    fix difference up-down

 DOS related values:
   EMIN   =  10.00;   EMAX   =-10.00  energy-range for DOS
   EFERMI =   0.00
   ISMEAR =    -5;   SIGMA  =   0.10  broadening in eV -4-tet -1-fermi 0-gaus

 Electronic relaxation 2 (details)
   IALGO  =     68    algorithm
   LDIAG  =      T    sub-space diagonalisation (order eigenvalues)
   LSUBROT=      F    optimize rotation matrix (better conditioning)
   TURBO    =      0    0=normal 1=particle mesh
   IRESTART =      0    0=no restart 2=restart with 2 vectors
   NREBOOT  =      0    no. of reboots
   NMIN     =      0    reboot dimension
   EREF     =   0.00    reference energy to select bands
   IMIX   =      4    mixing-type and parameters
     AMIX     =   0.40;   BMIX     =  1.00
     AMIX_MAG =   1.60;   BMIX_MAG =  1.00
     AMIN     =   0.10
     WC   =   100.;   INIMIX=   1;  MIXPRE=   1;  MAXMIX= -45

 Intra band minimization:
   WEIMIN = 0.0000     energy-eigenvalue tresh-hold
   EBREAK =  0.99E-08  absolut break condition
   DEPER  =   0.30     relativ break condition  

   TIME   =   0.40     timestep for ELM

  volume/ion in A,a.u.               =      33.39       225.30
  Fermi-wavevector in a.u.,A,eV,Ry     =   1.114674  2.106429 16.905225  1.242499
  Thomas-Fermi vector in A             =   2.251272
 
 Write flags
   LWAVE        =      F    write WAVECAR
   LDOWNSAMPLE  =      F    k-point downsampling of WAVECAR
   LCHARG       =      F    write CHGCAR
   LVTOT        =      F    write LOCPOT, total local potential
   LVHAR        =      F    write LOCPOT, Hartree potential only
   LELF         =      F    write electronic localiz. function (ELF)
   LORBIT       =     10    0 simple, 1 ext, 2 COOP (PROOUT), +10 PAW based schemes


 Dipole corrections
   LMONO  =      F    monopole corrections only (constant potential shift)
   LDIPOL =      F    correct potential (dipole corrections)
   IDIPOL =      0    1-x, 2-y, 3-z, 4-all directions 
   EPSILON=  1.0000000 bulk dielectric constant

 Exchange correlation treatment:
   GGA     =    --    GGA type
   LEXCH   =     8    internal setting for exchange type
   VOSKOWN=      0    Vosko Wilk Nusair interpolation
   LHFCALC =     F    Hartree Fock is set to
   LHFONE  =     F    Hartree Fock one center treatment
   AEXX    =    0.0000 exact exchange contribution

 Linear response parameters
   LEPSILON=     F    determine dielectric tensor
   LRPA    =     F    only Hartree local field effects (RPA)
   LNABLA  =     F    use nabla operator in PAW spheres
   LVEL    =     F    velocity operator in full k-point grid
   LINTERFAST=   F  fast interpolation
   KINTER  =     0    interpolate to denser k-point grid
   CSHIFT  =0.1000    complex shift for real part using Kramers Kronig
   OMEGAMAX=  -1.0    maximum frequency
   DEG_THRESHOLD= 0.2000000E-02 threshold for treating states as degnerate
   RTIME   =   -0.100 relaxation time in fs
  (WPLASMAI=    0.000 imaginary part of plasma frequency in eV, 0.658/RTIME)
   DFIELD  = 0.0000000 0.0000000 0.0000000 field for delta impulse in time
 
 Orbital magnetization related:
   ORBITALMAG=     F  switch on orbital magnetization
   LCHIMAG   =     F  perturbation theory with respect to B field
   DQ        =  0.001000  dq finite difference perturbation B field
   LLRAUG    =     F  two centre corrections for induced B field



--------------------------------------------------------------------------------------------------------


 Static calculation
 charge density and potential remain constant during run
 non-spin polarized calculation
 RMM-DIIS sequential band-by-band and
  variant of blocked Davidson during initial phase
 perform sub-space diagonalisation
    before iterative eigenvector-optimisation
 no mixing
 using additional bands           46
 real space projection scheme for non local part
 use partial core corrections
 calculate Harris-corrections to forces 
   (improved forces if not selfconsistent)
 use gradient corrections 
 WARNING: stress and forces are not correct
  (second derivative of E(xc) not defined)
 use of overlap-Matrix (Vanderbilt PP)
 Fermi weights with tetrahedron method with Bloechl corrections


--------------------------------------------------------------------------------------------------------


  energy-cutoff  :      500.00
  volume of cell :     1302.03
      direct lattice vectors                 reciprocal lattice vectors
     7.696786404  0.000000000  0.000000000     0.129924354 -0.075011849  0.000000000
     3.848392758  6.665612809  0.000000000     0.000000000  0.150023716  0.000000000
     0.000000000  0.000000000 25.378895643     0.000000000  0.000000000  0.039402818

  length of vectors
     7.696786404  7.696786404 25.378895643     0.150023716  0.150023716  0.039402818


 
 k-points in units of 2pi/SCALE and weight: Automatic mesh                          
   0.00000000  0.00000000  0.00000000       0.016
   0.01624054 -0.00937648  0.00000000       0.031
   0.01624054  0.00937648  0.00000000       0.031
   0.00000000  0.01875296  0.00000000       0.031
   0.03248109 -0.01875296  0.00000000       0.031
   0.03248109  0.01875297  0.00000000       0.031
   0.00000000  0.03750593  0.00000000       0.031
   0.04872163 -0.02812944  0.00000000       0.031
   0.04872163  0.02812945  0.00000000       0.031
   0.00000000  0.05625889  0.00000000       0.031
   0.06496218 -0.03750592  0.00000000       0.016
   0.06496218  0.03750593  0.00000000       0.016
   0.00000000  0.07501186  0.00000000       0.016
   0.03248109  0.00000000  0.00000000       0.031
   0.01624054  0.02812945  0.00000000       0.031
  -0.01624054  0.02812945  0.00000000       0.031
   0.04872163 -0.00937648  0.00000000       0.031
   0.03248109  0.03750593  0.00000000       0.031
  -0.01624054  0.04688241  0.00000000       0.031
   0.03248109 -0.03750593  0.00000000       0.031
  -0.01624054 -0.04688241  0.00000000       0.031
  -0.04872163 -0.00937649  0.00000000       0.031
   0.06496218 -0.01875296  0.00000000       0.031
   0.04872163  0.04688241  0.00000000       0.031
  -0.01624054  0.06563537  0.00000000       0.031
   0.04872163 -0.04688241  0.00000000       0.031
  -0.01624054  0.08438834  0.00000000       0.031
   0.06496218 -0.09376482  0.00000000       0.031
   0.06496218  0.00000000  0.00000000       0.031
   0.03248109  0.05625890  0.00000000       0.031
  -0.03248109  0.05625889  0.00000000       0.031
  -0.04872163  0.06563537  0.00000000       0.031
   0.04872163 -0.08438834  0.00000000       0.031
  -0.03248109  0.07501186  0.00000000       0.031
 
 k-points in reciprocal lattice and weights: Automatic mesh                          
   0.00000000  0.00000000  0.00000000       0.016
   0.12500000  0.00000000  0.00000000       0.031
   0.12500000  0.12500000  0.00000000       0.031
   0.00000000  0.12500000  0.00000000       0.031
   0.25000000  0.00000000  0.00000000       0.031
   0.25000000  0.25000000  0.00000000       0.031
   0.00000000  0.25000000  0.00000000       0.031
   0.37500000  0.00000000  0.00000000       0.031
   0.37500000  0.37500000  0.00000000       0.031
   0.00000000  0.37500000  0.00000000       0.031
   0.50000000  0.00000000  0.00000000       0.016
   0.50000000  0.50000000  0.00000000       0.016
   0.00000000  0.50000000  0.00000000       0.016
   0.25000000  0.12500000  0.00000000       0.031
   0.12500000  0.25000000  0.00000000       0.031
  -0.12500000  0.12500000  0.00000000       0.031
   0.37500000  0.12500000  0.00000000       0.031
   0.25000000  0.37500000  0.00000000       0.031
  -0.12500000  0.25000000  0.00000000       0.031
   0.25000000 -0.12500000  0.00000000       0.031
  -0.12500000 -0.37500000  0.00000000       0.031
  -0.37500000 -0.25000000  0.00000000       0.031
   0.50000000  0.12500000  0.00000000       0.031
   0.37500000  0.50000000  0.00000000       0.031
  -0.12500000  0.37500000  0.00000000       0.031
   0.37500000 -0.12500000  0.00000000       0.031
  -0.12500000  0.50000000  0.00000000       0.031
   0.50000000 -0.37500000  0.00000000       0.031
   0.50000000  0.25000000  0.00000000       0.031
   0.25000000  0.50000000  0.00000000       0.031
  -0.25000000  0.25000000  0.00000000       0.031
  -0.37500000  0.25000000  0.00000000       0.031
   0.37500000 -0.37500000  0.00000000       0.031
  -0.25000000  0.37500000  0.00000000       0.031
 
 position of ions in fractional coordinates (direct lattice) 
   0.00000000  0.00000000  0.21165459
   0.33333334  0.00000000  0.21165459
   0.66666669  0.00000000  0.21165459
   0.00000000  0.33333334  0.21165459
   0.33333331  0.33333334  0.21165459
   0.66666669  0.33333334  0.21165459
   0.00000000  0.66666669  0.21165459
   0.33333337  0.66666669  0.21165459
   0.66666663  0.66666669  0.21165459
   0.11111112  0.11111111  0.29419562
   0.44444442  0.11111111  0.29419562
   0.77777779  0.11111111  0.29419562
   0.11111112  0.44444445  0.29419562
   0.44444448  0.44444445  0.29419562
   0.77777773  0.44444445  0.29419562
   0.11111111  0.77777773  0.29419562
   0.44444448  0.77777773  0.29419562
   0.77777785  0.77777773  0.29419562
   0.88909090  0.22181822  0.37598209
   0.22234938  0.22234936  0.37674376
   0.55530130  0.22234936  0.37674376
   0.88856975  0.55571510  0.37681404
   0.22234935  0.55530124  0.37674376
   0.55571516  0.55571510  0.37681404
   0.88909090  0.88909090  0.37598209
   0.22181824  0.88909090  0.37598209
   0.55571510  0.88856975  0.37681404
   0.00000000  0.00000000  0.45880468
   0.33360475  0.99596676  0.45971621
   0.67042852  0.99596676  0.45971621
   0.99596676  0.33360475  0.45971621
   0.67042852  0.33360475  0.45971621
   0.99596676  0.67042852  0.45971621
   0.33360478  0.67042852  0.45971621
   0.66666663  0.66666669  0.45968339
   0.33333331  0.33333334  0.46395420
   0.33643906  0.33399757  0.53318194
   0.30536531  0.33338234  0.60611476
   0.43103611  0.33328369  0.61266602
 
 position of ions in cartesian coordinates  (Angst):
   0.00000000  0.00000000  5.37155964
   2.56559554  0.00000000  5.37155964
   5.13119109  0.00000000  5.37155964
   1.28279762  2.22187100  5.37155964
   3.84839293  2.22187100  5.37155964
   6.41398872  2.22187100  5.37155964
   2.56559525  4.44374201  5.37155964
   5.13119102  4.44374201  5.37155964
   7.69678588  4.44374201  5.37155964
   1.28279775  0.74062365  7.46635991
   3.84839295  0.74062365  7.46635991
   6.41398873  0.74062365  7.46635991
   2.56559535  2.96249461  7.46635991
   5.13119101  2.96249461  7.46635991
   7.69678586  2.96249461  7.46635991
   3.84839268  5.18436521  7.46635991
   6.41398840  5.18436521  7.46635991
   8.97958418  5.18436521  7.46635991
   7.69678637  1.47855439  9.54201033
   2.56706335  1.48209476  9.56134047
   5.12972320  1.48209476  9.56134047
   8.97774150  3.70418166  9.56312425
   3.84839272  3.70142308  9.56134047
   6.41583081  3.70418166  9.56312425
  10.26471369  5.92633567  9.54201033
   5.12885856  5.92633567  9.54201033
   7.69678578  5.92286189  9.56312425
   0.00000000  0.00000000 11.64395601
   6.40055575  6.63872879 11.66708979
   8.99301641  6.63872879 11.66708979
   8.94958550  2.22368008 11.66708979
   6.44398724  2.22368008 11.66708979
  10.24581568  4.46881695 11.66708979
   5.14775699  4.46881695 11.66708979
   7.69678588  4.44374201 11.66625673
   3.84839293  2.22187100 11.77464531
   3.87485336  2.22629845 13.53156887
   3.63331773  2.22219757 15.38252335
   4.60019940  2.22154000 15.54878693
 


--------------------------------------------------------------------------------------------------------


 k-point   1 :   0.0000 0.0000 0.0000  plane waves:   33027
 k-point   2 :   0.1250 0.0000 0.0000  plane waves:   32999
 k-point   3 :   0.1250 0.1250 0.0000  plane waves:   32999
 k-point   4 :   0.0000 0.1250 0.0000  plane waves:   32999
 k-point   5 :   0.2500 0.0000 0.0000  plane waves:   33054
 k-point   6 :   0.2500 0.2500 0.0000  plane waves:   33054
 k-point   7 :   0.0000 0.2500 0.0000  plane waves:   33054
 k-point   8 :   0.3750 0.0000 0.0000  plane waves:   33036
 k-point   9 :   0.3750 0.3750 0.0000  plane waves:   33036
 k-point  10 :   0.0000 0.3750 0.0000  plane waves:   33036
 k-point  11 :   0.5000 0.0000 0.0000  plane waves:   33066
 k-point  12 :   0.5000 0.5000 0.0000  plane waves:   33066
 k-point  13 :   0.0000 0.5000 0.0000  plane waves:   33066
 k-point  14 :   0.2500 0.1250 0.0000  plane waves:   33058
 k-point  15 :   0.1250 0.2500 0.0000  plane waves:   33058
 k-point  16 :  -0.1250 0.1250 0.0000  plane waves:   33058
 k-point  17 :   0.3750 0.1250 0.0000  plane waves:   33072
 k-point  18 :   0.2500 0.3750 0.0000  plane waves:   33072
 k-point  19 :  -0.1250 0.2500 0.0000  plane waves:   33072
 k-point  20 :   0.2500-0.1250 0.0000  plane waves:   33072
 k-point  21 :  -0.1250-0.3750 0.0000  plane waves:   33072
 k-point  22 :  -0.3750-0.2500 0.0000  plane waves:   33072
 k-point  23 :   0.5000 0.1250 0.0000  plane waves:   33053
 k-point  24 :   0.3750 0.5000 0.0000  plane waves:   33053
 k-point  25 :  -0.1250 0.3750 0.0000  plane waves:   33053
 k-point  26 :   0.3750-0.1250 0.0000  plane waves:   33053
 k-point  27 :  -0.1250 0.5000 0.0000  plane waves:   33053
 k-point  28 :   0.5000-0.3750 0.0000  plane waves:   33053
 k-point  29 :   0.5000 0.2500 0.0000  plane waves:   33084
 k-point  30 :   0.2500 0.5000 0.0000  plane waves:   33084
 k-point  31 :  -0.2500 0.2500 0.0000  plane waves:   33084
 k-point  32 :  -0.3750 0.2500 0.0000  plane waves:   33108
 k-point  33 :   0.3750-0.3750 0.0000  plane waves:   33108
 k-point  34 :  -0.2500 0.3750 0.0000  plane waves:   33108

 maximum and minimum number of plane-waves per node :     33108    32999

 maximum number of plane-waves:     33108
 maximum index in each direction: 
   IXMAX=   14   IYMAX=   14   IZMAX=   46
   IXMIN=  -14   IYMIN=  -14   IZMIN=  -46


 serial   3D FFT for wavefunctions
 parallel 3D FFT for charge:
    minimum data exchange during FFTs selected (reduces bandwidth)


 total amount of memory used by VASP MPI-rank0   232064. kBytes
=======================================================================

   base      :      30000. kBytes
   nonlr-proj:      17584. kBytes
   fftplans  :       3394. kBytes
   grid      :      15015. kBytes
   one-center:        606. kBytes
   wavefun   :     165465. kBytes
 
     INWAV:  cpu time    0.0000: real time    0.0000
 initial charge density was supplied:
 number of electron     410.9999308 magnetization 
 keeping initial charge density in first step


--------------------------------------------------------------------------------------------------------


 Maximum index for non-local projection operator         2921
 Maximum index for augmentation-charges          435 (set IRDMAX)


--------------------------------------------------------------------------------------------------------


 First call to EWALD:  gamma=   0.162
 Maximum number of real-space cells 4x 4x 1
 Maximum number of reciprocal cells 2x 2x 6

    FEWALD:  cpu time    0.0014: real time    0.0014


--------------------------------------- Iteration      1(   1)  ---------------------------------------


    POTLOK:  cpu time    0.0313: real time    0.0316
    SETDIJ:  cpu time    0.0040: real time    0.0042
     EDDAV:  cpu time   22.1472: real time   22.1487
 BZINTS: Fermi energy:   12.941962;  411.000000 electrons
         Band energy: 0.214406E+04;  BLOECHL correction:   -0.050443
       DOS:  cpu time    0.0599: real time    0.0599
    --------------------------------------------
      LOOP:  cpu time   22.2424: real time   22.2445

 eigenvalue-minimisations  : 17136
 total energy-change (2. order) : 0.3877023E+04  (-0.1774342E+05)
 number of electron     410.9999308 magnetization 
 augmentation part      410.9999308 magnetization 

 Free energy of the ion-electron system (eV)
  ---------------------------------------------------
  alpha Z        PSCENC =       786.10866024
  Ewald energy   TEWEN  =    231524.05173618
  -Hartree energ DENC   =   -279616.40031044
  -exchange      EXHF   =         0.00000000
  -V(xc)+E(xc)   XCENC  =      1672.66196867
  PAW double counting   =     48209.61013791   -51959.63132671
  entropy T*S    EENTRO =         0.00000000
  eigenvalues    EBANDS =      2144.05977725
  atomic energy  EATOM  =     51116.56283023
  Solvation  Ediel_sol  =         0.00000000
  ---------------------------------------------------
  free energy    TOTEN  =      3877.02347332 eV

  energy without entropy =     3877.02347332  energy(sigma->0) =     3877.02347332


--------------------------------------------------------------------------------------------------------




--------------------------------------- Iteration      1(   2)  ---------------------------------------


     EDDAV:  cpu time   22.9352: real time   22.9355
 BZINTS: Fermi energy:    2.635083;  411.000000 electrons
         Band energy:-0.132800E+04;  BLOECHL correction:   -0.018717
       DOS:  cpu time    0.0601: real time    0.0601
    --------------------------------------------
      LOOP:  cpu time   22.9953: real time   22.9955

 eigenvalue-minimisations  : 17836
 total energy-change (2. order) :-0.3472058E+04  (-0.3350861E+04)
 number of electron     410.9999308 magnetization 
 augmentation part      410.9999308 magnetization 

 Free energy of the ion-electron system (eV)
  ---------------------------------------------------
  alpha Z        PSCENC =       786.10866024
  Ewald energy   TEWEN  =    231524.05173618
  -Hartree energ DENC   =   -279616.40031044
  -exchange      EXHF   =         0.00000000
  -V(xc)+E(xc)   XCENC  =      1672.66196867
  PAW double counting   =     48209.61013791   -51959.63132671
  entropy T*S    EENTRO =         0.00000000
  eigenvalues    EBANDS =     -1327.99862443
  atomic energy  EATOM  =     51116.56283023
  Solvation  Ediel_sol  =         0.00000000
  ---------------------------------------------------
  free energy    TOTEN  =       404.96507164 eV

  energy without entropy =      404.96507164  energy(sigma->0) =      404.96507164


--------------------------------------------------------------------------------------------------------




--------------------------------------- Iteration      1(   3)  ---------------------------------------


     EDDAV:  cpu time   23.9074: real time   23.9078
 BZINTS: Fermi energy:   -0.317886;  411.000000 electrons
         Band energy:-0.182869E+04;  BLOECHL correction:   -0.029266
       DOS:  cpu time    0.0534: real time    0.0534
    --------------------------------------------
      LOOP:  cpu time   23.9608: real time   23.9612

 eigenvalue-minimisations  : 18732
 total energy-change (2. order) :-0.5006916E+03  (-0.4786582E+03)
 number of electron     410.9999308 magnetization 
 augmentation part      410.9999308 magnetization 

 Free energy of the ion-electron system (eV)
  ---------------------------------------------------
  alpha Z        PSCENC =       786.10866024
  Ewald energy   TEWEN  =    231524.05173618
  -Hartree energ DENC   =   -279616.40031044
  -exchange      EXHF   =         0.00000000
  -V(xc)+E(xc)   XCENC  =      1672.66196867
  PAW double counting   =     48209.61013791   -51959.63132671
  entropy T*S    EENTRO =         0.00000000
  eigenvalues    EBANDS =     -1828.69019992
  atomic energy  EATOM  =     51116.56283023
  Solvation  Ediel_sol  =         0.00000000
  ---------------------------------------------------
  free energy    TOTEN  =       -95.72650385 eV

  energy without entropy =      -95.72650385  energy(sigma->0) =      -95.72650385


--------------------------------------------------------------------------------------------------------




--------------------------------------- Iteration      1(   4)  ---------------------------------------


     EDDAV:  cpu time   33.2574: real time   33.2578
 BZINTS: Fermi energy:   -0.792970;  411.000000 electrons
         Band energy:-0.187777E+04;  BLOECHL correction:   -0.030140
       DOS:  cpu time    0.0608: real time    0.0608
    --------------------------------------------
      LOOP:  cpu time   33.3183: real time   33.3186

 eigenvalue-minimisations  : 27832
 total energy-change (2. order) :-0.4908050E+02  (-0.4759512E+02)
 number of electron     410.9999308 magnetization 
 augmentation part      410.9999308 magnetization 

 Free energy of the ion-electron system (eV)
  ---------------------------------------------------
  alpha Z        PSCENC =       786.10866024
  Ewald energy   TEWEN  =    231524.05173618
  -Hartree energ DENC   =   -279616.40031044
  -exchange      EXHF   =         0.00000000
  -V(xc)+E(xc)   XCENC  =      1672.66196867
  PAW double counting   =     48209.61013791   -51959.63132671
  entropy T*S    EENTRO =         0.00000000
  eigenvalues    EBANDS =     -1877.77069951
  atomic energy  EATOM  =     51116.56283023
  Solvation  Ediel_sol  =         0.00000000
  ---------------------------------------------------
  free energy    TOTEN  =      -144.80700344 eV

  energy without entropy =     -144.80700344  energy(sigma->0) =     -144.80700344


--------------------------------------------------------------------------------------------------------




--------------------------------------- Iteration      1(   5)  ---------------------------------------


     EDDAV:  cpu time   32.1695: real time   32.1697
 BZINTS: Fermi energy:   -0.871874;  411.000000 electrons
         Band energy:-0.187981E+04;  BLOECHL correction:   -0.028110
       DOS:  cpu time    0.0598: real time    0.0598
    --------------------------------------------
      LOOP:  cpu time   32.2293: real time   32.2295

 eigenvalue-minimisations  : 26824
 total energy-change (2. order) :-0.2039819E+01  (-0.2010548E+01)
 number of electron     410.9999308 magnetization 
 augmentation part      410.9999308 magnetization 

 Free energy of the ion-electron system (eV)
  ---------------------------------------------------
  alpha Z        PSCENC =       786.10866024
  Ewald energy   TEWEN  =    231524.05173618
  -Hartree energ DENC   =   -279616.40031044
  -exchange      EXHF   =         0.00000000
  -V(xc)+E(xc)   XCENC  =      1672.66196867
  PAW double counting   =     48209.61013791   -51959.63132671
  entropy T*S    EENTRO =         0.00000000
  eigenvalues    EBANDS =     -1879.81051849
  atomic energy  EATOM  =     51116.56283023
  Solvation  Ediel_sol  =         0.00000000
  ---------------------------------------------------
  free energy    TOTEN  =      -146.84682242 eV

  energy without entropy =     -146.84682242  energy(sigma->0) =     -146.84682242


--------------------------------------------------------------------------------------------------------




--------------------------------------- Iteration      1(   6)  ---------------------------------------


    EDDIAG:  cpu time    4.3422: real time    4.3452
  RMM-DIIS:  cpu time   13.2980: real time   13.2981
    ORTHCH:  cpu time    0.8052: real time    0.8052
 BZINTS: Fermi energy:   -0.872861;  411.000000 electrons
         Band energy:-0.187986E+04;  BLOECHL correction:   -0.028276
       DOS:  cpu time    0.0599: real time    0.0599
    --------------------------------------------
      LOOP:  cpu time   18.5053: real time   18.5083

 eigenvalue-minimisations  : 19894
 total energy-change (2. order) :-0.4545104E-01  (-0.4536327E-01)
 number of electron     410.9999308 magnetization 
 augmentation part      410.9999308 magnetization 

 Free energy of the ion-electron system (eV)
  ---------------------------------------------------
  alpha Z        PSCENC =       786.10866024
  Ewald energy   TEWEN  =    231524.05173618
  -Hartree energ DENC   =   -279616.40031044
  -exchange      EXHF   =         0.00000000
  -V(xc)+E(xc)   XCENC  =      1672.66196867
  PAW double counting   =     48209.61013791   -51959.63132671
  entropy T*S    EENTRO =         0.00000000
  eigenvalues    EBANDS =     -1879.85596953
  atomic energy  EATOM  =     51116.56283023
  Solvation  Ediel_sol  =         0.00000000
  ---------------------------------------------------
  free energy    TOTEN  =      -146.89227347 eV

  energy without entropy =     -146.89227347  energy(sigma->0) =     -146.89227347


--------------------------------------------------------------------------------------------------------




--------------------------------------- Iteration      1(   7)  ---------------------------------------


    EDDIAG:  cpu time    4.3563: real time    4.3565
  RMM-DIIS:  cpu time   21.9887: real time   21.9888
    ORTHCH:  cpu time    0.8045: real time    0.8045
 BZINTS: Fermi energy:   -0.873454;  411.000000 electrons
         Band energy:-0.187988E+04;  BLOECHL correction:   -0.028364
       DOS:  cpu time    0.0585: real time    0.0585
    --------------------------------------------
      LOOP:  cpu time   27.2080: real time   27.2084

 eigenvalue-minimisations  : 32989
 total energy-change (2. order) :-0.2322021E-01  (-0.2276092E-01)
 number of electron     410.9999308 magnetization 
 augmentation part      410.9999308 magnetization 

 Free energy of the ion-electron system (eV)
  ---------------------------------------------------
  alpha Z        PSCENC =       786.10866024
  Ewald energy   TEWEN  =    231524.05173618
  -Hartree energ DENC   =   -279616.40031044
  -exchange      EXHF   =         0.00000000
  -V(xc)+E(xc)   XCENC  =      1672.66196867
  PAW double counting   =     48209.61013791   -51959.63132671
  entropy T*S    EENTRO =         0.00000000
  eigenvalues    EBANDS =     -1879.87918974
  atomic energy  EATOM  =     51116.56283023
  Solvation  Ediel_sol  =         0.00000000
  ---------------------------------------------------
  free energy    TOTEN  =      -146.91549368 eV

  energy without entropy =     -146.91549368  energy(sigma->0) =     -146.91549368


--------------------------------------------------------------------------------------------------------




--------------------------------------- Iteration      1(   8)  ---------------------------------------


    EDDIAG:  cpu time    4.3555: real time    4.3558
  RMM-DIIS:  cpu time   22.4153: real time   22.4154
    ORTHCH:  cpu time    0.8054: real time    0.8054
 BZINTS: Fermi energy:   -0.873577;  411.000000 electrons
         Band energy:-0.187989E+04;  BLOECHL correction:   -0.028381
       DOS:  cpu time    0.0612: real time    0.0612
    --------------------------------------------
      LOOP:  cpu time   27.6375: real time   27.6378

 eigenvalue-minimisations  : 33972
 total energy-change (2. order) :-0.6675724E-02  (-0.6296187E-02)
 number of electron     410.9999308 magnetization 
 augmentation part      410.9999308 magnetization 

 Free energy of the ion-electron system (eV)
  ---------------------------------------------------
  alpha Z        PSCENC =       786.10866024
  Ewald energy   TEWEN  =    231524.05173618
  -Hartree energ DENC   =   -279616.40031044
  -exchange      EXHF   =         0.00000000
  -V(xc)+E(xc)   XCENC  =      1672.66196867
  PAW double counting   =     48209.61013791   -51959.63132671
  entropy T*S    EENTRO =         0.00000000
  eigenvalues    EBANDS =     -1879.88586547
  atomic energy  EATOM  =     51116.56283023
  Solvation  Ediel_sol  =         0.00000000
  ---------------------------------------------------
  free energy    TOTEN  =      -146.92216940 eV

  energy without entropy =     -146.92216940  energy(sigma->0) =     -146.92216940


--------------------------------------------------------------------------------------------------------




--------------------------------------- Iteration      1(   9)  ---------------------------------------


    EDDIAG:  cpu time    4.3598: real time    4.3600
  RMM-DIIS:  cpu time   21.9196: real time   21.9197
    ORTHCH:  cpu time    0.8046: real time    0.8046
 BZINTS: Fermi energy:   -0.873622;  411.000000 electrons
         Band energy:-0.187989E+04;  BLOECHL correction:   -0.028385
       DOS:  cpu time    0.0586: real time    0.0586
    --------------------------------------------
      LOOP:  cpu time   27.1425: real time   27.1428

 eigenvalue-minimisations  : 33017
 total energy-change (2. order) :-0.3137224E-02  (-0.2953347E-02)
 number of electron     410.9999308 magnetization 
 augmentation part      410.9999308 magnetization 

 Free energy of the ion-electron system (eV)
  ---------------------------------------------------
  alpha Z        PSCENC =       786.10866024
  Ewald energy   TEWEN  =    231524.05173618
  -Hartree energ DENC   =   -279616.40031044
  -exchange      EXHF   =         0.00000000
  -V(xc)+E(xc)   XCENC  =      1672.66196867
  PAW double counting   =     48209.61013791   -51959.63132671
  entropy T*S    EENTRO =         0.00000000
  eigenvalues    EBANDS =     -1879.88900269
  atomic energy  EATOM  =     51116.56283023
  Solvation  Ediel_sol  =         0.00000000
  ---------------------------------------------------
  free energy    TOTEN  =      -146.92530662 eV

  energy without entropy =     -146.92530662  energy(sigma->0) =     -146.92530662


--------------------------------------------------------------------------------------------------------




--------------------------------------- Iteration      1(  10)  ---------------------------------------


    EDDIAG:  cpu time    4.3576: real time    4.3577
  RMM-DIIS:  cpu time   21.0565: real time   21.0566
    ORTHCH:  cpu time    0.8057: real time    0.8058
 BZINTS: Fermi energy:   -0.873644;  411.000000 electrons
         Band energy:-0.187989E+04;  BLOECHL correction:   -0.028386
       DOS:  cpu time    0.0586: real time    0.0586
    --------------------------------------------
      LOOP:  cpu time   26.2784: real time   26.2786

 eigenvalue-minimisations  : 31182
 total energy-change (2. order) :-0.1616832E-02  (-0.1542041E-02)
 number of electron     410.9999308 magnetization 
 augmentation part      410.9999308 magnetization 

 Free energy of the ion-electron system (eV)
  ---------------------------------------------------
  alpha Z        PSCENC =       786.10866024
  Ewald energy   TEWEN  =    231524.05173618
  -Hartree energ DENC   =   -279616.40031044
  -exchange      EXHF   =         0.00000000
  -V(xc)+E(xc)   XCENC  =      1672.66196867
  PAW double counting   =     48209.61013791   -51959.63132671
  entropy T*S    EENTRO =         0.00000000
  eigenvalues    EBANDS =     -1879.89061952
  atomic energy  EATOM  =     51116.56283023
  Solvation  Ediel_sol  =         0.00000000
  ---------------------------------------------------
  free energy    TOTEN  =      -146.92692346 eV

  energy without entropy =     -146.92692346  energy(sigma->0) =     -146.92692346


--------------------------------------------------------------------------------------------------------




--------------------------------------- Iteration      1(  11)  ---------------------------------------


    EDDIAG:  cpu time    4.3544: real time    4.3546
  RMM-DIIS:  cpu time   20.9537: real time   20.9538
    ORTHCH:  cpu time    0.8051: real time    0.8051
 BZINTS: Fermi energy:   -0.873654;  411.000000 electrons
         Band energy:-0.187989E+04;  BLOECHL correction:   -0.028387
       DOS:  cpu time    0.0613: real time    0.0613
    --------------------------------------------
      LOOP:  cpu time   26.1745: real time   26.1749

 eigenvalue-minimisations  : 30941
 total energy-change (2. order) :-0.8649355E-03  (-0.8365323E-03)
 number of electron     410.9999308 magnetization 
 augmentation part      410.9999308 magnetization 

 Free energy of the ion-electron system (eV)
  ---------------------------------------------------
  alpha Z        PSCENC =       786.10866024
  Ewald energy   TEWEN  =    231524.05173618
  -Hartree energ DENC   =   -279616.40031044
  -exchange      EXHF   =         0.00000000
  -V(xc)+E(xc)   XCENC  =      1672.66196867
  PAW double counting   =     48209.61013791   -51959.63132671
  entropy T*S    EENTRO =         0.00000000
  eigenvalues    EBANDS =     -1879.89148446
  atomic energy  EATOM  =     51116.56283023
  Solvation  Ediel_sol  =         0.00000000
  ---------------------------------------------------
  free energy    TOTEN  =      -146.92778839 eV

  energy without entropy =     -146.92778839  energy(sigma->0) =     -146.92778839


--------------------------------------------------------------------------------------------------------




--------------------------------------- Iteration      1(  12)  ---------------------------------------


    EDDIAG:  cpu time    4.3464: real time    4.3465
  RMM-DIIS:  cpu time   19.7687: real time   19.7688
    ORTHCH:  cpu time    0.8044: real time    0.8044
 BZINTS: Fermi energy:   -0.873660;  411.000000 electrons
         Band energy:-0.187989E+04;  BLOECHL correction:   -0.028387
       DOS:  cpu time    0.0547: real time    0.0547
    --------------------------------------------
      LOOP:  cpu time   24.9743: real time   24.9745

 eigenvalue-minimisations  : 29252
 total energy-change (2. order) :-0.4693790E-03  (-0.4562674E-03)
 number of electron     410.9999308 magnetization 
 augmentation part      410.9999308 magnetization 

 Free energy of the ion-electron system (eV)
  ---------------------------------------------------
  alpha Z        PSCENC =       786.10866024
  Ewald energy   TEWEN  =    231524.05173618
  -Hartree energ DENC   =   -279616.40031044
  -exchange      EXHF   =         0.00000000
  -V(xc)+E(xc)   XCENC  =      1672.66196867
  PAW double counting   =     48209.61013791   -51959.63132671
  entropy T*S    EENTRO =         0.00000000
  eigenvalues    EBANDS =     -1879.89195384
  atomic energy  EATOM  =     51116.56283023
  Solvation  Ediel_sol  =         0.00000000
  ---------------------------------------------------
  free energy    TOTEN  =      -146.92825777 eV

  energy without entropy =     -146.92825777  energy(sigma->0) =     -146.92825777


--------------------------------------------------------------------------------------------------------




--------------------------------------- Iteration      1(  13)  ---------------------------------------


    EDDIAG:  cpu time    4.3333: real time    4.3336
WARNING in EDDRMM: call to ZHEGV failed, returncode =   6  3      3
  RMM-DIIS:  cpu time   18.9433: real time   18.9434
    ORTHCH:  cpu time    0.8056: real time    0.8056
 BZINTS: Fermi energy:   -0.873664;  411.000000 electrons
[...]
  0.000   0.000   0.000   0.000   0.000   0.000   0.000   0.000   0.000   0.000   1.000   0.000   0.000   0.000   0.000   0.000
  0.000   0.000   0.000   0.000   0.000   0.000   0.000   0.000   0.000   0.000   0.000   0.000   0.000   0.000   0.000   0.000
  0.000   0.000   0.000   0.000   0.000   0.000   0.000   0.000   0.000   0.000   0.000   0.000   0.000   0.000   0.000   0.000
  0.000   0.000   0.000   0.000   0.000   0.000   0.000   0.000   0.000   0.000   0.000   0.000   0.000   0.000   0.000   0.000
  0.000   0.000   0.000   0.000   0.000   0.000   0.000   0.000   0.000   0.000   0.000   0.000   0.000   0.000   0.000   0.000
  0.000   0.000   0.000   0.000   0.000   0.000   0.000   0.000   0.000   0.000   0.000   0.000   0.000   0.000   0.000   0.000
  0.000   0.000   0.000   0.000   0.000   0.000   0.000   0.000   0.000   0.000   0.000   0.000   0.000   0.000   0.000   0.000
  0.000   0.000   0.000   0.000   0.000   0.000   0.000   0.000   0.000   0.000   0.000   0.000   0.000   0.000   0.000   0.000


------------------------ aborting loop because EDIFF is reached ----------------------------------------





 total charge

# of ion       s       p       d       tot
------------------------------------------
    1        0.448   0.284   9.186   9.918
    2        0.449   0.284   9.185   9.918
    3        0.449   0.284   9.185   9.918
    4        0.449   0.284   9.185   9.918
    5        0.445   0.285   9.184   9.914
    6        0.448   0.284   9.185   9.917
    7        0.449   0.284   9.185   9.918
    8        0.448   0.284   9.185   9.918
    9        0.448   0.283   9.186   9.917
   10        0.442   0.371   9.176   9.989
   11        0.441   0.365   9.182   9.987
   12        0.442   0.371   9.176   9.989
   13        0.441   0.365   9.182   9.987
   14        0.441   0.365   9.182   9.987
   15        0.438   0.370   9.177   9.985
   16        0.442   0.371   9.176   9.989
   17        0.438   0.370   9.177   9.985
   18        0.438   0.370   9.177   9.985
   19        0.443   0.367   9.184   9.994
   20        0.459   0.390   9.167  10.016
   21        0.460   0.388   9.168  10.016
   22        0.433   0.373   9.177   9.983
   23        0.459   0.389   9.168  10.016
   24        0.433   0.373   9.177   9.984
   25        0.443   0.367   9.184   9.994
   26        0.443   0.367   9.184   9.994
   27        0.433   0.373   9.177   9.983
   28        0.451   0.294   9.180   9.925
   29        0.476   0.311   9.172   9.959
   30        0.476   0.312   9.172   9.960
   31        0.476   0.312   9.171   9.959
   32        0.476   0.312   9.172   9.961
   33        0.476   0.311   9.172   9.959
   34        0.476   0.311   9.172   9.960
   35        0.448   0.299   9.179   9.926
   36        2.229   6.042   2.541  10.812
   37        1.614   3.280   0.000   4.894
   38        1.604   3.317   0.000   4.921
   39        0.624   0.114   0.000   0.738
--------------------------------------------------
tot         21.826  24.477 323.788 370.091
 
    CHARGE:  cpu time    0.8313: real time    0.8314
    FORLOC:  cpu time    0.0095: real time    0.0095
    FORNL :  cpu time    4.3474: real time    4.3477
    STRESS:  cpu time   13.0276: real time   13.0279
    FORCOR:  cpu time    0.0328: real time    0.0328
    FORHAR:  cpu time    0.0144: real time    0.0146
    OFIELD:  cpu time    0.0002: real time    0.0002

  FORCE on cell =-STRESS in cart. coord.  units (eV):
  Direction    XX          YY          ZZ          XY          YZ          ZX
  --------------------------------------------------------------------------------------
  Alpha Z   786.10866   786.10866   786.10866
  Ewald  257922.60322257827.60360************    -0.01530     0.10169    -3.91752
  Hartree270800.38752270780.10055************     0.00468    -0.19123   -14.74491
  E(xc)   -2368.21456 -2368.61331 -2372.25116    -0.00048     0.00184     0.05056
  Local  ************************541616.43866     0.08298     0.02172    20.79854
  n-local  -814.63624  -814.77527  -822.64039    -0.04344    -0.01685    -0.58227
  augment  3336.33259  3338.20909  3358.30054    -0.01216     0.01073     0.06847
  Kinetic  3645.71623  3671.67750  3663.53209    -0.05787     0.06527    -1.96299
  Fock        0.00000     0.00000     0.00000     0.00000     0.00000     0.00000
  -------------------------------------------------------------------------------------
  Total      -4.11958    -3.93406    -2.15872    -0.04160    -0.00684    -0.29012
  in kB      -5.06922    -4.84094    -2.65634    -0.05119    -0.00841    -0.35700
  external pressure =       -4.19 kB  Pullay stress =        0.00 kB


 VOLUME and BASIS-vectors are now :
 -----------------------------------------------------------------------------
  energy-cutoff  :      500.00
  volume of cell :     1302.03
      direct lattice vectors                 reciprocal lattice vectors
     7.696786404  0.000000000  0.000000000     0.129924354 -0.075011849  0.000000000
     3.848392758  6.665612809  0.000000000     0.000000000  0.150023716  0.000000000
     0.000000000  0.000000000 25.378895643     0.000000000  0.000000000  0.039402818

  length of vectors
     7.696786404  7.696786404 25.378895643     0.150023716  0.150023716  0.039402818


 FORCES acting on ions
    electron-ion (+dipol)            ewald-force                    non-local-force                 convergence-correction
 -----------------------------------------------------------------------------------------------
   0.912E-02 -.389E-02 0.393E+04   0.527E-03 -.364E-03 -.393E+04   -.137E-01 0.875E-04 -.229E+01   0.290E-02 0.408E-02 -.175E+00
   -.451E+00 0.238E+00 0.393E+04   0.383E+00 -.792E-01 -.393E+04   -.369E-02 -.629E-01 -.187E+01   0.662E-01 -.909E-01 -.963E-01
   0.442E+00 0.178E+00 0.393E+04   -.383E+00 -.801E-01 -.393E+04   0.180E-01 -.321E-01 -.183E+01   -.691E-01 -.613E-01 -.822E-01
   -.404E-01 -.524E+00 0.393E+04   0.123E+00 0.371E+00 -.393E+04   -.396E-01 0.299E-01 -.187E+01   -.439E-01 0.114E+00 -.976E-01
   -.152E-01 -.106E-01 0.393E+04   -.891E-03 -.688E-03 -.393E+04   -.156E-01 -.667E-02 -.214E+01   0.331E-01 0.179E-01 -.435E-01
   0.533E-01 -.495E+00 0.393E+04   -.122E+00 0.371E+00 -.393E+04   0.446E-01 0.940E-02 -.184E+01   0.231E-01 0.108E+00 -.924E-01
   0.404E+00 0.311E+00 0.393E+04   -.261E+00 -.291E+00 -.393E+04   -.328E-01 0.212E-01 -.185E+01   -.101E+00 -.344E-01 -.825E-01
   -.429E+00 0.286E+00 0.393E+04   0.260E+00 -.291E+00 -.393E+04   0.514E-01 0.382E-01 -.186E+01   0.112E+00 -.327E-01 -.926E-01
   0.217E-01 0.180E-01 0.393E+04   0.745E-03 0.104E-02 -.393E+04   -.352E-02 0.339E-02 -.210E+01   -.204E-01 -.225E-01 -.555E-01
   -.273E+01 -.158E+01 0.143E+04   0.291E+01 0.167E+01 -.142E+04   -.269E+00 -.162E+00 -.833E+00   0.111E+00 0.769E-01 -.959E+00
   -.457E-02 0.799E+00 0.142E+04   -.559E-02 -.112E+01 -.142E+04   -.873E-02 0.214E+00 -.606E+00   0.215E-01 0.528E-01 -.971E+00
   0.273E+01 -.158E+01 0.142E+04   -.290E+01 0.167E+01 -.142E+04   0.276E+00 -.153E+00 -.722E+00   -.118E+00 0.743E-01 -.956E+00
   0.684E+00 -.407E+00 0.142E+04   -.964E+00 0.553E+00 -.142E+04   0.187E+00 -.117E+00 -.614E+00   0.484E-01 -.201E-02 -.971E+00
   -.709E+00 -.416E+00 0.142E+04   0.957E+00 0.556E+00 -.142E+04   -.191E+00 -.109E+00 -.579E+00   -.121E-01 -.698E-02 -.967E+00
   -.977E-02 -.343E+01 0.142E+04   0.668E-02 0.328E+01 -.142E+04   0.109E-01 0.712E-01 -.712E+00   -.608E-02 0.892E-01 -.991E+00
   -.317E-02 0.316E+01 0.143E+04   -.125E-02 -.335E+01 -.142E+04   0.101E-01 0.313E+00 -.779E+00   -.681E-02 -.148E+00 -.953E+00
   -.296E+01 0.171E+01 0.142E+04   0.284E+01 -.163E+01 -.142E+04   0.538E-01 -.196E-01 -.699E+00   0.755E-01 -.617E-01 -.983E+00
   0.298E+01 0.173E+01 0.142E+04   -.284E+01 -.164E+01 -.142E+04   -.782E-01 -.471E-01 -.730E+00   -.717E-01 -.544E-01 -.992E+00
   -.501E-01 -.168E+01 -.110E+04   0.346E-01 0.158E+01 0.110E+04   0.249E-01 0.210E-01 0.117E+01   -.120E-02 0.584E-01 -.111E+01
   0.109E+02 0.630E+01 -.110E+04   -.104E+02 -.602E+01 0.110E+04   -.673E+00 -.383E+00 -.714E-01   -.555E-01 -.169E-01 -.135E+01
   -.108E+02 0.635E+01 -.110E+04   0.103E+02 -.606E+01 0.110E+04   0.626E+00 -.411E+00 0.312E-01   0.872E-01 -.104E-01 -.136E+01
   0.387E+01 -.225E+01 -.112E+04   -.415E+01 0.243E+01 0.112E+04   0.368E+00 -.212E+00 0.103E+01   -.297E-01 0.388E-02 -.121E+01
   0.715E-01 -.126E+02 -.110E+04   -.500E-01 0.120E+02 0.110E+04   -.453E-01 0.753E+00 0.606E-02   0.211E-01 0.776E-01 -.135E+01
   -.394E+01 -.232E+01 -.112E+04   0.420E+01 0.247E+01 0.112E+04   -.352E+00 -.192E+00 0.104E+01   0.217E-01 0.106E-01 -.121E+01
   0.148E+01 0.877E+00 -.110E+04   -.140E+01 -.816E+00 0.110E+04   -.234E-01 -.293E-01 0.118E+01   -.368E-01 -.270E-01 -.112E+01
   -.149E+01 0.826E+00 -.110E+04   0.141E+01 -.782E+00 0.110E+04   0.179E-01 0.945E-03 0.116E+01   0.424E-01 -.312E-01 -.111E+01
   0.244E-01 0.450E+01 -.112E+04   -.990E-02 -.480E+01 0.112E+04   -.742E-02 0.413E+00 0.104E+01   -.992E-02 -.432E-01 -.121E+01
   -.400E-01 0.160E+00 -.367E+04   -.579E-01 -.167E+00 0.367E+04   0.700E-01 -.669E-02 0.161E+01   0.267E-01 0.140E-01 -.827E+00
   0.355E+02 0.530E+02 -.365E+04   -.353E+02 -.530E+02 0.365E+04   -.324E+00 -.149E+00 0.212E+01   -.554E-01 -.623E-01 -.796E+00
   -.356E+02 0.533E+02 -.365E+04   0.354E+02 -.534E+02 0.365E+04   0.320E+00 -.456E-01 0.211E+01   0.872E-02 -.522E-01 -.807E+00
   0.636E+02 0.453E+01 -.365E+04   -.634E+02 -.429E+01 0.365E+04   -.306E+00 -.218E+00 0.211E+01   -.923E-01 -.159E-01 -.791E+00
   -.641E+02 0.451E+01 -.365E+04   0.642E+02 -.430E+01 0.365E+04   0.133E+00 -.217E+00 0.205E+01   0.491E-01 0.682E-02 -.814E+00
   0.281E+02 -.577E+02 -.365E+04   -.282E+02 0.575E+02 0.365E+04   0.779E-01 0.362E+00 0.215E+01   -.412E-01 0.373E-01 -.809E+00
   -.282E+02 -.579E+02 -.365E+04   0.284E+02 0.579E+02 0.365E+04   -.745E-01 0.271E+00 0.210E+01   0.253E-01 0.335E-01 -.822E+00
   0.446E-01 -.295E+00 -.369E+04   -.581E-01 0.299E+00 0.369E+04   0.375E-01 0.160E-01 0.190E+01   -.249E-01 -.214E-01 -.734E+00
   0.316E+01 0.871E+00 -.406E+04   -.327E+01 -.869E+00 0.407E+04   0.999E-01 -.538E-02 -.260E+01   0.209E-01 0.108E-01 -.125E+01
   -.143E+02 -.722E+00 -.246E+04   0.150E+02 0.807E+00 0.247E+04   -.691E+00 -.807E-01 -.169E+02   0.511E-01 -.357E-02 -.865E+00
   0.670E+02 0.257E+00 -.209E+04   -.106E+03 -.247E+00 0.209E+04   0.394E+02 -.985E-02 -.272E+00   -.975E-01 0.820E-03 0.206E+00
   -.858E+02 0.968E-01 -.349E+03   0.935E+02 -.102E+00 0.350E+03   -.792E+01 0.548E-02 -.140E+01   0.167E+00 -.769E-04 0.457E-01
 -----------------------------------------------------------------------------------------------
   -.308E+02 0.142E+00 0.512E+02   0.128E-12 0.281E-12 0.841E-11   0.307E+02 -.126E+00 -.223E+02   0.121E+00 -.777E-02 -.288E+02
 
 
 POSITION                                       TOTAL-FORCE (eV/Angst)
 -----------------------------------------------------------------------------------
      0.00000      0.00000      5.37156        -0.003549     -0.000302      0.023080
      2.56560      0.00000      5.37156        -0.008105      0.004535      0.046632
      5.13119      0.00000      5.37156         0.004754      0.004310      0.048358
      1.28280      2.22187      5.37156        -0.003042     -0.009966      0.045082
      3.84839      2.22187      5.37156        -0.000977     -0.000315      0.044764
      6.41399      2.22187      5.37156        -0.003767     -0.006713      0.051617
      2.56560      4.44374      5.37156         0.006598      0.005990      0.045188
      5.13119      4.44374      5.37156        -0.008993      0.001177      0.050665
      7.69679      4.44374      5.37156        -0.003938     -0.000305      0.022034
      1.28280      0.74062      7.46636         0.017598      0.011161     -0.095801
      3.84839      0.74062      7.46636         0.000174     -0.051037     -0.064176
      6.41399      0.74062      7.46636        -0.020508      0.008782     -0.090247
      2.56560      2.96249      7.46636        -0.046611      0.027193     -0.069872
      5.13119      2.96249      7.46636         0.042444      0.024574     -0.057719
      7.69679      2.96249      7.46636        -0.000734      0.014545      0.022948
      3.84839      5.18437      7.46636        -0.003608     -0.021651     -0.093158
      6.41399      5.18437      7.46636         0.010399     -0.006282      0.020589
      8.97958      5.18437      7.46636        -0.014177     -0.007781      0.024936
      7.69679      1.47855      9.54201         0.005805     -0.018496      0.024608
      2.56706      1.48209      9.56134        -0.205936     -0.115281     -0.333886
      5.12972      1.48209      9.56134         0.226457     -0.133813     -0.355127
      8.97774      3.70418      9.56312         0.054077     -0.034756      0.026503
      3.84839      3.70142      9.56134        -0.005268      0.248390     -0.343123
      6.41583      3.70418      9.56312        -0.067663     -0.036620      0.029568
     10.26471      5.92634      9.54201         0.014365      0.004711      0.027260
      5.12886      5.92634      9.54201        -0.016919      0.013097      0.027365
      7.69679      5.92286      9.56312        -0.005297      0.068322      0.029062
      0.00000      0.00000     11.64396        -0.003542      0.000768     -0.068366
      6.40056      6.63873     11.66709        -0.128417     -0.222693     -0.147160
      8.99302      6.63873     11.66709         0.128220     -0.226517     -0.176848
      8.94959      2.22368     11.66709        -0.257001      0.001428     -0.137185
      6.44399      2.22368     11.66709         0.263184     -0.002029     -0.203337
     10.24582      4.46882     11.66709        -0.132455      0.222139     -0.145421
      5.14776      4.46882     11.66709         0.128011      0.225717     -0.180750
      7.69679      4.44374     11.66626        -0.003222     -0.001619     -0.043870
      3.84839      2.22187     11.77465         0.003210      0.007807      2.000940
      3.87485      2.22630     13.53157         0.021623      0.000358     -0.148365
      3.63332      2.22220     15.38252         0.122432      0.000877      0.152028
      4.60020      2.22154     15.54879        -0.105621      0.000295     -0.008818
 -----------------------------------------------------------------------------------
    total drift:                                0.094985      0.008314      0.041188


--------------------------------------------------------------------------------------------------------



  FREE ENERGIE OF THE ION-ELECTRON SYSTEM (eV)
  ---------------------------------------------------
  free  energy   TOTEN  =      -146.92887573 eV

  energy  without entropy=     -146.92887573  energy(sigma->0) =     -146.92887573
 


--------------------------------------------------------------------------------------------------------


    POTLOK:  cpu time    0.0335: real time    0.0335


--------------------------------------------------------------------------------------------------------


 stress matrix after NEB project (eV)
     -4.11958     -0.04160     -0.29012
     -0.04160     -3.93406     -0.00684
     -0.29012     -0.00684     -2.15872
  FORCES: max atom, RMS     0.195199    0.042912
  FORCE total and by dimension    0.267985    0.152028
  Stress total and by dimension    6.105711    4.119578
     LOOP+:  cpu time  491.4754: real time  491.4919
 -----------------------------------------------------------------------------
|                                                                             |
|           W    W    AA    RRRRR   N    N  II  N    N   GGGG   !!!           |
|           W    W   A  A   R    R  NN   N  II  NN   N  G    G  !!!           |
|           W    W  A    A  R    R  N N  N  II  N N  N  G       !!!           |
|           W WW W  AAAAAA  RRRRR   N  N N  II  N  N N  G  GGG   !            |
|           WW  WW  A    A  R   R   N   NN  II  N   NN  G    G                |
|           W    W  A    A  R    R  N    N  II  N    N   GGGG   !!!           |
|                                                                             |
|     Tetrahedron method does not include variations of the Fermi             |
|     occupations, so forces and stress will be inaccurate. We suggest        |
|     using a different smearing scheme ISMEAR = 1 or 2 for metals in         |
|     relaxations.                                                            |
|                                                                             |
 -----------------------------------------------------------------------------

    4ORBIT:  cpu time    0.0000: real time    0.0000



 total charge

# of ion       s       p       d       tot
------------------------------------------
    1        0.448   0.284   9.186   9.918
    2        0.449   0.284   9.185   9.918
    3        0.449   0.284   9.185   9.918
    4        0.449   0.284   9.185   9.918
    5        0.445   0.285   9.184   9.914
    6        0.448   0.284   9.185   9.917
    7        0.449   0.284   9.185   9.918
    8        0.448   0.284   9.185   9.918
    9        0.448   0.283   9.186   9.917
   10        0.442   0.371   9.176   9.989
   11        0.441   0.365   9.182   9.987
   12        0.442   0.371   9.176   9.989
   13        0.441   0.365   9.182   9.987
   14        0.441   0.365   9.182   9.987
   15        0.438   0.370   9.177   9.985
   16        0.442   0.371   9.176   9.989
   17        0.438   0.370   9.177   9.985
   18        0.438   0.370   9.177   9.985
   19        0.443   0.367   9.184   9.994
   20        0.459   0.390   9.167  10.016
   21        0.460   0.388   9.168  10.016
   22        0.433   0.373   9.177   9.983
   23        0.459   0.389   9.168  10.016
   24        0.433   0.373   9.177   9.984
   25        0.443   0.367   9.184   9.994
   26        0.443   0.367   9.184   9.994
   27        0.433   0.373   9.177   9.983
   28        0.451   0.294   9.180   9.925
   29        0.476   0.311   9.172   9.959
   30        0.476   0.312   9.172   9.960
   31        0.476   0.312   9.171   9.959
   32        0.476   0.312   9.172   9.961
   33        0.476   0.311   9.172   9.959
   34        0.476   0.311   9.172   9.960
   35        0.448   0.299   9.179   9.926
   36        2.229   6.042   2.541  10.812
   37        1.614   3.280   0.000   4.894
   38        1.604   3.317   0.000   4.921
   39        0.624   0.114   0.000   0.738
--------------------------------------------------
tot         21.826  24.477 323.788 370.091
 
 BZINTS: Fermi energy:   -0.873668;  411.000000 electrons
         Band energy:-0.187989E+04;  BLOECHL correction:   -0.028389

 total amount of memory used by VASP MPI-rank0   232064. kBytes
=======================================================================

   base      :      30000. kBytes
   nonlr-proj:      17584. kBytes
   fftplans  :       3394. kBytes
   grid      :      15015. kBytes
   one-center:        606. kBytes
   wavefun   :     165465. kBytes
 
  
  
 General timing and accounting informations for this job:
 ========================================================
  
                  Total CPU time used (sec):      511.089
                            User time (sec):      497.312
                          System time (sec):       13.776
                         Elapsed time (sec):      511.467
  
                   Maximum memory used (kb):      514580.
                   Average memory used (kb):          N/A
  
                          Minor page faults:       154954
                          Major page faults:            0
                 Voluntary context switches:         9187
