 vasp.6.2.0 18Jan21 (build Jun 12 2021 23:27:24) complex                        
  
 executed on             LinuxIFC date 2022.05.30  16:46:01
 running on   28 total cores
 distrk:  each k-point on   28 cores,    1 groups
 distr:  one band on NCORE=   1 cores,   28 groups


--------------------------------------------------------------------------------------------------------


 INCAR:
   ISMEAR = -5
   SIGMA = 0.1
   ISPIN = 1
   EDIFF = 1.d-5
   EDIFFG = -0.01
   NSW = 0
   NELM = 150
   ENCUT = 500
   ISIF = 2
   IBRION = 2
   LREAL = Auto
   ALGO = Fast
   ICHARG = 11
   LORBIT = 10
   LCHARG = .F.
   LWAVE = .F.

 POTCAR:    PAW_PBE Au 04Oct2007                  
 POTCAR:    PAW_PBE Pt 04Feb2005                  
 POTCAR:    PAW_PBE O 08Apr2002                   
 -----------------------------------------------------------------------------
|                                                                             |
|           W    W    AA    RRRRR   N    N  II  N    N   GGGG   !!!           |
|           W    W   A  A   R    R  NN   N  II  NN   N  G    G  !!!           |
|           W    W  A    A  R    R  N N  N  II  N N  N  G       !!!           |
|           W WW W  AAAAAA  RRRRR   N  N N  II  N  N N  G  GGG   !            |
|           WW  WW  A    A  R   R   N   NN  II  N   NN  G    G                |
|           W    W  A    A  R    R  N    N  II  N    N   GGGG   !!!           |
|                                                                             |
|     For optimal performance we recommend to set                             |
|       NCORE = 2 up to number-of-cores-per-socket                            |
|     NCORE specifies how many cores store one orbital (NPAR=cpu/NCORE).      |
|     This setting can greatly improve the performance of VASP for DFT.       |
|     The default, NCORE=1 might be grossly inefficient on modern             |
|     multi-core architectures or massively parallel machines. Do your        |
|     own testing! More info at https://www.vasp.at/wiki/index.php/NCORE      |
|     Unfortunately you need to use the default for GW and RPA                |
|     calculations (for HF NCORE is supported but not extensively tested      |
|     yet).                                                                   |
|                                                                             |
 -----------------------------------------------------------------------------

 POTCAR:    PAW_PBE Au 04Oct2007                  
   VRHFIN =Au: s1d10                                                                                
   LEXCH  = PE                                                                                      
   EATOM  =   926.0867 eV,   68.0654 Ry                                                             
                                                                                                    
   TITEL  = PAW_PBE Au 04Oct2007                                                                    
   LULTRA =        F    use ultrasoft PP ?                                                          
   IUNSCR =        1    unscreen: 0-lin 1-nonlin 2-no                                               
   RPACOR =    2.330    partial core radius                                                         
   POMASS =  196.966; ZVAL   =   11.000    mass and valenz                                          
   RCORE  =    2.500    outmost cutoff radius                                                       
   RWIGS  =    2.840; RWIGS  =    1.503    wigner-seitz radius (au A)                               
   ENMAX  =  229.943; ENMIN  =  172.457 eV                                                          
   ICORE  =        3    local potential                                                             
   LCOR   =        T    correct aug charges                                                         
   LPAW   =        T    paw PP                                                                      
   EAUG   =  356.670                                                                                
   DEXC   =    0.000                                                                                
   RMAX   =    2.562    core radius for proj-oper                                                   
   RAUG   =    1.300    factor for augmentation sphere                                              
   RDEP   =    2.598    radius for radial grids                                                     
   RDEPT  =    2.193    core radius for aug-charge                                                  
                                                                                                    
   Atomic configuration                                                                             
   16 entries                                                                                       
     n  l   j            E        occ.                                                              
     1  0  0.50    -80748.5001   2.0000                                                             
     2  0  0.50    -14244.7466   2.0000                                                             
     2  1  1.50    -12310.9591   6.0000                                                             
     3  0  0.50     -3362.1768   2.0000                                                             
     3  1  1.50     -2801.5463   6.0000                                                             
     3  2  2.50     -2203.8206  10.0000                                                             
     4  0  0.50      -729.8168   2.0000                                                             
     4  1  1.50      -546.0527   6.0000                                                             
     4  2  2.50      -325.7302  10.0000                                                             
     4  3  3.50       -81.1472  14.0000                                                             
     5  0  0.50      -108.3201   2.0000                                                             
     5  1  1.50       -59.7479   6.0000                                                             
     5  2  2.50        -6.8783  10.0000                                                             
     6  0  0.50        -5.7602   1.0000                                                             
     6  1  1.50        -6.8029   0.0000                                                             
     5  3  2.50        -1.3606   0.0000                                                             
   Description                                                                                      
     l       E           TYP  RCUT    TYP  RCUT                                                     
     2     -6.8782861     23  2.500                                                                 
     2     -8.2388687     23  2.500                                                                 
     0     -5.7601759     23  2.500                                                                 
     0     -0.8493231     23  2.500                                                                 
     1     -2.7211652     23  2.500                                                                 
     1     27.2116520     23  2.500                                                                 
     3     -1.3605826     23  2.500                                                                 
  local pseudopotential read in
  partial core-charges read in
  partial kinetic energy density read in
  atomic valenz-charges read in
  non local Contribution for L=           2  read in
    real space projection operators read in
  non local Contribution for L=           2  read in
    real space projection operators read in
  non local Contribution for L=           0  read in
    real space projection operators read in
  non local Contribution for L=           0  read in
    real space projection operators read in
  non local Contribution for L=           1  read in
    real space projection operators read in
  non local Contribution for L=           1  read in
    real space projection operators read in
    PAW grid and wavefunctions read in
 
   number of l-projection  operators is LMAX  =           6
   number of lm-projection operators is LMMAX =          18
 
 POTCAR:    PAW_PBE Pt 04Feb2005                  
   VRHFIN =Pt: s1d9                                                                                 
   LEXCH  = PE                                                                                      
   EATOM  =   729.1176 eV,   53.5886 Ry                                                             
                                                                                                    
   TITEL  = PAW_PBE Pt 04Feb2005                                                                    
   LULTRA =        F    use ultrasoft PP ?                                                          
   IUNSCR =        1    unscreen: 0-lin 1-nonlin 2-no                                               
   RPACOR =    2.330    partial core radius                                                         
   POMASS =  195.080; ZVAL   =   10.000    mass and valenz                                          
   RCORE  =    2.600    outmost cutoff radius                                                       
   RWIGS  =    2.750; RWIGS  =    1.455    wigner-seitz radius (au A)                               
   ENMAX  =  230.283; ENMIN  =  172.712 eV                                                          
   ICORE  =        3    local potential                                                             
   LCOR   =        T    correct aug charges                                                         
   LPAW   =        T    paw PP                                                                      
   EAUG   =  358.966                                                                                
   DEXC   =    0.000                                                                                
   RMAX   =    2.658    core radius for proj-oper                                                   
   RAUG   =    1.300    factor for augmentation sphere                                              
   RDEP   =    2.761    radius for radial grids                                                     
   RDEPT  =    2.203    core radius for aug-charge                                                  
                                                                                                    
   Atomic configuration                                                                             
   16 entries                                                                                       
     n  l   j            E        occ.                                                              
     1  0  0.50    -78401.1885   2.0000                                                             
     2  0  0.50    -13770.7750   2.0000                                                             
     2  1  1.50    -11931.0468   6.0000                                                             
     3  0  0.50     -3234.7234   2.0000                                                             
     3  1  1.50     -2699.2216   6.0000                                                             
     3  2  2.50     -2119.5714  10.0000                                                             
     4  0  0.50      -695.1528   2.0000                                                             
     4  1  1.50      -519.6034   6.0000                                                             
     4  2  2.50      -306.6786  10.0000                                                             
     4  3  3.50       -70.1041  14.0000                                                             
     5  0  0.50      -101.7747   2.0000                                                             
     5  1  1.50       -55.9873   6.0000                                                             
     5  2  2.50        -6.1423   9.0000                                                             
     6  0  0.50        -5.6573   1.0000                                                             
     6  1  1.50        -6.8029   0.0000                                                             
     5  3  2.50        -1.3606   0.0000                                                             
   Description                                                                                      
     l       E           TYP  RCUT    TYP  RCUT                                                     
     2     -6.1423404     23  2.500                                                                 
     2     -7.5029230     23  2.500                                                                 
     0     -5.6573207     23  2.500                                                                 
     0      0.7416693     23  2.500                                                                 
     1     -2.7211652     23  2.600                                                                 
     1     20.4087390     23  2.600                                                                 
     3     -1.3605826     23  2.500                                                                 
  local pseudopotential read in
  partial core-charges read in
  partial kinetic energy density read in
  atomic valenz-charges read in
  non local Contribution for L=           2  read in
    real space projection operators read in
  non local Contribution for L=           2  read in
    real space projection operators read in
  non local Contribution for L=           0  read in
    real space projection operators read in
  non local Contribution for L=           0  read in
    real space projection operators read in
  non local Contribution for L=           1  read in
    real space projection operators read in
  non local Contribution for L=           1  read in
    real space projection operators read in
    PAW grid and wavefunctions read in
 
   number of l-projection  operators is LMAX  =           6
   number of lm-projection operators is LMMAX =          18
 
 POTCAR:    PAW_PBE O 08Apr2002                   
   VRHFIN =O: s2p4                                                                                  
   LEXCH  = PE                                                                                      
   EATOM  =   432.3788 eV,   31.7789 Ry                                                             
                                                                                                    
   TITEL  = PAW_PBE O 08Apr2002                                                                     
   LULTRA =        F    use ultrasoft PP ?                                                          
   IUNSCR =        1    unscreen: 0-lin 1-nonlin 2-no                                               
   RPACOR =    1.200    partial core radius                                                         
   POMASS =   16.000; ZVAL   =    6.000    mass and valenz                                          
   RCORE  =    1.520    outmost cutoff radius                                                       
   RWIGS  =    1.550; RWIGS  =    0.820    wigner-seitz radius (au A)                               
   ENMAX  =  400.000; ENMIN  =  300.000 eV                                                          
   ICORE  =        2    local potential                                                             
   LCOR   =        T    correct aug charges                                                         
   LPAW   =        T    paw PP                                                                      
   EAUG   =  605.392                                                                                
   DEXC   =    0.000                                                                                
   RMAX   =    1.553    core radius for proj-oper                                                   
   RAUG   =    1.300    factor for augmentation sphere                                              
   RDEP   =    1.550    radius for radial grids                                                     
   RDEPT  =    1.329    core radius for aug-charge                                                  
                                                                                                    
   Atomic configuration                                                                             
    4 entries                                                                                       
     n  l   j            E        occ.                                                              
     1  0  0.50      -514.6923   2.0000                                                             
     2  0  0.50       -23.9615   2.0000                                                             
     2  1  0.50        -9.0305   4.0000                                                             
     3  2  1.50        -9.5241   0.0000                                                             
   Description                                                                                      
     l       E           TYP  RCUT    TYP  RCUT                                                     
     0    -23.9615318     23  1.200                                                                 
     0     -9.5240782     23  1.200                                                                 
     1     -9.0304911     23  1.520                                                                 
     1      8.1634956     23  1.520                                                                 
     2     -9.5240782      7  1.500                                                                 
  local pseudopotential read in
  partial core-charges read in
  partial kinetic energy density read in
  kinetic energy density of atom read in
  atomic valenz-charges read in
  non local Contribution for L=           0  read in
    real space projection operators read in
  non local Contribution for L=           0  read in
    real space projection operators read in
  non local Contribution for L=           1  read in
    real space projection operators read in
  non local Contribution for L=           1  read in
    real space projection operators read in
    PAW grid and wavefunctions read in
 
   number of l-projection  operators is LMAX  =           4
   number of lm-projection operators is LMMAX =           8
 
 Optimization of the real space projectors (new method)

 maximal supplied QI-value         = 15.12
 optimisation between [QCUT,QGAM] = [ 11.34, 22.83] = [ 36.00,145.93] Ry 
 Optimized for a Real-space Cutoff    1.39 Angstroem

   l    n(q)    QCUT    max X(q) W(low)/X(q) W(high)/X(q)  e(spline) 
   2      9    11.338    60.898    0.39E-03    0.42E-03    0.21E-06
   2      9    11.338    58.894    0.40E-03    0.42E-03    0.22E-06
   0      9    11.338   109.617    0.13E-03    0.20E-04    0.13E-06
   0      9    11.338    75.026    0.13E-03    0.20E-04    0.13E-06
   1      9    11.338    16.344    0.33E-04    0.24E-03    0.18E-06
   1      9    11.338    10.160    0.26E-04    0.19E-03    0.15E-06
 Optimization of the real space projectors (new method)

 maximal supplied QI-value         = 14.36
 optimisation between [QCUT,QGAM] = [ 11.35, 22.84] = [ 36.05,146.02] Ry 
 Optimized for a Real-space Cutoff    1.47 Angstroem

   l    n(q)    QCUT    max X(q) W(low)/X(q) W(high)/X(q)  e(spline) 
   2      9    11.346    66.195    0.31E-03    0.12E-04    0.29E-06
   2      9    11.346    64.643    0.32E-03    0.12E-04    0.29E-06
   0     10    11.346    95.520    0.90E-04    0.16E-04    0.19E-06
   0     10    11.346    63.403    0.87E-04    0.15E-04    0.19E-06
   1     10    11.346    19.961    0.17E-03    0.21E-03    0.11E-06
   1     10    11.346    13.289    0.14E-03    0.18E-03    0.89E-07
 Optimization of the real space projectors (new method)

 maximal supplied QI-value         = 24.76
 optimisation between [QCUT,QGAM] = [ 11.39, 22.77] = [ 36.31,145.25] Ry 
 Optimized for a Real-space Cutoff    1.00 Angstroem

   l    n(q)    QCUT    max X(q) W(low)/X(q) W(high)/X(q)  e(spline) 
   0      7    11.387    20.381    0.39E-03    0.13E-02    0.15E-06
   0      7    11.387    15.268    0.42E-03    0.14E-02    0.17E-06
   1      6    11.387     5.964    0.41E-03    0.11E-02    0.17E-06
   1      6    11.387     5.382    0.39E-03    0.87E-03    0.15E-06
  PAW_PBE Au 04Oct2007                  :
 energy of atom  1       EATOM= -926.0867
 kinetic energy error for atom=    0.0042 (will be added to EATOM!!)
  PAW_PBE Pt 04Feb2005                  :
 energy of atom  2       EATOM= -729.1176
 kinetic energy error for atom=    0.0039 (will be added to EATOM!!)
  PAW_PBE O 08Apr2002                   :
 energy of atom  3       EATOM= -432.3788
 kinetic energy error for atom=    0.0224 (will be added to EATOM!!)
 
 
 POSCAR: Au-Pt-O2
  positions in direct lattice
  velocities in cartesian coordinates
 exchange correlation table for  LEXCH =        8
   RHO(1)=    0.500       N(1)  =     2000
   RHO(2)=  100.500       N(2)  =     4000

 VTST: version 3.2, (02/03/18)

 CHAIN: initializing optimizer
 
 OPT: Using VASP Conjugate-Gradient optimizer
 CHAIN: Read ICHAIN            0
 
 POSCAR: Au-Pt-O2
  positions in direct lattice
  velocities in cartesian coordinates
 


--------------------------------------------------------------------------------------------------------


 ion  position               nearest neighbor table
   1  0.000  0.000  0.217-  16 2.94  12 2.94   6 2.94   8 2.94   7 2.94   3 2.94  10 2.94   4 2.94
                             2 2.94
   2  0.333  0.000  0.217-   9 2.94  11 2.94  17 2.94  10 2.94   8 2.94   4 2.94   5 2.94   1 2.94
                             3 2.94
   3  0.667  0.000  0.217-   7 2.94  18 2.94  12 2.94   1 2.94  11 2.94   5 2.94   6 2.94   9 2.94
                             2 2.94
   4  0.000  0.333  0.217-  10 2.94   6 2.94   5 2.94  13 2.94   2 2.94  15 2.94   9 2.94   1 2.94
                             7 2.94
   5  0.333  0.333  0.217-  13 2.94   7 2.94  11 2.94   4 2.94   2 2.94  14 2.94   3 2.94   8 2.94
                             6 2.94
   6  0.667  0.333  0.217-  15 2.94  14 2.94   1 2.94  12 2.94   4 2.94   9 2.94   8 2.94   3 2.94
                             5 2.94
   7  0.000  0.667  0.217-  18 2.94   3 2.94  16 2.94   5 2.94   1 2.94  13 2.94   8 2.94   4 2.94
                             9 2.94
   8  0.333  0.667  0.217-   9 2.94  17 2.94   1 2.94   2 2.94  14 2.94  16 2.94   6 2.94   7 2.94
                             5 2.94
   9  0.667  0.667  0.217-   2 2.94   8 2.94  17 2.94   6 2.94  15 2.94   4 2.94   3 2.94  18 2.94
                             7 2.94
  10  0.111  0.111  0.316-  20 2.91  26 2.93  19 2.93  11 2.94  17 2.94   2 2.94   4 2.94   1 2.94
                            12 2.94  16 2.94  13 2.94  15 2.94
  11  0.444  0.111  0.316-  20 2.92  21 2.92  27 2.93  13 2.94   2 2.94  10 2.94  17 2.94   5 2.94
                             3 2.94  18 2.94  14 2.94  12 2.94
  12  0.778  0.111  0.316-  21 2.91  25 2.93  19 2.93  16 2.94  18 2.94   1 2.94  14 2.94  15 2.94
                             3 2.94   6 2.94  10 2.94  11 2.94
  13  0.111  0.444  0.316-  23 2.92  20 2.92  22 2.93   5 2.94  18 2.94  11 2.94   7 2.94   4 2.94
                            16 2.94  10 2.94  14 2.94  15 2.94
  14  0.444  0.444  0.316-  21 2.92  23 2.92  24 2.93  15 2.94   6 2.94  12 2.94   8 2.94  17 2.94
                             5 2.94  16 2.94  13 2.94  11 2.94
  15  0.778  0.444  0.316-  24 2.93  22 2.93  19 2.93  14 2.94   6 2.94  17 2.94  12 2.94   9 2.94
                             4 2.94  10 2.94  13 2.94  18 2.94
  16  0.111  0.778  0.316-  23 2.91  25 2.93  26 2.93  18 2.94  12 2.94   7 2.94   1 2.94   8 2.94
                            13 2.94  10 2.94  14 2.94  17 2.94
  17  0.444  0.778  0.316-  27 2.93  24 2.93  26 2.93   9 2.94  15 2.94   2 2.94  10 2.94  11 2.94
                             8 2.94  14 2.94  16 2.94  18 2.94
  18  0.778  0.778  0.316-  22 2.93  27 2.93  25 2.93  16 2.94   7 2.94  13 2.94  12 2.94   3 2.94
                            11 2.94   9 2.94  15 2.94  17 2.94
  19  0.889  0.222  0.414-  21 2.93  20 2.93  15 2.93  10 2.93  12 2.93  24 2.94  22 2.94  26 2.94
                            25 2.94  28 2.96  32 2.96  31 2.96
  20  0.221  0.221  0.413-  36 2.82  10 2.91  11 2.92  13 2.92  26 2.93  19 2.93  27 2.94  22 2.94
                            23 2.96  21 2.96  29 2.96  31 2.96
  21  0.557  0.221  0.413-  36 2.82  12 2.91  14 2.92  11 2.92  25 2.93  19 2.93  24 2.94  27 2.94
                            20 2.96  23 2.96  30 2.96  32 2.96
  22  0.888  0.556  0.414-  18 2.93  15 2.93  24 2.93  27 2.93  13 2.93  25 2.94  19 2.94  23 2.94
                            20 2.94  35 2.96  33 2.96  31 2.96
  23  0.221  0.557  0.413-  36 2.82  16 2.91  13 2.92  14 2.92  25 2.93  26 2.93  22 2.94  24 2.94
                            20 2.96  21 2.96  33 2.96  34 2.96
  24  0.556  0.556  0.414-  15 2.93  17 2.93  27 2.93  22 2.93  14 2.93  26 2.94  19 2.94  21 2.94
                            23 2.94  35 2.96  32 2.96  34 2.96
  25  0.889  0.889  0.414-  23 2.93  21 2.93  18 2.93  16 2.93  12 2.93  22 2.94  27 2.94  19 2.94
                            26 2.94  28 2.96  33 2.96  30 2.96
  26  0.222  0.889  0.414-  20 2.93  23 2.93  17 2.93  10 2.93  16 2.93  27 2.94  24 2.94  19 2.94
                            25 2.94  28 2.96  29 2.96  34 2.96
  27  0.556  0.888  0.414-  17 2.93  18 2.93  24 2.93  22 2.93  11 2.93  26 2.94  25 2.94  20 2.94
                            21 2.94  35 2.96  29 2.96  30 2.96
  28  0.000  0.000  0.514-  34 2.95  32 2.95  33 2.95  30 2.95  31 2.95  29 2.95  25 2.96  19 2.96
                            26 2.96
  29  0.333  0.002  0.514-  30 2.92  31 2.92  36 2.93  35 2.95  28 2.95  27 2.96  20 2.96  26 2.96
                            34 2.98
  30  0.664  0.002  0.514-  29 2.92  32 2.92  36 2.93  35 2.95  28 2.95  27 2.96  21 2.96  25 2.96
                            33 2.98
  31  0.002  0.333  0.514-  33 2.92  29 2.92  36 2.93  35 2.95  28 2.95  22 2.96  20 2.96  19 2.96
                            32 2.98
  32  0.664  0.333  0.514-  34 2.92  30 2.92  36 2.93  35 2.95  28 2.95  24 2.96  21 2.96  19 2.96
                            31 2.98
  33  0.002  0.664  0.514-  31 2.92  34 2.92  36 2.93  35 2.95  28 2.95  22 2.96  23 2.96  25 2.96
                            30 2.98
  34  0.333  0.664  0.514-  32 2.92  33 2.92  36 2.93  35 2.95  28 2.95  24 2.96  23 2.96  26 2.96
                            29 2.98
  35  0.667  0.667  0.514-  29 2.95  34 2.95  32 2.95  31 2.95  30 2.95  33 2.95  24 2.96  27 2.96
                            22 2.96
  36  0.333  0.333  0.506-  37 2.18  38 2.18  20 2.82  23 2.82  21 2.82  33 2.93  31 2.93  29 2.93
                            30 2.93  34 2.93  32 2.93
  37  0.257  0.333  0.591-  38 1.35  36 2.18
  38  0.410  0.333  0.591-  37 1.35  36 2.18
 
  LATTYP: Found a hexagonal cell.
 ALAT       =     8.8135128021
 C/A-ratio  =     2.7586513333
  
  Lattice vectors:
  
 A1 = (  -4.4067569092,  -7.6327256898,   0.0000000000)
 A2 = (   8.8135128021,   0.0000000000,   0.0000000000)
 A3 = (   0.0000000000,   0.0000000000,  24.3134088421)


Analysis of symmetry for initial positions (statically):
=====================================================================
 Subroutine PRICEL returns:
 Original cell was already a primitive cell.
 

 Routine SETGRP: Setting up the symmetry group for a 
 hexagonal supercell.


 Subroutine GETGRP returns: Found  2 space group operations
 (whereof  2 operations were pure point group operations)
 out of a pool of 24 trial point group operations.


The static configuration has the point symmetry C_1h.


Analysis of symmetry for dynamics (positions and initial velocities):
=====================================================================
 Subroutine PRICEL returns:
 Original cell was already a primitive cell.
 

 Routine SETGRP: Setting up the symmetry group for a 
 hexagonal supercell.


 Subroutine GETGRP returns: Found  2 space group operations
 (whereof  2 operations were pure point group operations)
 out of a pool of 24 trial point group operations.


The dynamic configuration has the point symmetry C_1h.


Analysis of constrained symmetry for selective dynamics:
=====================================================================
 Subroutine PRICEL returns:
 Original cell was already a primitive cell.
 

 Routine SETGRP: Setting up the symmetry group for a 
 hexagonal supercell.


 Subroutine GETGRP returns: Found  2 space group operations
 (whereof  2 operations were pure point group operations)
 out of a pool of 24 trial point group operations.


The constrained configuration has the point symmetry C_1h.


 Subroutine INISYM returns: Found  2 space group operations
 (whereof  2 operations are pure point group operations),
 and found     1 'primitive' translations


----------------------------------------------------------------------------------------

                                     Primitive cell                                     

  volume of cell :    1635.5904

  direct lattice vectors                    reciprocal lattice vectors
     8.813512802  0.000000000  0.000000000     0.113462137 -0.065507406  0.000000000
     4.406756909  7.632725690  0.000000000     0.000000000  0.131014796  0.000000000
     0.000000000  0.000000000 24.313408842     0.000000000  0.000000000  0.041129568

  length of vectors
     8.813512802  8.813512802 24.313408842     0.131014796  0.131014796  0.041129568

  position of ions in fractional coordinates (direct lattice)
     0.000000000  0.000000000  0.217179745
     0.333333343  0.000000000  0.217179745
     0.666666687  0.000000000  0.217179745
     0.000000000  0.333333343  0.217179745
     0.333333313  0.333333343  0.217179745
     0.666666687  0.333333343  0.217179745
     0.000000000  0.666666687  0.217179745
     0.333333343  0.666666687  0.217179745
     0.666666627  0.666666687  0.217179745
     0.111111119  0.111111112  0.315838643
     0.444444418  0.111111112  0.315838643
     0.777777791  0.111111112  0.315838643
     0.111111127  0.444444448  0.315838643
     0.444444478  0.444444448  0.315838643
     0.777777731  0.444444448  0.315838643
     0.111111090  0.777777791  0.315838643
     0.444444448  0.777777791  0.315838643
     0.777777851  0.777777791  0.315838643
     0.888828178  0.222343660  0.414311984
     0.221445935  0.221445920  0.413279782
     0.557108191  0.221445920  0.413279782
     0.888066827  0.555966617  0.414039471
     0.221445890  0.557108191  0.413279782
     0.555966617  0.555966617  0.414039471
     0.888828178  0.888828178  0.414311984
     0.222343690  0.888828178  0.414311984
     0.555966557  0.888066827  0.414039471
     0.000000000  0.000000000  0.514080534
     0.333456755  0.002060750  0.513838708
     0.664482524  0.002060750  0.513838708
     0.002060750  0.333456755  0.513838708
     0.664482524  0.333456755  0.513838708
     0.002060750  0.664482524  0.513838708
     0.333456755  0.664482524  0.513838708
     0.666666627  0.666666687  0.513979782
     0.333333313  0.333333343  0.505818307
     0.256649442  0.333452864  0.591166700
     0.409897663  0.333452864  0.591166700

  ion indices of the primitive-cell ions
   primitive index   ion index
                 1           1
                 2           2
                 3           3
                 4           4
                 5           5
                 6           6
                 7           7
                 8           8
                 9           9
                10          10
                11          11
                12          12
                13          13
                14          14
                15          15
                16          16
                17          17
                18          18
                19          19
                20          20
                21          21
                22          22
                23          23
                24          24
                25          25
                26          26
                27          27
                28          28
                29          29
                30          30
                31          31
                32          32
                33          33
                34          34
                35          35
                36          36
                37          37
                38          38

----------------------------------------------------------------------------------------

 
 
 KPOINTS: Automatic mesh                          

Automatic generation of k-mesh.
 Grid dimensions read from file:
 generate k-points for:    8    8    1

 Generating k-lattice:

  Cartesian coordinates                     Fractional coordinates (reciprocal lattice)
     0.014182767 -0.008188426  0.000000000     0.125000000  0.000000000  0.000000000
     0.000000000  0.016376850  0.000000000     0.000000000  0.125000000  0.000000000
     0.000000000  0.000000000  0.041129568     0.000000000  0.000000000  1.000000000

  Length of vectors
     0.016376850  0.016376850  0.041129568

  Shift w.r.t. Gamma in fractional coordinates (k-lattice)
     0.000000000  0.000000000  0.000000000

 TETIRR: Found    100 inequivalent tetrahedra from      384
 
 Subroutine IBZKPT returns following result:
 ===========================================
 
 Found     21 irreducible k-points:
 
 Following reciprocal coordinates:
            Coordinates               Weight
  0.000000  0.000000  0.000000      1.000000
  0.125000  0.000000  0.000000      4.000000
  0.000000  0.125000  0.000000      2.000000
  0.250000  0.000000  0.000000      4.000000
  0.000000  0.250000  0.000000      2.000000
  0.375000 -0.000000  0.000000      4.000000
  0.000000  0.375000  0.000000      2.000000
  0.500000  0.000000  0.000000      2.000000
  0.000000  0.500000  0.000000      1.000000
  0.250000  0.125000  0.000000      2.000000
  0.125000  0.250000  0.000000      4.000000
  0.375000  0.125000  0.000000      4.000000
  0.250000  0.375000  0.000000      4.000000
 -0.125000  0.250000  0.000000      4.000000
  0.500000  0.125000  0.000000      4.000000
  0.375000  0.500000  0.000000      4.000000
 -0.125000  0.375000  0.000000      4.000000
  0.500000  0.250000  0.000000      2.000000
  0.250000  0.500000  0.000000      4.000000
 -0.375000  0.250000  0.000000      4.000000
 -0.250000  0.375000  0.000000      2.000000
 
 Following cartesian coordinates:
            Coordinates               Weight
  0.000000  0.000000  0.000000      1.000000
  0.014183 -0.008188  0.000000      4.000000
  0.000000  0.016377  0.000000      2.000000
  0.028366 -0.016377  0.000000      4.000000
  0.000000  0.032754  0.000000      2.000000
  0.042548 -0.024565  0.000000      4.000000
  0.000000  0.049131  0.000000      2.000000
  0.056731 -0.032754  0.000000      2.000000
  0.000000  0.065507  0.000000      1.000000
  0.028366 -0.000000  0.000000      2.000000
  0.014183  0.024565  0.000000      4.000000
  0.042548 -0.008188  0.000000      4.000000
  0.028366  0.032754  0.000000      4.000000
 -0.014183  0.040942  0.000000      4.000000
  0.056731 -0.016377  0.000000      4.000000
  0.042548  0.040942  0.000000      4.000000
 -0.014183  0.057319  0.000000      4.000000
  0.056731 -0.000000  0.000000      2.000000
  0.028366  0.049131  0.000000      4.000000
 -0.042548  0.057319  0.000000      4.000000
 -0.028366  0.065507  0.000000      2.000000
 


--------------------------------------------------------------------------------------------------------




 Dimension of arrays:
   k-points           NKPTS =     21   k-points in BZ     NKDIM =     21   number of bands    NBANDS=    252
   number of dos      NEDOS =    301   number of ions     NIONS =     38
   non local maximal  LDIM  =      6   non local SUM 2l+1 LMDIM =     18
   total plane-waves  NPLWV = 322560
   max r-space proj   IRMAX =   2697   max aug-charges    IRDMAX=  12258
   dimension x,y,z NGX =    48 NGY =   48 NGZ =  140
   dimension x,y,z NGXF=    96 NGYF=   96 NGZF=  280
   support grid    NGXF=    96 NGYF=   96 NGZF=  280
   ions per type =              35   1   2
   NGX,Y,Z   is equivalent  to a cutoff of   9.05,  9.05,  9.57 a.u.
   NGXF,Y,Z  is equivalent  to a cutoff of  18.11, 18.11, 19.15 a.u.

 SYSTEM =  unknown system                          
 POSCAR =  Au-Pt-O2                                

 Startparameter for this run:
   NWRITE =      2    write-flag & timer
   PREC   = normal    normal or accurate (medium, high low for compatibility)
   ISTART =      0    job   : 0-new  1-cont  2-samecut
   ICHARG =     11    charge: 1-file 2-atom 10-const
   ISPIN  =      1    spin polarized calculation?
   LNONCOLLINEAR =      F non collinear calculations
   LSORBIT =      F    spin-orbit coupling
   INIWAV =      1    electr: 0-lowe 1-rand  2-diag
   LASPH  =      F    aspherical Exc in radial PAW
   METAGGA=      F    non-selfconsistent MetaGGA calc.

 Electronic Relaxation 1
   ENCUT  =  500.0 eV  36.75 Ry    6.06 a.u.  16.07 16.07 44.33*2*pi/ulx,y,z
   ENINI  =  500.0     initial cutoff
   ENAUG  =  605.4 eV  augmentation charge cutoff
   NELM   =    150;   NELMIN=  2; NELMDL= -5     # of ELM steps 
   EDIFF  = 0.1E-04   stopping-criterion for ELM
   LREAL  =      T    real-space projection
   NLSPLINE    = F    spline interpolate recip. space projectors
   LCOMPAT=      F    compatible to vasp.4.4
   GGA_COMPAT  = T    GGA compatible to vasp.4.4-vasp.4.6
   LMAXPAW     = -100 max onsite density
   LMAXMIX     =    2 max onsite mixed and CHGCAR
   VOSKOWN=      0    Vosko Wilk Nusair interpolation
   ROPT   =   -0.00050  -0.00050  -0.00050
 Ionic relaxation
   EDIFFG = -.1E-01   stopping-criterion for IOM
   NSW    =      0    number of steps for IOM
   NBLOCK =      1;   KBLOCK =      1    inner block; outer block 
   IBRION =     -1    ionic relax: 0-MD 1-quasi-New 2-CG
   NFREE  =      1    steps in history (QN), initial steepest desc. (CG)
   ISIF   =      2    stress and relaxation
   IWAVPR =     10    prediction:  0-non 1-charg 2-wave 3-comb
   ISYM   =      2    0-nonsym 1-usesym 2-fastsym
   LCORR  =      T    Harris-Foulkes like correction to forces

   POTIM  = 0.5000    time-step for ionic-motion
   TEIN   =    0.0    initial temperature
   TEBEG  =    0.0;   TEEND  =   0.0 temperature during run
   SMASS  =  -3.00    Nose mass-parameter (am)
   estimated Nose-frequenzy (Omega)   =  0.10E-29 period in steps = 0.13E+47 mass=  -0.178E-26a.u.
   SCALEE = 1.0000    scale energy and forces
   NPACO  =    256;   APACO  = 16.0  distance and # of slots for P.C.
   PSTRESS=    0.0 pullay stress

  Mass of Ions in am
   POMASS = 196.97195.08 16.00
  Ionic Valenz
   ZVAL   =  11.00 10.00  6.00
  Atomic Wigner-Seitz radii
   RWIGS  =  -1.00 -1.00 -1.00
  virtual crystal weights 
   VCA    =   1.00  1.00  1.00
   NELECT =     407.0000    total number of electrons
   NUPDOWN=      -1.0000    fix difference up-down

 DOS related values:
   EMIN   =  10.00;   EMAX   =-10.00  energy-range for DOS
   EFERMI =   0.00
   ISMEAR =    -5;   SIGMA  =   0.10  broadening in eV -4-tet -1-fermi 0-gaus

 Electronic relaxation 2 (details)
   IALGO  =     68    algorithm
   LDIAG  =      T    sub-space diagonalisation (order eigenvalues)
   LSUBROT=      F    optimize rotation matrix (better conditioning)
   TURBO    =      0    0=normal 1=particle mesh
   IRESTART =      0    0=no restart 2=restart with 2 vectors
   NREBOOT  =      0    no. of reboots
   NMIN     =      0    reboot dimension
   EREF     =   0.00    reference energy to select bands
   IMIX   =      4    mixing-type and parameters
     AMIX     =   0.40;   BMIX     =  1.00
     AMIX_MAG =   1.60;   BMIX_MAG =  1.00
     AMIN     =   0.10
     WC   =   100.;   INIMIX=   1;  MIXPRE=   1;  MAXMIX= -45

 Intra band minimization:
   WEIMIN = 0.0000     energy-eigenvalue tresh-hold
   EBREAK =  0.99E-08  absolut break condition
   DEPER  =   0.30     relativ break condition  

   TIME   =   0.40     timestep for ELM

  volume/ion in A,a.u.               =      43.04       290.46
  Fermi-wavevector in a.u.,A,eV,Ry     =   1.029710  1.945869 14.426284  1.060302
  Thomas-Fermi vector in A             =   2.163771
 
 Write flags
   LWAVE        =      F    write WAVECAR
   LDOWNSAMPLE  =      F    k-point downsampling of WAVECAR
   LCHARG       =      F    write CHGCAR
   LVTOT        =      F    write LOCPOT, total local potential
   LVHAR        =      F    write LOCPOT, Hartree potential only
   LELF         =      F    write electronic localiz. function (ELF)
   LORBIT       =     10    0 simple, 1 ext, 2 COOP (PROOUT), +10 PAW based schemes


 Dipole corrections
   LMONO  =      F    monopole corrections only (constant potential shift)
   LDIPOL =      F    correct potential (dipole corrections)
   IDIPOL =      0    1-x, 2-y, 3-z, 4-all directions 
   EPSILON=  1.0000000 bulk dielectric constant

 Exchange correlation treatment:
   GGA     =    --    GGA type
   LEXCH   =     8    internal setting for exchange type
   VOSKOWN=      0    Vosko Wilk Nusair interpolation
   LHFCALC =     F    Hartree Fock is set to
   LHFONE  =     F    Hartree Fock one center treatment
   AEXX    =    0.0000 exact exchange contribution

 Linear response parameters
   LEPSILON=     F    determine dielectric tensor
   LRPA    =     F    only Hartree local field effects (RPA)
   LNABLA  =     F    use nabla operator in PAW spheres
   LVEL    =     F    velocity operator in full k-point grid
   LINTERFAST=   F  fast interpolation
   KINTER  =     0    interpolate to denser k-point grid
   CSHIFT  =0.1000    complex shift for real part using Kramers Kronig
   OMEGAMAX=  -1.0    maximum frequency
   DEG_THRESHOLD= 0.2000000E-02 threshold for treating states as degnerate
   RTIME   =   -0.100 relaxation time in fs
  (WPLASMAI=    0.000 imaginary part of plasma frequency in eV, 0.658/RTIME)
   DFIELD  = 0.0000000 0.0000000 0.0000000 field for delta impulse in time
 
 Orbital magnetization related:
   ORBITALMAG=     F  switch on orbital magnetization
   LCHIMAG   =     F  perturbation theory with respect to B field
   DQ        =  0.001000  dq finite difference perturbation B field
   LLRAUG    =     F  two centre corrections for induced B field



--------------------------------------------------------------------------------------------------------


 Static calculation
 charge density and potential remain constant during run
 non-spin polarized calculation
 RMM-DIIS sequential band-by-band and
  variant of blocked Davidson during initial phase
 perform sub-space diagonalisation
    before iterative eigenvector-optimisation
 no mixing
 using additional bands           48
 real space projection scheme for non local part
 use partial core corrections
 calculate Harris-corrections to forces 
   (improved forces if not selfconsistent)
 use gradient corrections 
 WARNING: stress and forces are not correct
  (second derivative of E(xc) not defined)
 use of overlap-Matrix (Vanderbilt PP)
 Fermi weights with tetrahedron method with Bloechl corrections


--------------------------------------------------------------------------------------------------------


  energy-cutoff  :      500.00
  volume of cell :     1635.59
      direct lattice vectors                 reciprocal lattice vectors
     8.813512802  0.000000000  0.000000000     0.113462137 -0.065507406  0.000000000
     4.406756909  7.632725690  0.000000000     0.000000000  0.131014796  0.000000000
     0.000000000  0.000000000 24.313408842     0.000000000  0.000000000  0.041129568

  length of vectors
     8.813512802  8.813512802 24.313408842     0.131014796  0.131014796  0.041129568


 
 k-points in units of 2pi/SCALE and weight: Automatic mesh                          
   0.00000000  0.00000000  0.00000000       0.016
   0.01418277 -0.00818843  0.00000000       0.062
   0.00000000  0.01637685  0.00000000       0.031
   0.02836553 -0.01637685  0.00000000       0.062
   0.00000000  0.03275370  0.00000000       0.031
   0.04254830 -0.02456528  0.00000000       0.062
   0.00000000  0.04913055  0.00000000       0.031
   0.05673107 -0.03275370  0.00000000       0.031
   0.00000000  0.06550740  0.00000000       0.016
   0.02836553 -0.00000000  0.00000000       0.031
   0.01418277  0.02456527  0.00000000       0.062
   0.04254830 -0.00818843  0.00000000       0.062
   0.02836553  0.03275370  0.00000000       0.062
  -0.01418277  0.04094212  0.00000000       0.062
   0.05673107 -0.01637685  0.00000000       0.062
   0.04254830  0.04094212  0.00000000       0.062
  -0.01418277  0.05731897  0.00000000       0.062
   0.05673107 -0.00000000  0.00000000       0.031
   0.02836553  0.04913055  0.00000000       0.062
  -0.04254830  0.05731898  0.00000000       0.062
  -0.02836553  0.06550740  0.00000000       0.031
 
 k-points in reciprocal lattice and weights: Automatic mesh                          
   0.00000000  0.00000000  0.00000000       0.016
   0.12500000  0.00000000  0.00000000       0.062
   0.00000000  0.12500000  0.00000000       0.031
   0.25000000  0.00000000  0.00000000       0.062
   0.00000000  0.25000000  0.00000000       0.031
   0.37500000 -0.00000000  0.00000000       0.062
   0.00000000  0.37500000  0.00000000       0.031
   0.50000000  0.00000000  0.00000000       0.031
   0.00000000  0.50000000  0.00000000       0.016
   0.25000000  0.12500000  0.00000000       0.031
   0.12500000  0.25000000  0.00000000       0.062
   0.37500000  0.12500000  0.00000000       0.062
   0.25000000  0.37500000  0.00000000       0.062
  -0.12500000  0.25000000  0.00000000       0.062
   0.50000000  0.12500000  0.00000000       0.062
   0.37500000  0.50000000  0.00000000       0.062
  -0.12500000  0.37500000  0.00000000       0.062
   0.50000000  0.25000000  0.00000000       0.031
   0.25000000  0.50000000  0.00000000       0.062
  -0.37500000  0.25000000  0.00000000       0.062
  -0.25000000  0.37500000  0.00000000       0.031
 
 position of ions in fractional coordinates (direct lattice) 
   0.00000000  0.00000000  0.21717974
   0.33333334  0.00000000  0.21717974
   0.66666669  0.00000000  0.21717974
   0.00000000  0.33333334  0.21717974
   0.33333331  0.33333334  0.21717974
   0.66666669  0.33333334  0.21717974
   0.00000000  0.66666669  0.21717974
   0.33333334  0.66666669  0.21717974
   0.66666663  0.66666669  0.21717974
   0.11111112  0.11111111  0.31583864
   0.44444442  0.11111111  0.31583864
   0.77777779  0.11111111  0.31583864
   0.11111113  0.44444445  0.31583864
   0.44444448  0.44444445  0.31583864
   0.77777773  0.44444445  0.31583864
   0.11111109  0.77777779  0.31583864
   0.44444445  0.77777779  0.31583864
   0.77777785  0.77777779  0.31583864
   0.88882818  0.22234366  0.41431198
   0.22144593  0.22144592  0.41327978
   0.55710819  0.22144592  0.41327978
   0.88806683  0.55596662  0.41403947
   0.22144589  0.55710819  0.41327978
   0.55596662  0.55596662  0.41403947
   0.88882818  0.88882818  0.41431198
   0.22234369  0.88882818  0.41431198
   0.55596656  0.88806683  0.41403947
   0.00000000  0.00000000  0.51408053
   0.33345676  0.00206075  0.51383871
   0.66448252  0.00206075  0.51383871
   0.00206075  0.33345676  0.51383871
   0.66448252  0.33345676  0.51383871
   0.00206075  0.66448252  0.51383871
   0.33345676  0.66448252  0.51383871
   0.66666663  0.66666669  0.51397978
   0.33333331  0.33333334  0.50581831
   0.25664944  0.33345286  0.59116670
   0.40989766  0.33345286  0.59116670
 
 position of ions in cartesian coordinates  (Angst):
   0.00000000  0.00000000  5.28037993
   2.93783769  0.00000000  5.28037993
   5.87567538  0.00000000  5.28037993
   1.46891901  2.54424197  5.28037993
   4.40675643  2.54424197  5.28037993
   7.34459439  2.54424197  5.28037993
   2.93783803  5.08848395  5.28037993
   5.87567571  5.08848395  5.28037993
   8.81351288  5.08848395  5.28037993
   1.46891893  0.84808064  7.67911405
   4.40675623  0.84808064  7.67911405
   7.34459418  0.84808064  7.67911405
   2.93783798  3.39232256  7.67911405
   5.87567574  3.39232256  7.67911405
   8.81351263  3.39232256  7.67911405
   4.40675667  5.93656453  7.67911405
   7.34459449  5.93656453  7.67911405
  10.28243270  5.93656453  7.67911405
   8.81351299  1.69708816 10.07333666
   2.92757492  1.69023596 10.04824031
   5.88593851  1.69023596 10.04824031
  10.27699808  4.24354068 10.06671093
   4.40675655  4.25225400 10.04824031
   7.35002862  4.24354068 10.06671093
  11.75054824  6.78418167 10.07333666
   5.87647867  6.78418167 10.07333666
   8.81351299  6.77837048 10.06671093
   0.00000000  0.00000000 12.49905020
   2.94800661  0.01572914 12.49317060
   5.86550646  0.01572914 12.49317060
   1.48762531  2.54518394 12.49317060
   7.32588810  2.54518394 12.49317060
   2.94637541  5.07181283 12.49317060
   5.86713834  5.07181283 12.49317060
   8.81351288  5.08848395 12.49660056
   4.40675643  2.54424197 12.29816729
   3.73142885  2.54515424 14.37327767
   5.08208402  2.54515424 14.37327767
 


--------------------------------------------------------------------------------------------------------


 k-point   1 :   0.0000 0.0000 0.0000  plane waves:   41363
 k-point   2 :   0.1250 0.0000 0.0000  plane waves:   41482
 k-point   3 :   0.0000 0.1250 0.0000  plane waves:   41482
 k-point   4 :   0.2500 0.0000 0.0000  plane waves:   41496
 k-point   5 :   0.0000 0.2500 0.0000  plane waves:   41496
 k-point   6 :   0.3750-0.0000 0.0000  plane waves:   41568
 k-point   7 :   0.0000 0.3750 0.0000  plane waves:   41568
 k-point   8 :   0.5000 0.0000 0.0000  plane waves:   41500
 k-point   9 :   0.0000 0.5000 0.0000  plane waves:   41500
 k-point  10 :   0.2500 0.1250 0.0000  plane waves:   41456
 k-point  11 :   0.1250 0.2500 0.0000  plane waves:   41456
 k-point  12 :   0.3750 0.1250 0.0000  plane waves:   41540
 k-point  13 :   0.2500 0.3750 0.0000  plane waves:   41540
 k-point  14 :  -0.1250 0.2500 0.0000  plane waves:   41540
 k-point  15 :   0.5000 0.1250 0.0000  plane waves:   41540
 k-point  16 :   0.3750 0.5000 0.0000  plane waves:   41540
 k-point  17 :  -0.1250 0.3750 0.0000  plane waves:   41540
 k-point  18 :   0.5000 0.2500 0.0000  plane waves:   41588
 k-point  19 :   0.2500 0.5000 0.0000  plane waves:   41588
 k-point  20 :  -0.3750 0.2500 0.0000  plane waves:   41554
 k-point  21 :  -0.2500 0.3750 0.0000  plane waves:   41554

 maximum and minimum number of plane-waves per node :     41588    41363

 maximum number of plane-waves:     41588
 maximum index in each direction: 
   IXMAX=   16   IYMAX=   16   IZMAX=   44
   IXMIN=  -16   IYMIN=  -16   IZMIN=  -44


 serial   3D FFT for wavefunctions
 parallel 3D FFT for charge:
    minimum data exchange during FFTs selected (reduces bandwidth)


 total amount of memory used by VASP MPI-rank0   197234. kBytes
=======================================================================

   base      :      30000. kBytes
   nonlr-proj:      14125. kBytes
   fftplans  :       4808. kBytes
   grid      :      19857. kBytes
   one-center:        590. kBytes
   wavefun   :     127854. kBytes
 
     INWAV:  cpu time    0.0000: real time    0.0000
 initial charge density was supplied:
 number of electron     407.0000041 magnetization 
 keeping initial charge density in first step


--------------------------------------------------------------------------------------------------------


 Maximum index for non-local projection operator         2573
 Maximum index for augmentation-charges          860 (set IRDMAX)


--------------------------------------------------------------------------------------------------------


 First call to EWALD:  gamma=   0.150
 Maximum number of real-space cells 4x 4x 2
 Maximum number of reciprocal cells 2x 2x 5

    FEWALD:  cpu time    0.0013: real time    0.0014


--------------------------------------- Iteration      1(   1)  ---------------------------------------


    POTLOK:  cpu time    0.0578: real time    0.0582
    SETDIJ:  cpu time    0.0050: real time    0.0050
     EDDAV:  cpu time   16.1929: real time   16.1943
 BZINTS: Fermi energy:   11.206510;  407.000000 electrons
         Band energy: 0.138493E+04;  BLOECHL correction:   -0.023590
       DOS:  cpu time    0.0287: real time    0.0287
    --------------------------------------------
      LOOP:  cpu time   16.2844: real time   16.2863

 eigenvalue-minimisations  : 10584
 total energy-change (2. order) : 0.2764332E+04  (-0.1831436E+05)
 number of electron     407.0000041 magnetization 
 augmentation part      407.0000041 magnetization 

 Free energy of the ion-electron system (eV)
  ---------------------------------------------------
  alpha Z        PSCENC =       957.42253493
  Ewald energy   TEWEN  =    128904.27838136
  -Hartree energ DENC   =   -163818.26169523
  -exchange      EXHF   =         0.00000000
  -V(xc)+E(xc)   XCENC  =       576.25530954
  PAW double counting   =     36907.99124726   -36154.99388313
  entropy T*S    EENTRO =         0.00000000
  eigenvalues    EBANDS =      1384.92721904
  atomic energy  EATOM  =     34006.71273997
  Solvation  Ediel_sol  =         0.00000000
  ---------------------------------------------------
  free energy    TOTEN  =      2764.33185373 eV

  energy without entropy =     2764.33185373  energy(sigma->0) =     2764.33185373


--------------------------------------------------------------------------------------------------------




--------------------------------------- Iteration      1(   2)  ---------------------------------------


     EDDAV:  cpu time   17.7961: real time   17.7962
 BZINTS: Fermi energy:    1.126023;  407.000000 electrons
         Band energy:-0.134715E+04;  BLOECHL correction:   -0.073576
       DOS:  cpu time    0.0287: real time    0.0287
    --------------------------------------------
      LOOP:  cpu time   17.8248: real time   17.8249

 eigenvalue-minimisations  : 11928
 total energy-change (2. order) :-0.2732076E+04  (-0.2555044E+04)
 number of electron     407.0000041 magnetization 
 augmentation part      407.0000041 magnetization 

 Free energy of the ion-electron system (eV)
  ---------------------------------------------------
  alpha Z        PSCENC =       957.42253493
  Ewald energy   TEWEN  =    128904.27838136
  -Hartree energ DENC   =   -163818.26169523
  -exchange      EXHF   =         0.00000000
  -V(xc)+E(xc)   XCENC  =       576.25530954
  PAW double counting   =     36907.99124726   -36154.99388313
  entropy T*S    EENTRO =         0.00000000
  eigenvalues    EBANDS =     -1347.14834374
  atomic energy  EATOM  =     34006.71273997
  Solvation  Ediel_sol  =         0.00000000
  ---------------------------------------------------
  free energy    TOTEN  =        32.25629095 eV

  energy without entropy =       32.25629095  energy(sigma->0) =       32.25629095


--------------------------------------------------------------------------------------------------------




--------------------------------------- Iteration      1(   3)  ---------------------------------------


     EDDAV:  cpu time   18.4271: real time   18.4271
 BZINTS: Fermi energy:    0.234673;  407.000000 electrons
         Band energy:-0.149735E+04;  BLOECHL correction:   -0.055416
       DOS:  cpu time    0.0289: real time    0.0289
    --------------------------------------------
      LOOP:  cpu time   18.4559: real time   18.4559

 eigenvalue-minimisations  : 12404
 total energy-change (2. order) :-0.1502048E+03  (-0.1455990E+03)
 number of electron     407.0000041 magnetization 
 augmentation part      407.0000041 magnetization 

 Free energy of the ion-electron system (eV)
  ---------------------------------------------------
  alpha Z        PSCENC =       957.42253493
  Ewald energy   TEWEN  =    128904.27838136
  -Hartree energ DENC   =   -163818.26169523
  -exchange      EXHF   =         0.00000000
  -V(xc)+E(xc)   XCENC  =       576.25530954
  PAW double counting   =     36907.99124726   -36154.99388313
  entropy T*S    EENTRO =         0.00000000
  eigenvalues    EBANDS =     -1497.35312050
  atomic energy  EATOM  =     34006.71273997
  Solvation  Ediel_sol  =         0.00000000
  ---------------------------------------------------
  free energy    TOTEN  =      -117.94848581 eV

  energy without entropy =     -117.94848581  energy(sigma->0) =     -117.94848581


--------------------------------------------------------------------------------------------------------




--------------------------------------- Iteration      1(   4)  ---------------------------------------


     EDDAV:  cpu time   17.5702: real time   17.5702
 BZINTS: Fermi energy:    0.160041;  407.000000 electrons
         Band energy:-0.150089E+04;  BLOECHL correction:   -0.058830
       DOS:  cpu time    0.0301: real time    0.0301
    --------------------------------------------
      LOOP:  cpu time   17.6003: real time   17.6003

 eigenvalue-minimisations  : 11704
 total energy-change (2. order) :-0.3532018E+01  (-0.3501615E+01)
 number of electron     407.0000041 magnetization 
 augmentation part      407.0000041 magnetization 

 Free energy of the ion-electron system (eV)
  ---------------------------------------------------
  alpha Z        PSCENC =       957.42253493
  Ewald energy   TEWEN  =    128904.27838136
  -Hartree energ DENC   =   -163818.26169523
  -exchange      EXHF   =         0.00000000
  -V(xc)+E(xc)   XCENC  =       576.25530954
  PAW double counting   =     36907.99124726   -36154.99388313
  entropy T*S    EENTRO =         0.00000000
  eigenvalues    EBANDS =     -1500.88513882
  atomic energy  EATOM  =     34006.71273997
  Solvation  Ediel_sol  =         0.00000000
  ---------------------------------------------------
  free energy    TOTEN  =      -121.48050413 eV

  energy without entropy =     -121.48050413  energy(sigma->0) =     -121.48050413


--------------------------------------------------------------------------------------------------------




--------------------------------------- Iteration      1(   5)  ---------------------------------------


     EDDAV:  cpu time   19.9917: real time   19.9918
 BZINTS: Fermi energy:    0.159163;  407.000000 electrons
         Band energy:-0.150100E+04;  BLOECHL correction:   -0.058851
       DOS:  cpu time    0.0314: real time    0.0314
    --------------------------------------------
      LOOP:  cpu time   20.0232: real time   20.0232

 eigenvalue-minimisations  : 13692
 total energy-change (2. order) :-0.1151575E+00  (-0.1152966E+00)
 number of electron     407.0000041 magnetization 
 augmentation part      407.0000041 magnetization 

 Free energy of the ion-electron system (eV)
  ---------------------------------------------------
  alpha Z        PSCENC =       957.42253493
  Ewald energy   TEWEN  =    128904.27838136
  -Hartree energ DENC   =   -163818.26169523
  -exchange      EXHF   =         0.00000000
  -V(xc)+E(xc)   XCENC  =       576.25530954
  PAW double counting   =     36907.99124726   -36154.99388313
  entropy T*S    EENTRO =         0.00000000
  eigenvalues    EBANDS =     -1501.00029630
  atomic energy  EATOM  =     34006.71273997
  Solvation  Ediel_sol  =         0.00000000
  ---------------------------------------------------
  free energy    TOTEN  =      -121.59566161 eV

  energy without entropy =     -121.59566161  energy(sigma->0) =     -121.59566161


--------------------------------------------------------------------------------------------------------




--------------------------------------- Iteration      1(   6)  ---------------------------------------


    EDDIAG:  cpu time    3.2475: real time    3.2479
  RMM-DIIS:  cpu time    9.6415: real time    9.6414
    ORTHCH:  cpu time    0.5909: real time    0.5909
 BZINTS: Fermi energy:    0.159150;  407.000000 electrons
         Band energy:-0.150100E+04;  BLOECHL correction:   -0.058857
       DOS:  cpu time    0.0307: real time    0.0307
    --------------------------------------------
      LOOP:  cpu time   13.5106: real time   13.5109

 eigenvalue-minimisations  : 11103
 total energy-change (2. order) :-0.2456398E-02  (-0.2453530E-02)
 number of electron     407.0000041 magnetization 
 augmentation part      407.0000041 magnetization 

 Free energy of the ion-electron system (eV)
  ---------------------------------------------------
  alpha Z        PSCENC =       957.42253493
  Ewald energy   TEWEN  =    128904.27838136
  -Hartree energ DENC   =   -163818.26169523
  -exchange      EXHF   =         0.00000000
  -V(xc)+E(xc)   XCENC  =       576.25530954
  PAW double counting   =     36907.99124726   -36154.99388313
  entropy T*S    EENTRO =         0.00000000
  eigenvalues    EBANDS =     -1501.00275270
  atomic energy  EATOM  =     34006.71273997
  Solvation  Ediel_sol  =         0.00000000
  ---------------------------------------------------
  free energy    TOTEN  =      -121.59811801 eV

  energy without entropy =     -121.59811801  energy(sigma->0) =     -121.59811801


--------------------------------------------------------------------------------------------------------




--------------------------------------- Iteration      1(   7)  ---------------------------------------


    EDDIAG:  cpu time    3.2510: real time    3.2512
  RMM-DIIS:  cpu time   12.4114: real time   12.4113
    ORTHCH:  cpu time    0.5905: real time    0.5905
 BZINTS: Fermi energy:    0.159146;  407.000000 electrons
         Band energy:-0.150100E+04;  BLOECHL correction:   -0.058860
       DOS:  cpu time    0.0307: real time    0.0307
    --------------------------------------------
      LOOP:  cpu time   16.2836: real time   16.2837

 eigenvalue-minimisations  : 14517
 total energy-change (2. order) :-0.8777113E-03  (-0.8721697E-03)
 number of electron     407.0000041 magnetization 
 augmentation part      407.0000041 magnetization 

 Free energy of the ion-electron system (eV)
  ---------------------------------------------------
  alpha Z        PSCENC =       957.42253493
  Ewald energy   TEWEN  =    128904.27838136
  -Hartree energ DENC   =   -163818.26169523
  -exchange      EXHF   =         0.00000000
  -V(xc)+E(xc)   XCENC  =       576.25530954
  PAW double counting   =     36907.99124726   -36154.99388313
  entropy T*S    EENTRO =         0.00000000
  eigenvalues    EBANDS =     -1501.00363041
  atomic energy  EATOM  =     34006.71273997
  Solvation  Ediel_sol  =         0.00000000
  ---------------------------------------------------
  free energy    TOTEN  =      -121.59899572 eV

  energy without entropy =     -121.59899572  energy(sigma->0) =     -121.59899572


--------------------------------------------------------------------------------------------------------




--------------------------------------- Iteration      1(   8)  ---------------------------------------


    EDDIAG:  cpu time    3.2495: real time    3.2495
  RMM-DIIS:  cpu time   10.2119: real time   10.2118
    ORTHCH:  cpu time    0.5907: real time    0.5907
 BZINTS: Fermi energy:    0.159146;  407.000000 electrons
         Band energy:-0.150100E+04;  BLOECHL correction:   -0.058860
       DOS:  cpu time    0.0308: real time    0.0308
    --------------------------------------------
      LOOP:  cpu time   14.0829: real time   14.0828

 eigenvalue-minimisations  : 11626
 total energy-change (2. order) :-0.5870886E-04  (-0.5184887E-04)
 number of electron     407.0000041 magnetization 
 augmentation part      407.0000041 magnetization 

 Free energy of the ion-electron system (eV)
  ---------------------------------------------------
  alpha Z        PSCENC =       957.42253493
  Ewald energy   TEWEN  =    128904.27838136
  -Hartree energ DENC   =   -163818.26169523
  -exchange      EXHF   =         0.00000000
  -V(xc)+E(xc)   XCENC  =       576.25530954
  PAW double counting   =     36907.99124726   -36154.99388313
  entropy T*S    EENTRO =         0.00000000
  eigenvalues    EBANDS =     -1501.00368912
  atomic energy  EATOM  =     34006.71273997
  Solvation  Ediel_sol  =         0.00000000
  ---------------------------------------------------
  free energy    TOTEN  =      -121.59905443 eV

  energy without entropy =     -121.59905443  energy(sigma->0) =     -121.59905443


--------------------------------------------------------------------------------------------------------




--------------------------------------- Iteration      1(   9)  ---------------------------------------


    EDDIAG:  cpu time    3.2512: real time    3.2512
  RMM-DIIS:  cpu time    9.3931: real time    9.3931
    ORTHCH:  cpu time    0.5900: real time    0.5901
 BZINTS: Fermi energy:    0.159146;  407.000000 electrons
         Band energy:-0.150100E+04;  BLOECHL correction:   -0.058860
       DOS:  cpu time    0.0314: real time    0.0314
    --------------------------------------------
      LOOP:  cpu time   13.2657: real time   13.2657

 eigenvalue-minimisations  :  9963
 total energy-change (2. order) :-0.1296031E-04  (-0.1276460E-04)
 number of electron     407.0000041 magnetization 
 augmentation part      407.0000041 magnetization 

 Free energy of the ion-electron system (eV)
  ---------------------------------------------------
  alpha Z        PSCENC =       957.42253493
  Ewald energy   TEWEN  =    128904.27838136
  -Hartree energ DENC   =   -163818.26169523
  -exchange      EXHF   =         0.00000000
  -V(xc)+E(xc)   XCENC  =       576.25530954
  PAW double counting   =     36907.99124726   -36154.99388313
  entropy T*S    EENTRO =         0.00000000
  eigenvalues    EBANDS =     -1501.00370208
  atomic energy  EATOM  =     34006.71273997
  Solvation  Ediel_sol  =         0.00000000
  ---------------------------------------------------
  free energy    TOTEN  =      -121.59906739 eV

  energy without entropy =     -121.59906739  energy(sigma->0) =     -121.59906739


--------------------------------------------------------------------------------------------------------




--------------------------------------- Iteration      1(  10)  ---------------------------------------


    EDDIAG:  cpu time    3.2496: real time    3.2528
  RMM-DIIS:  cpu time    7.0236: real time    7.0235
    ORTHCH:  cpu time    0.5903: real time    0.5903
 BZINTS: Fermi energy:    0.159146;  407.000000 electrons
         Band energy:-0.150100E+04;  BLOECHL correction:   -0.058860
       DOS:  cpu time    0.0300: real time    0.0300
    --------------------------------------------
      LOOP:  cpu time   10.8934: real time   10.8966

 eigenvalue-minimisations  :  6960
 total energy-change (2. order) :-0.1422159E-05  (-0.1340565E-05)
 number of electron     407.0000041 magnetization 
 augmentation part      407.0000041 magnetization 

 Free energy of the ion-electron system (eV)
  ---------------------------------------------------
  alpha Z        PSCENC =       957.42253493
  Ewald energy   TEWEN  =    128904.27838136
  -Hartree energ DENC   =   -163818.26169523
  -exchange      EXHF   =         0.00000000
  -V(xc)+E(xc)   XCENC  =       576.25530954
  PAW double counting   =     36907.99124726   -36154.99388313
  entropy T*S    EENTRO =         0.00000000
  eigenvalues    EBANDS =     -1501.00370351
  atomic energy  EATOM  =     34006.71273997
  Solvation  Ediel_sol  =         0.00000000
  ---------------------------------------------------
  free energy    TOTEN  =      -121.59906882 eV

  energy without entropy =     -121.59906882  energy(sigma->0) =     -121.59906882


--------------------------------------------------------------------------------------------------------




 average (electrostatic) potential at core
  the test charge radii are     1.2098  1.2059  0.7215
  (the norm of the test charge is              1.0000)
       1 -72.9068       2 -72.8368       3 -72.8368       4 -72.8399       5 -72.8408
       6 -72.8396       7 -72.8417       8 -72.8414       9 -72.8511      10 -73.2235
      11 -73.1788      12 -73.2233      13 -73.1779      14 -73.1776      15 -73.2057
      16 -73.2118      17 -73.1961      18 -73.1963      19 -73.1191      20 -73.2301
      21 -73.2299      22 -73.1763      23 -73.1873      24 -73.1759      25 -73.1336
      26 -73.1334      27 -73.1786      28 -72.7688      29 -72.7514      30 -72.7515
      31 -72.7720      32 -72.7718      33 -72.7451      34 -72.7449      35 -72.7543
      36 -73.7894      37 -77.0241      38 -77.0240
 
 
 
 E-fermi :   0.1591     XC(G=0):  -5.6772     alpha+bet : -5.3260

 Fermi energy:         0.1591455098

 k-point     1 :       0.0000    0.0000    0.0000
  band No.  band energies     occupation 
      1     -23.6983      2.00000
      2     -14.5229      2.00000
      3      -8.6600      2.00000
      4      -7.6159      2.00000
      5      -7.0669      2.00000
      6      -6.6353      2.00000
      7      -6.5053      2.00000
      8      -6.4911      2.00000
      9      -6.4840      2.00000
     10      -6.4637      2.00000
     11      -6.4613      2.00000
     12      -6.4597      2.00000
     13      -6.3952      2.00000
     14      -6.2517      2.00000
     15      -5.9964      2.00000
     16      -5.9927      2.00000
     17      -5.9887      2.00000
     18      -5.9765      2.00000
     19      -5.9686      2.00000
     20      -5.9361      2.00000
     21      -5.6606      2.00000
     22      -5.6124      2.00000
     23      -5.6105      2.00000
     24      -5.6063      2.00000
     25      -5.5953      2.00000
     26      -5.5941      2.00000
     27      -5.5825      2.00000
     28      -5.4304      2.00000
     29      -5.4254      2.00000
     30      -5.4237      2.00000
     31      -5.4184      2.00000
     32      -5.3867      2.00000
     33      -5.3676      2.00000
     34      -5.2796      2.00000
     35      -5.2670      2.00000
     36      -5.2613      2.00000
     37      -5.2574      2.00000
     38      -5.2368      2.00000
     39      -5.2328      2.00000
     40      -5.2313      2.00000
     41      -5.2198      2.00000
     42      -5.2075      2.00000
     43      -5.2052      2.00000
     44      -5.1989      2.00000
     45      -5.1649      2.00000
     46      -4.7673      2.00000
     47      -4.7629      2.00000
     48      -4.7382      2.00000
     49      -4.7025      2.00000
     50      -4.7011      2.00000
     51      -4.6976      2.00000
     52      -4.6931      2.00000
     53      -4.6915      2.00000
     54      -4.6740      2.00000
     55      -4.6589      2.00000
     56      -4.6078      2.00000
     57      -4.6036      2.00000
     58      -4.5213      2.00000
     59      -4.5118      2.00000
     60      -4.1917      2.00000
     61      -4.1811      2.00000
     62      -4.1701      2.00000
     63      -4.1568      2.00000
     64      -4.1512      2.00000
     65      -4.1479      2.00000
     66      -4.1321      2.00000
     67      -4.1124      2.00000
     68      -4.1119      2.00000
     69      -4.0497      2.00000
     70      -4.0392      2.00000
     71      -4.0087      2.00000
     72      -3.9957      2.00000
     73      -3.9895      2.00000
     74      -3.9429      2.00000
     75      -3.9361      2.00000
     76      -3.9281      2.00000
     77      -3.9155      2.00000
     78      -3.9108      2.00000
     79      -3.9102      2.00000
     80      -3.8937      2.00000
     81      -3.8898      2.00000
     82      -3.8830      2.00000
     83      -3.8792      2.00000
     84      -3.8778      2.00000
     85      -3.8661      2.00000
     86      -3.8132      2.00000
     87      -3.8121      2.00000
     88      -3.8051      2.00000
     89      -3.8012      2.00000
     90      -3.7933      2.00000
     91      -3.7732      2.00000
     92      -3.7731      2.00000
     93      -3.7651      2.00000
     94      -3.6804      2.00000
     95      -3.6801      2.00000
     96      -3.5940      2.00000
     97      -3.5439      2.00000
     98      -3.5404      2.00000
     99      -3.4896      2.00000
    100      -3.4894      2.00000
    101      -3.4817      2.00000
    102      -3.4811      2.00000
    103      -3.3567      2.00000
    104      -3.3228      2.00000
    105      -3.3070      2.00000
    106      -3.2944      2.00000
    107      -3.2926      2.00000
    108      -3.2773      2.00000
    109      -3.2648      2.00000
    110      -3.2356      2.00000
    111      -3.1824      2.00000
    112      -3.1173      2.00000
    113      -3.0764      2.00000
    114      -3.0757      2.00000
    115      -3.0728      2.00000
    116      -3.0703      2.00000
    117      -3.0634      2.00000
    118      -3.0587      2.00000
    119      -2.9883      2.00000
    120      -2.9705      2.00000
    121      -2.9065      2.00000
    122      -2.8258      2.00000
    123      -2.8070      2.00000
    124      -2.8031      2.00000
    125      -2.7786      2.00000
    126      -2.7728      2.00000
    127      -2.7544      2.00000
    128      -2.7501      2.00000
    129      -2.7240      2.00000
    130      -2.7236      2.00000
    131      -2.6916      2.00000
    132      -2.6459      2.00000
    133      -2.6192      2.00000
    134      -2.5468      2.00000
    135      -2.5370      2.00000
    136      -2.5353      2.00000
    137      -2.5259      2.00000
    138      -2.5174      2.00000
    139      -2.5171      2.00000
    140      -2.5106      2.00000
    141      -2.5079      2.00000
    142      -2.5074      2.00000
    143      -2.4663      2.00000
    144      -2.4608      2.00000
    145      -2.4186      2.00000
    146      -2.4103      2.00000
    147      -2.2888      2.00000
    148      -2.2798      2.00000
    149      -2.2718      2.00000
    150      -2.2688      2.00000
    151      -2.2496      2.00000
    152      -2.2414      2.00000
    153      -2.2373      2.00000
    154      -2.2275      2.00000
    155      -2.2182      2.00000
    156      -2.2164      2.00000
    157      -2.2160      2.00000
    158      -2.2082      2.00000
    159      -2.1230      2.00000
    160      -2.0929      2.00000
    161      -2.0764      2.00000
    162      -2.0742      2.00000
    163      -2.0719      2.00000
    164      -2.0696      2.00000
    165      -2.0616      2.00000
    166      -2.0541      2.00000
    167      -2.0448      2.00000
    168      -2.0165      2.00000
    169      -2.0128      2.00000
    170      -1.9963      2.00000
    171      -1.9891      2.00000
    172      -1.9810      2.00000
    173      -1.9699      2.00000
    174      -1.9669      2.00000
    175      -1.9537      2.00000
    176      -1.9488      2.00000
    177      -1.9478      2.00000
    178      -1.9477      2.00000
    179      -1.9172      2.00000
    180      -1.9080      2.00000
    181      -1.9005      2.00000
    182      -1.8880      2.00000
    183      -1.8878      2.00000
    184      -1.8778      2.00000
    185      -1.8636      2.00000
    186      -1.8596      2.00000
    187      -1.8532      2.00000
    188      -1.8518      2.00000
    189      -1.7864      2.00000
    190      -1.7205      2.00000
    191      -1.7006      2.00000
    192      -1.6882      2.00000
    193      -1.6535      2.00000
    194      -1.6369      2.00000
    195      -1.6290      2.00000
    196      -1.6279      2.00000
    197      -1.4012      2.00000
    198      -1.3329      2.00000
    199      -1.2775      2.00000
    200      -1.1997      2.00000
    201      -0.7284      2.00000
    202      -0.4355      2.00000
    203      -0.3814      2.00000
    204      -0.3658      2.00000
    205      -0.3577      2.00000
    206      -0.3062      2.00000
    207       0.0969      2.28243
    208       0.2518      0.00000
    209       0.5485      0.00000
    210       0.8618      0.00000
    211       1.7584      0.00000
    212       1.7864      0.00000
    213       1.8260      0.00000
    214       1.8394      0.00000
    215       1.8854      0.00000
    216       2.4838      0.00000
    217       2.9663      0.00000
    218       2.9708      0.00000
    219       3.0100      0.00000
    220       3.0136      0.00000
    221       3.0406      0.00000
    222       3.1046      0.00000
    223       3.5944      0.00000
    224       3.8197      0.00000
    225       4.7692      0.00000
    226       4.8408      0.00000
    227       4.8509      0.00000
    228       4.8863      0.00000
    229       4.8932      0.00000
    230       4.9279      0.00000
    231       5.0047      0.00000
    232       5.0132      0.00000
    233       5.0218      0.00000
    234       5.0424      0.00000
    235       5.2663      0.00000
    236       5.3579      0.00000
    237       5.5895      0.00000
    238       5.9105      0.00000
    239       6.2096      0.00000
    240       6.2857      0.00000
    241       6.3095      0.00000
    242       6.5642      0.00000
    243       6.5879      0.00000
    244       6.5899      0.00000
    245       6.5940      0.00000
    246       6.6624      0.00000
    247       6.6783      0.00000
    248       6.7077      0.00000
    249       6.7158      0.00000
    250       6.7566      0.00000
    251       6.8236      0.00000
    252       6.9394      0.00000

 k-point     2 :       0.1250    0.0000    0.0000
  band No.  band energies     occupation 
      1     -23.6983      2.00000
      2     -14.5230      2.00000
      3      -8.6093      2.00000
      4      -7.5767      2.00000
      5      -7.0568      2.00000
      6      -6.7309      2.00000
      7      -6.6072      2.00000
      8      -6.5492      2.00000
      9      -6.5063      2.00000
     10      -6.4564      2.00000
     11      -6.3600      2.00000
     12      -6.3499      2.00000
     13      -6.3180      2.00000
     14      -6.2244      2.00000
     15      -6.0252      2.00000
     16      -6.0028      2.00000
[...]
  0.000   0.000   0.000   0.000   0.000   0.000   0.000   0.000   0.000   0.000   0.000   0.000   0.000   0.000   0.000   0.000
  0.000   0.000   0.000   0.000   0.000   0.000   0.000   0.000   0.000   0.000   0.000   0.000   0.000   0.000   0.000   0.000
  0.000   0.000   0.000   0.000   0.000   0.000   0.000   0.000   0.000   0.000   1.000   0.000   0.000   0.000   0.000   0.000
  0.000   0.000   0.000   0.000   0.000   0.000   0.000   0.000   0.000   0.000   0.000   0.000   0.000   0.000   0.000   0.000
  0.000   0.000   0.000   0.000   0.000   0.000   0.000   0.000   0.000   0.000   0.000   0.000   0.000   0.000   0.000   0.000
  0.000   0.000   0.000   0.000   0.000   0.000   0.000   0.000   0.000   0.000   0.000   0.000   0.000   0.000   0.000   0.000
  0.000   0.000   0.000   0.000   0.000   0.000   0.000   0.000   0.000   0.000   0.000   0.000   0.000   0.000   0.000   0.000
  0.000   0.000   0.000   0.000   0.000   0.000   0.000   0.000   0.000   0.000   0.000   0.000   0.000   0.000   0.000   0.000
  0.000   0.000   0.000   0.000   0.000   0.000   0.000   0.000   0.000   0.000   0.000   0.000   0.000   0.000   0.000   0.000
  0.000   0.000   0.000   0.000   0.000   0.000   0.000   0.000   0.000   0.000   0.000   0.000   0.000   0.000   0.000   0.000


------------------------ aborting loop because EDIFF is reached ----------------------------------------





 total charge

# of ion       s       p       d       tot
------------------------------------------
    1        0.541   0.240   8.765   9.546
    2        0.545   0.240   8.765   9.550
    3        0.545   0.240   8.765   9.550
    4        0.546   0.240   8.764   9.550
    5        0.540   0.241   8.765   9.547
    6        0.546   0.240   8.764   9.550
    7        0.545   0.240   8.763   9.549
    8        0.545   0.240   8.763   9.549
    9        0.541   0.241   8.766   9.547
   10        0.520   0.310   8.768   9.598
   11        0.521   0.306   8.777   9.605
   12        0.520   0.310   8.768   9.598
   13        0.520   0.307   8.777   9.604
   14        0.520   0.307   8.777   9.604
   15        0.514   0.309   8.774   9.596
   16        0.519   0.310   8.771   9.599
   17        0.514   0.308   8.776   9.599
   18        0.514   0.308   8.776   9.599
   19        0.516   0.301   8.780   9.597
   20        0.526   0.324   8.756   9.606
   21        0.526   0.324   8.756   9.606
   22        0.511   0.306   8.774   9.591
   23        0.522   0.323   8.764   9.609
   24        0.511   0.306   8.774   9.591
   25        0.517   0.303   8.776   9.595
   26        0.517   0.303   8.776   9.595
   27        0.511   0.306   8.772   9.589
   28        0.541   0.231   8.769   9.541
   29        0.535   0.233   8.774   9.542
   30        0.535   0.233   8.774   9.542
   31        0.527   0.235   8.779   9.541
   32        0.527   0.235   8.779   9.541
   33        0.535   0.232   8.775   9.542
   34        0.535   0.232   8.775   9.542
   35        0.540   0.231   8.770   9.542
   36        0.549   0.466   8.007   9.022
   37        1.610   3.244   0.000   4.854
   38        1.610   3.244   0.000   4.854
--------------------------------------------------
tot         22.259  16.545 314.976 353.780
 
    CHARGE:  cpu time    0.8071: real time    0.8073
    FORLOC:  cpu time    0.0114: real time    0.0114
    FORNL :  cpu time    3.3098: real time    3.3099
    STRESS:  cpu time    9.9116: real time    9.9118
    FORCOR:  cpu time    0.0493: real time    0.0495
    FORHAR:  cpu time    0.0185: real time    0.0186
    OFIELD:  cpu time    0.0003: real time    0.0003

  FORCE on cell =-STRESS in cart. coord.  units (eV):
  Direction    XX          YY          ZZ          XY          YZ          ZX
  --------------------------------------------------------------------------------------
  Alpha Z   957.42253   957.42253   957.42253
  Ewald  152024.71084151610.63023************    -0.00032     0.20848    -0.00010
  Hartree160573.96975160375.92351************     0.00001    -0.07527    -0.00003
  E(xc)   -1830.43605 -1831.73087 -1837.64887     0.00001     0.00887    -0.00001
  Local  ************************324572.95225     0.00286     0.10477    -0.00003
  n-local  -100.71190  -103.89552   -80.45211     4.25259    -0.12317     0.24691
  augment  2429.60316  2438.42567  2445.15210    -0.00139    -0.09475     0.00008
  Kinetic  5727.89532  5788.93967  5794.09303     0.83329    -0.16844     0.13640
  Fock        0.00000     0.00000     0.00000     0.00000     0.00000     0.00000
  -------------------------------------------------------------------------------------
  Total     -18.78894   -18.66980     0.46871    -0.00000    -0.13950    -0.00000
  in kB     -18.40510   -18.28840     0.45914    -0.00000    -0.13665    -0.00000
  external pressure =      -12.08 kB  Pullay stress =        0.00 kB


 VOLUME and BASIS-vectors are now :
 -----------------------------------------------------------------------------
  energy-cutoff  :      500.00
  volume of cell :     1635.59
      direct lattice vectors                 reciprocal lattice vectors
     8.813512802  0.000000000  0.000000000     0.113462137 -0.065507406  0.000000000
     4.406756909  7.632725690  0.000000000     0.000000000  0.131014796  0.000000000
     0.000000000  0.000000000 24.313408842     0.000000000  0.000000000  0.041129568

  length of vectors
     8.813512802  8.813512802 24.313408842     0.131014796  0.131014796  0.041129568


 FORCES acting on ions
    electron-ion (+dipol)            ewald-force                    non-local-force                 convergence-correction
 -----------------------------------------------------------------------------------------------
   -.200E-04 0.357E-01 0.269E+04   0.519E-04 -.196E-01 -.269E+04   -.145E-09 -.219E-02 -.939E+00   -.202E-03 -.929E-02 -.457E+00
   0.321E+00 0.509E+00 0.269E+04   -.279E+00 -.456E+00 -.269E+04   -.183E-01 -.336E-01 -.324E+00   -.152E-01 -.124E-01 -.472E+00
   -.321E+00 0.509E+00 0.269E+04   0.279E+00 -.456E+00 -.269E+04   0.183E-01 -.336E-01 -.324E+00   0.154E-01 -.104E-01 -.472E+00
   0.470E+00 -.890E-02 0.269E+04   -.518E+00 -.240E-01 -.269E+04   0.271E-01 0.322E-02 -.341E+00   0.202E-01 0.207E-01 -.448E+00
   0.797E-05 0.188E-01 0.269E+04   0.952E-04 -.217E-03 -.269E+04   -.130E-08 -.195E-01 -.355E+00   0.430E-02 0.371E-02 -.422E+00
   -.470E+00 -.887E-02 0.269E+04   0.518E+00 -.241E-01 -.269E+04   -.271E-01 0.322E-02 -.341E+00   -.218E-01 0.216E-01 -.447E+00
   0.315E+00 -.493E+00 0.269E+04   -.238E+00 0.480E+00 -.269E+04   -.266E-01 0.255E-02 -.352E+00   -.287E-01 0.761E-02 -.505E+00
   -.315E+00 -.493E+00 0.269E+04   0.238E+00 0.480E+00 -.269E+04   0.266E-01 0.255E-02 -.352E+00   0.306E-01 0.652E-02 -.505E+00
   0.196E-04 0.217E-01 0.269E+04   0.166E-03 0.198E-01 -.269E+04   -.156E-08 -.235E-01 -.474E+00   -.464E-02 -.236E-01 -.496E+00
   0.443E+01 0.263E+01 0.959E+03   -.401E+01 -.247E+01 -.958E+03   -.292E+00 -.125E+00 -.676E+00   -.599E-01 -.259E-02 -.396E+00
   0.167E-04 0.422E+01 0.963E+03   0.149E-03 -.415E+01 -.962E+03   -.599E-08 -.900E-01 -.557E+00   0.380E-02 -.238E-01 -.335E+00
   -.443E+01 0.263E+01 0.959E+03   0.401E+01 -.247E+01 -.958E+03   0.292E+00 -.125E+00 -.676E+00   0.586E-01 -.109E-02 -.396E+00
   0.347E+01 -.205E+01 0.963E+03   -.345E+01 0.210E+01 -.962E+03   -.251E-01 -.835E-02 -.487E+00   -.244E-01 -.237E-01 -.348E+00
   -.347E+01 -.205E+01 0.963E+03   0.345E+01 0.210E+01 -.962E+03   0.251E-01 -.835E-02 -.487E+00   0.322E-01 -.241E-01 -.348E+00
   0.307E-04 0.198E+00 0.958E+03   0.236E-03 -.169E+00 -.957E+03   0.267E-09 0.401E-02 -.452E+00   -.239E-02 -.189E-01 -.435E+00
   -.217E-04 -.505E+01 0.959E+03   0.163E-03 0.467E+01 -.958E+03   0.156E-07 0.235E+00 -.664E+00   0.299E-03 0.729E-01 -.429E+00
   0.298E+00 -.245E+00 0.957E+03   -.231E+00 0.193E+00 -.957E+03   -.534E-01 0.336E-01 -.374E+00   -.135E-01 0.210E-01 -.401E+00
   -.298E+00 -.245E+00 0.957E+03   0.231E+00 0.193E+00 -.957E+03   0.534E-01 0.336E-01 -.374E+00   0.134E-01 0.230E-01 -.401E+00
   -.410E-04 0.314E+01 -.806E+03   0.523E-04 -.328E+01 0.806E+03   0.591E-08 0.888E-01 0.698E+00   -.331E-03 0.192E-01 -.108E+00
   0.169E+02 0.109E+02 -.760E+03   -.167E+02 -.106E+02 0.761E+03   -.291E+00 -.238E+00 -.407E+00   0.113E+00 0.386E-01 0.733E-01
   -.169E+02 0.109E+02 -.760E+03   0.167E+02 -.106E+02 0.761E+03   0.291E+00 -.238E+00 -.407E+00   -.112E+00 0.407E-01 0.734E-01
   0.836E+01 -.589E+01 -.798E+03   -.863E+01 0.605E+01 0.797E+03   0.248E+00 -.146E+00 0.682E+00   0.253E-01 -.182E-01 -.239E-01
   -.105E-04 -.207E+02 -.762E+03   0.145E-03 0.207E+02 0.762E+03   0.914E-08 0.137E+00 -.146E+00   0.193E-02 -.184E+00 0.129E+00
   -.836E+01 -.589E+01 -.798E+03   0.863E+01 0.605E+01 0.797E+03   -.248E+00 -.146E+00 0.682E+00   -.323E-01 -.180E-01 -.244E-01
   -.221E+01 -.862E+00 -.808E+03   0.229E+01 0.896E+00 0.807E+03   0.190E-01 -.414E-01 0.628E+00   -.703E-01 0.623E-02 -.476E-01
   0.221E+01 -.862E+00 -.808E+03   -.229E+01 0.896E+00 0.807E+03   -.190E-01 -.414E-01 0.628E+00   0.721E-01 0.508E-02 -.468E-01
   0.809E-05 0.973E+01 -.799E+03   0.200E-03 -.100E+02 0.799E+03   0.168E-07 0.253E+00 0.694E+00   -.422E-02 0.681E-01 0.252E-01
   -.140E-04 0.452E+01 -.257E+04   0.290E-04 -.435E+01 0.257E+04   -.794E-08 -.119E+00 0.325E+00   0.134E-02 -.530E-01 0.972E-01
   0.353E+02 0.710E+02 -.254E+04   -.353E+02 -.715E+02 0.254E+04   -.117E+00 0.216E+00 0.770E+00   0.840E-01 0.747E-02 -.450E-01
   -.353E+02 0.710E+02 -.254E+04   0.353E+02 -.715E+02 0.254E+04   0.117E+00 0.216E+00 0.770E+00   -.902E-01 0.940E-02 -.444E-01
   0.858E+02 0.646E+00 -.252E+04   -.868E+02 -.614E+00 0.252E+04   0.447E+00 -.274E-01 0.907E+00   0.112E+00 0.110E-01 -.306E-01
   -.858E+02 0.646E+00 -.252E+04   0.868E+02 -.614E+00 0.252E+04   -.447E+00 -.274E-01 0.907E+00   -.119E+00 0.121E-01 -.310E-01
   0.342E+02 -.717E+02 -.254E+04   -.344E+02 0.722E+02 0.253E+04   -.230E-01 -.176E+00 0.758E+00   0.322E-01 -.504E-01 0.218E-02
   -.342E+02 -.717E+02 -.254E+04   0.344E+02 0.722E+02 0.253E+04   0.230E-01 -.176E+00 0.758E+00   -.364E-01 -.512E-01 0.127E-02
   0.283E-04 -.463E+01 -.257E+04   0.146E-03 0.439E+01 0.257E+04   0.106E-07 0.159E+00 0.445E+00   -.354E-02 0.859E-01 0.612E-01
   0.151E-04 0.716E-01 -.197E+04   0.101E-03 -.141E+00 0.197E+04   -.490E-08 -.737E-01 0.397E+01   0.409E-02 0.158E-01 -.464E+00
   0.242E+03 0.129E+00 -.171E+04   -.282E+03 0.152E-01 0.172E+04   0.395E+02 -.143E+00 -.126E+02   -.189E+00 -.164E-02 -.263E+00
   -.242E+03 0.129E+00 -.171E+04   0.282E+03 0.152E-01 0.172E+04   -.395E+02 -.143E+00 -.126E+02   0.190E+00 -.156E-02 -.264E+00
 -----------------------------------------------------------------------------------------------
   -.414E-03 0.847E+00 0.298E+02   -.568E-13 0.438E-13 -.500E-11   -.546E-07 -.821E+00 -.210E+02   -.139E-01 -.308E-01 -.864E+01
 
 
 POSITION                                       TOTAL-FORCE (eV/Angst)
 -----------------------------------------------------------------------------------
      0.00000      0.00000      5.28038         0.000000      0.004848      0.036930
      2.93784      0.00000      5.28038         0.007980      0.007707     -0.035510
      5.87568      0.00000      5.28038        -0.007980      0.007707     -0.035510
      1.46892      2.54424      5.28038         0.000021     -0.008402     -0.031512
      4.40676      2.54424      5.28038         0.000000      0.002874     -0.061531
      7.34459      2.54424      5.28038        -0.000021     -0.008402     -0.031512
      2.93784      5.08848      5.28038         0.020796     -0.003593     -0.020464
      5.87568      5.08848      5.28038        -0.020796     -0.003593     -0.020464
      8.81351      5.08848      5.28038        -0.000000     -0.005457     -0.016520
      1.46892      0.84808      7.67911         0.070477      0.036061      0.098284
      4.40676      0.84808      7.67911        -0.000000     -0.047738     -0.014451
      7.34459      0.84808      7.67911        -0.070477      0.036061      0.098284
      2.93784      3.39232      7.67911        -0.030945      0.017107     -0.014980
      5.87568      3.39232      7.67911         0.030945      0.017107     -0.014980
      8.81351      3.39232      7.67911         0.000000      0.014308      0.092035
      4.40676      5.93656      7.67911        -0.000000     -0.072203      0.083349
      7.34459      5.93656      7.67911         0.000607      0.004200      0.076500
     10.28243      5.93656      7.67911        -0.000607      0.004200      0.076500
      8.81351      1.69709     10.07334        -0.000000     -0.026237      0.001067
      2.92757      1.69024     10.04824         0.076386      0.090317      0.134147
      5.88594      1.69024     10.04824        -0.076386      0.090317      0.134147
     10.27700      4.24354     10.06671         0.006881     -0.008632      0.002405
      4.40676      4.25225     10.04824        -0.000000     -0.050221     -0.009228
      7.35003      4.24354     10.06671        -0.006881     -0.008632      0.002405
     11.75055      6.78418     10.07334         0.031157     -0.001186      0.019232
      5.87648      6.78418     10.07334        -0.031157     -0.001186      0.019232
      8.81351      6.77837     10.06671         0.000000      0.004064      0.019981
      0.00000      0.00000     12.49905        -0.000000     -0.003672     -0.045002
      2.94801      0.01573     12.49317        -0.105861     -0.259236     -0.144631
      5.86551      0.01573     12.49317         0.105860     -0.259236     -0.144631
      1.48763      2.54518     12.49317        -0.500906      0.016511     -0.278974
      7.32589      2.54518     12.49317         0.500906      0.016511     -0.278974
      2.94638      5.07181     12.49317        -0.144107      0.264689     -0.135565
      5.86714      5.07181     12.49317         0.144107      0.264689     -0.135565
      8.81351      5.08848     12.49660        -0.000000     -0.003578      0.005767
      4.40676      2.54424     12.29817        -0.000000     -0.126902      0.692432
      3.73143      2.54515     14.37328        -0.052899     -0.000587     -0.061349
      5.08208      2.54515     14.37328         0.052899     -0.000587     -0.061349
 -----------------------------------------------------------------------------------
    total drift:                               -0.014343     -0.004927      0.085337


--------------------------------------------------------------------------------------------------------



  FREE ENERGIE OF THE ION-ELECTRON SYSTEM (eV)
  ---------------------------------------------------
  free  energy   TOTEN  =      -121.59906882 eV

  energy  without entropy=     -121.59906882  energy(sigma->0) =     -121.59906882
 


--------------------------------------------------------------------------------------------------------


    POTLOK:  cpu time    0.0564: real time    0.0564


--------------------------------------------------------------------------------------------------------


 stress matrix after NEB project (eV)
    -18.78894     -0.00000     -0.00000
     -0.00000    -18.66980     -0.13950
     -0.00000     -0.13950      0.46871
  FORCES: max atom, RMS     0.081008    0.018585
  FORCE total and by dimension    0.114563    0.061349
  Stress total and by dimension   26.492339   18.788937
     LOOP+:  cpu time  172.4732: real time  172.4835
 -----------------------------------------------------------------------------
|                                                                             |
|           W    W    AA    RRRRR   N    N  II  N    N   GGGG   !!!           |
|           W    W   A  A   R    R  NN   N  II  NN   N  G    G  !!!           |
|           W    W  A    A  R    R  N N  N  II  N N  N  G       !!!           |
|           W WW W  AAAAAA  RRRRR   N  N N  II  N  N N  G  GGG   !            |
|           WW  WW  A    A  R   R   N   NN  II  N   NN  G    G                |
|           W    W  A    A  R    R  N    N  II  N    N   GGGG   !!!           |
|                                                                             |
|     Tetrahedron method does not include variations of the Fermi             |
|     occupations, so forces and stress will be inaccurate. We suggest        |
|     using a different smearing scheme ISMEAR = 1 or 2 for metals in         |
|     relaxations.                                                            |
|                                                                             |
 -----------------------------------------------------------------------------

    4ORBIT:  cpu time    0.0000: real time    0.0000



 total charge

# of ion       s       p       d       tot
------------------------------------------
    1        0.541   0.240   8.765   9.546
    2        0.545   0.240   8.765   9.550
    3        0.545   0.240   8.765   9.550
    4        0.546   0.240   8.764   9.550
    5        0.540   0.241   8.765   9.547
    6        0.546   0.240   8.764   9.550
    7        0.545   0.240   8.763   9.549
    8        0.545   0.240   8.763   9.549
    9        0.541   0.241   8.766   9.547
   10        0.520   0.310   8.768   9.598
   11        0.521   0.306   8.777   9.605
   12        0.520   0.310   8.768   9.598
   13        0.520   0.307   8.777   9.604
   14        0.520   0.307   8.777   9.604
   15        0.514   0.309   8.774   9.596
   16        0.519   0.310   8.771   9.599
   17        0.514   0.308   8.776   9.599
   18        0.514   0.308   8.776   9.599
   19        0.516   0.301   8.780   9.597
   20        0.526   0.324   8.756   9.606
   21        0.526   0.324   8.756   9.606
   22        0.511   0.306   8.774   9.591
   23        0.522   0.323   8.764   9.609
   24        0.511   0.306   8.774   9.591
   25        0.517   0.303   8.776   9.595
   26        0.517   0.303   8.776   9.595
   27        0.511   0.306   8.772   9.589
   28        0.541   0.231   8.769   9.541
   29        0.535   0.233   8.774   9.542
   30        0.535   0.233   8.774   9.542
   31        0.527   0.235   8.779   9.541
   32        0.527   0.235   8.779   9.541
   33        0.535   0.232   8.775   9.542
   34        0.535   0.232   8.775   9.542
   35        0.540   0.231   8.770   9.542
   36        0.549   0.466   8.007   9.022
   37        1.610   3.244   0.000   4.854
   38        1.610   3.244   0.000   4.854
--------------------------------------------------
tot         22.259  16.545 314.976 353.780
 
 BZINTS: Fermi energy:    0.159146;  407.000000 electrons
         Band energy:-0.150100E+04;  BLOECHL correction:   -0.058860

 total amount of memory used by VASP MPI-rank0   197234. kBytes
=======================================================================

   base      :      30000. kBytes
   nonlr-proj:      14125. kBytes
   fftplans  :       4808. kBytes
   grid      :      19857. kBytes
   one-center:        590. kBytes
   wavefun   :     127854. kBytes
 
  
  
 General timing and accounting informations for this job:
 ========================================================
  
                  Total CPU time used (sec):      187.220
                            User time (sec):      180.854
                          System time (sec):        6.366
                         Elapsed time (sec):      187.638
  
                   Maximum memory used (kb):      478632.
                   Average memory used (kb):          N/A
  
                          Minor page faults:       101727
                          Major page faults:            0
                 Voluntary context switches:         6056
