 vasp.6.2.0 18Jan21 (build Jun 12 2021 23:27:24) complex                        
  
 executed on             LinuxIFC date 2022.05.26  20:09:43
 running on   28 total cores
 distrk:  each k-point on   28 cores,    1 groups
 distr:  one band on NCORE=   1 cores,   28 groups


--------------------------------------------------------------------------------------------------------


 INCAR:
   ISMEAR = -5
   SIGMA = 0.1
   ISPIN = 1
   EDIFF = 1.d-5
   EDIFFG = -0.01
   NSW = 0
   NELM = 150
   ENCUT = 500
   ISIF = 2
   IBRION = 2
   LREAL = Auto
   ALGO = Fast
   ICHARG = 11
   LORBIT = 10
   LCHARG = .F.
   LWAVE = .F.

 POTCAR:    PAW_PBE Cu 22Jun2005                  
 POTCAR:    PAW_PBE Ir 06Sep2000                  
 POTCAR:    PAW_PBE H 15Jun2001                   
 -----------------------------------------------------------------------------
|                                                                             |
|           W    W    AA    RRRRR   N    N  II  N    N   GGGG   !!!           |
|           W    W   A  A   R    R  NN   N  II  NN   N  G    G  !!!           |
|           W    W  A    A  R    R  N N  N  II  N N  N  G       !!!           |
|           W WW W  AAAAAA  RRRRR   N  N N  II  N  N N  G  GGG   !            |
|           WW  WW  A    A  R   R   N   NN  II  N   NN  G    G                |
|           W    W  A    A  R    R  N    N  II  N    N   GGGG   !!!           |
|                                                                             |
|     For optimal performance we recommend to set                             |
|       NCORE = 2 up to number-of-cores-per-socket                            |
|     NCORE specifies how many cores store one orbital (NPAR=cpu/NCORE).      |
|     This setting can greatly improve the performance of VASP for DFT.       |
|     The default, NCORE=1 might be grossly inefficient on modern             |
|     multi-core architectures or massively parallel machines. Do your        |
|     own testing! More info at https://www.vasp.at/wiki/index.php/NCORE      |
|     Unfortunately you need to use the default for GW and RPA                |
|     calculations (for HF NCORE is supported but not extensively tested      |
|     yet).                                                                   |
|                                                                             |
 -----------------------------------------------------------------------------

 POTCAR:    PAW_PBE Cu 22Jun2005                  
   VRHFIN =Cu: d10 p1                                                                               
   LEXCH  = PE                                                                                      
   EATOM  =  1390.9808 eV,  102.2342 Ry                                                             
                                                                                                    
   TITEL  = PAW_PBE Cu 22Jun2005                                                                    
   LULTRA =        F    use ultrasoft PP ?                                                          
   IUNSCR =        1    unscreen: 0-lin 1-nonlin 2-no                                               
   RPACOR =    2.000    partial core radius                                                         
   POMASS =   63.546; ZVAL   =   11.000    mass and valenz                                          
   RCORE  =    2.300    outmost cutoff radius                                                       
   RWIGS  =    2.200; RWIGS  =    1.164    wigner-seitz radius (au A)                               
   ENMAX  =  295.446; ENMIN  =  221.585 eV                                                          
   ICORE  =        3    local potential                                                             
   LCOR   =        T    correct aug charges                                                         
   LPAW   =        T    paw PP                                                                      
   EAUG   =  586.980                                                                                
   DEXC   =    0.000                                                                                
   RMAX   =    2.344    core radius for proj-oper                                                   
   RAUG   =    1.300    factor for augmentation sphere                                              
   RDEP   =    2.302    radius for radial grids                                                     
   RDEPT  =    1.771    core radius for aug-charge                                                  
                                                                                                    
   Atomic configuration                                                                             
    9 entries                                                                                       
     n  l   j            E        occ.                                                              
     1  0  0.50     -8850.2468   2.0000                                                             
     2  0  0.50     -1062.3498   2.0000                                                             
     2  1  1.50      -916.8226   6.0000                                                             
     3  0  0.50      -114.6929   2.0000                                                             
     3  1  1.50       -72.1325   6.0000                                                             
     3  2  2.50        -5.0394  10.0000                                                             
     4  0  0.50        -4.6097   1.0000                                                             
     4  1  0.50        -4.0817   0.0000                                                             
     4  3  2.50        -1.3606   0.0000                                                             
   Description                                                                                      
     l       E           TYP  RCUT    TYP  RCUT                                                     
     2     -5.0393973     23  2.200                                                                 
     2     10.8846608     23  2.200                                                                 
     0     -4.6097109     23  2.200                                                                 
     0      8.2520465     23  2.200                                                                 
     1     -2.7211652     23  2.200                                                                 
     1     21.7055443     23  2.200                                                                 
     3      2.7211652     23  2.300                                                                 
  local pseudopotential read in
  partial core-charges read in
  partial kinetic energy density read in
  atomic valenz-charges read in
  non local Contribution for L=           2  read in
    real space projection operators read in
  non local Contribution for L=           2  read in
    real space projection operators read in
  non local Contribution for L=           0  read in
    real space projection operators read in
  non local Contribution for L=           0  read in
    real space projection operators read in
  non local Contribution for L=           1  read in
    real space projection operators read in
  non local Contribution for L=           1  read in
    real space projection operators read in
    PAW grid and wavefunctions read in
 
   number of l-projection  operators is LMAX  =           6
   number of lm-projection operators is LMMAX =          18
 
 POTCAR:    PAW_PBE Ir 06Sep2000                  
   VRHFIN =Ir: s1d8                                                                                 
   LEXCH  = PE                                                                                      
   EATOM  =   560.1833 eV,   41.1723 Ry                                                             
                                                                                                    
   TITEL  = PAW_PBE Ir 06Sep2000                                                                    
   LULTRA =        F    use ultrasoft PP ?                                                          
   IUNSCR =        1    unscreen: 0-lin 1-nonlin 2-no                                               
   RPACOR =    2.250    partial core radius                                                         
   POMASS =  192.220; ZVAL   =    9.000    mass and valenz                                          
   RCORE  =    2.600    outmost cutoff radius                                                       
   RWIGS  =    2.690; RWIGS  =    1.423    wigner-seitz radius (au A)                               
   ENMAX  =  210.864; ENMIN  =  158.148 eV                                                          
   RCLOC  =    1.857    cutoff for local pot                                                        
   LCOR   =        T    correct aug charges                                                         
   LPAW   =        T    paw PP                                                                      
   EAUG   =  318.962                                                                                
   DEXC   =    0.000                                                                                
   RMAX   =    2.667    core radius for proj-oper                                                   
   RAUG   =    1.300    factor for augmentation sphere                                              
   RDEP   =    2.748    radius for radial grids                                                     
   RDEPT  =    2.300    core radius for aug-charge                                                  
                                                                                                    
   Atomic configuration                                                                             
   16 entries                                                                                       
     n  l   j            E        occ.                                                              
     1  0  0.50    -76100.0449   2.0000                                                             
     2  0  0.50    -13308.1683   2.0000                                                             
     2  1  1.50    -11558.0021   6.0000                                                             
     3  0  0.50     -3110.7274   2.0000                                                             
     3  1  1.50     -2599.2109   6.0000                                                             
     3  2  2.50     -2037.1515  10.0000                                                             
     4  0  0.50      -661.6001   2.0000                                                             
     4  1  1.50      -493.8981   6.0000                                                             
     4  2  2.50      -288.1909  10.0000                                                             
     4  3  3.50       -59.5718  14.0000                                                             
     5  0  0.50       -95.3879   2.0000                                                             
     5  1  1.50       -52.2747   6.0000                                                             
     5  2  2.50        -5.4180   8.0000                                                             
     6  0  0.50        -5.5479   1.0000                                                             
     6  1  1.50        -6.8029   0.0000                                                             
     5  3  2.50        -1.3606   0.0000                                                             
   Description                                                                                      
     l       E           TYP  RCUT    TYP  RCUT                                                     
     2     -5.4179967     23  2.600                                                                 
     2     -6.7785793     23  2.600                                                                 
     0     -5.5478636     23  2.600                                                                 
     0      2.2542272     23  2.600                                                                 
     1     -2.7211652     23  2.600                                                                 
     1     20.4087390     23  2.600                                                                 
  local pseudopotential read in
  partial core-charges read in
  partial kinetic energy density read in
  atomic valenz-charges read in
  non local Contribution for L=           2  read in
    real space projection operators read in
  non local Contribution for L=           2  read in
    real space projection operators read in
  non local Contribution for L=           0  read in
    real space projection operators read in
  non local Contribution for L=           0  read in
    real space projection operators read in
  non local Contribution for L=           1  read in
    real space projection operators read in
  non local Contribution for L=           1  read in
    real space projection operators read in
    PAW grid and wavefunctions read in
 
   number of l-projection  operators is LMAX  =           6
   number of lm-projection operators is LMMAX =          18
 
 POTCAR:    PAW_PBE H 15Jun2001                   
   VRHFIN =H: ultrasoft test                                                                        
   LEXCH  = PE                                                                                      
   EATOM  =    12.4884 eV,    0.9179 Ry                                                             
                                                                                                    
   TITEL  = PAW_PBE H 15Jun2001                                                                     
   LULTRA =        F    use ultrasoft PP ?                                                          
   IUNSCR =        0    unscreen: 0-lin 1-nonlin 2-no                                               
   RPACOR =    0.000    partial core radius                                                         
   POMASS =    1.000; ZVAL   =    1.000    mass and valenz                                          
   RCORE  =    1.100    outmost cutoff radius                                                       
   RWIGS  =    0.700; RWIGS  =    0.370    wigner-seitz radius (au A)                               
   ENMAX  =  250.000; ENMIN  =  200.000 eV                                                          
   RCLOC  =    0.701    cutoff for local pot                                                        
   LCOR   =        T    correct aug charges                                                         
   LPAW   =        T    paw PP                                                                      
   EAUG   =  400.000                                                                                
   RMAX   =    1.123    core radius for proj-oper                                                   
   RAUG   =    1.200    factor for augmentation sphere                                              
   RDEP   =    1.112    radius for radial grids                                                     
   RDEPT  =    0.926    core radius for aug-charge                                                  
                                                                                                    
   Atomic configuration                                                                             
    2 entries                                                                                       
     n  l   j            E        occ.                                                              
     1  0  0.50        -6.4927   1.0000                                                             
     2  1  0.50        -3.4015   0.0000                                                             
   Description                                                                                      
     l       E           TYP  RCUT    TYP  RCUT                                                     
     0     -6.4927494     23  1.100                                                                 
     0      6.8029130     23  1.100                                                                 
     1     -4.0817478     23  1.100                                                                 
  local pseudopotential read in
  atomic valenz-charges read in
  non local Contribution for L=           0  read in
    real space projection operators read in
  non local Contribution for L=           0  read in
    real space projection operators read in
  non local Contribution for L=           1  read in
    real space projection operators read in
    PAW grid and wavefunctions read in
 
   number of l-projection  operators is LMAX  =           3
   number of lm-projection operators is LMMAX =           5
 
 Optimization of the real space projectors (new method)

 maximal supplied QI-value         = 16.25
 optimisation between [QCUT,QGAM] = [ 11.38, 22.75] = [ 36.24,144.96] Ry 
 Optimized for a Real-space Cutoff    1.52 Angstroem

   l    n(q)    QCUT    max X(q) W(low)/X(q) W(high)/X(q)  e(spline) 
   2      9    11.376     4.610    0.21E-03    0.10E-03    0.26E-06
   2      9    11.376     8.522    0.33E-03    0.16E-03    0.37E-06
   0     10    11.376    51.609    0.62E-04    0.20E-04    0.13E-06
   0     10    11.376    27.747    0.54E-04    0.20E-04    0.13E-06
   1     10    11.376    20.408    0.13E-04    0.99E-04    0.19E-06
   1     10    11.376    13.425    0.12E-04    0.87E-04    0.17E-06
 Optimization of the real space projectors (new method)

 maximal supplied QI-value         = 14.36
 optimisation between [QCUT,QGAM] = [ 11.35, 22.84] = [ 36.05,146.02] Ry 
 Optimized for a Real-space Cutoff    1.52 Angstroem

   l    n(q)    QCUT    max X(q) W(low)/X(q) W(high)/X(q)  e(spline) 
   2      9    11.346   134.116    0.47E-03    0.13E-03    0.92E-06
   2      9    11.346   130.192    0.47E-03    0.13E-03    0.92E-06
   0     10    11.346    60.310    0.74E-04    0.13E-03    0.69E-06
   0     10    11.346    39.218    0.68E-04    0.12E-03    0.65E-06
   1     10    11.346    18.439    0.15E-03    0.34E-04    0.20E-06
   1     10    11.346    12.760    0.12E-03    0.31E-04    0.16E-06
 Optimization of the real space projectors (new method)

 maximal supplied QI-value         = 34.20
 optimisation between [QCUT,QGAM] = [ 11.29, 22.57] = [ 35.68,142.71] Ry 
 Optimized for a Real-space Cutoff    1.16 Angstroem

   l    n(q)    QCUT    max X(q) W(low)/X(q) W(high)/X(q)  e(spline) 
   0      8    11.287    19.460    0.40E-03    0.73E-03    0.16E-06
   0      8    11.287    12.209    0.38E-03    0.70E-03    0.15E-06
   1      7    11.287     4.655    0.22E-03    0.25E-04    0.22E-06
  PAW_PBE Cu 22Jun2005                  :
 energy of atom  1       EATOM=-1390.9808
 kinetic energy error for atom=    0.0043 (will be added to EATOM!!)
  PAW_PBE Ir 06Sep2000                  :
 energy of atom  2       EATOM= -560.1833
 kinetic energy error for atom=    0.0018 (will be added to EATOM!!)
  PAW_PBE H 15Jun2001                   :
 energy of atom  3       EATOM=  -12.4884
 kinetic energy error for atom=    0.0020 (will be added to EATOM!!)
 
 
 POSCAR: Cu-Ir-H
  positions in direct lattice
  velocities in cartesian coordinates
 exchange correlation table for  LEXCH =        8
   RHO(1)=    0.500       N(1)  =     2000
   RHO(2)=  100.500       N(2)  =     4000

 VTST: version 3.2, (02/03/18)

 CHAIN: initializing optimizer
 
 OPT: Using VASP Conjugate-Gradient optimizer
 CHAIN: Read ICHAIN            0
 
 POSCAR: Cu-Ir-H
  positions in direct lattice
  velocities in cartesian coordinates
 


--------------------------------------------------------------------------------------------------------


 ion  position               nearest neighbor table
   1  0.000  0.000  0.252-   7 2.57   3 2.57   4 2.57   2 2.57   6 2.57   8 2.57  12 2.57  10 2.57
                            16 2.57
   2  0.333  0.000  0.252-   8 2.57   9 2.57   5 2.57   1 2.57   3 2.57  11 2.57   4 2.57  10 2.57
                            17 2.57
   3  0.667  0.000  0.252-   1 2.57   7 2.57   6 2.57   9 2.57   2 2.57  12 2.57   5 2.57  18 2.57
                            11 2.57
   4  0.000  0.333  0.252-   5 2.57   6 2.57   1 2.57   7 2.57   2 2.57  13 2.57   9 2.57  10 2.57
                            15 2.57
   5  0.333  0.333  0.252-   4 2.57   2 2.57   7 2.57  13 2.57   8 2.57   6 2.57   3 2.57  11 2.57
                            14 2.57
   6  0.667  0.333  0.252-   4 2.57   9 2.57  15 2.57   3 2.57   1 2.57   8 2.57  14 2.57   5 2.57
                            12 2.57
   7  0.000  0.667  0.252-   1 2.57   3 2.57  16 2.57  18 2.57   4 2.57   5 2.57   8 2.57   9 2.57
                            13 2.57
   8  0.333  0.667  0.252-   9 2.57   2 2.57  17 2.57   6 2.57   1 2.57   7 2.57   5 2.57  14 2.57
                            16 2.57
   9  0.667  0.667  0.252-   8 2.57   6 2.57   2 2.57  17 2.57   3 2.57   7 2.57   4 2.57  15 2.57
                            18 2.57
  10  0.111  0.111  0.351-  20 2.53  11 2.57  12 2.57  13 2.57   1 2.57   2 2.57   4 2.57  15 2.57
                            16 2.57  17 2.57  26 2.57  19 2.57
  11  0.444  0.111  0.351-  20 2.55  21 2.55  10 2.57  13 2.57   2 2.57  17 2.57  14 2.57  12 2.57
                             5 2.57   3 2.57  18 2.57  27 2.57
  12  0.778  0.111  0.351-  21 2.53  15 2.57  10 2.57  14 2.57  18 2.57   3 2.57   1 2.57  16 2.57
                            11 2.57   6 2.57  19 2.57  25 2.57
  13  0.111  0.444  0.351-  23 2.55  20 2.55  16 2.57  18 2.57  10 2.57  11 2.57  14 2.57   5 2.57
                             4 2.57   7 2.57  15 2.57  22 2.57
  14  0.444  0.444  0.351-  21 2.55  23 2.55  15 2.57  17 2.57  12 2.57  16 2.57  13 2.57  11 2.57
                             6 2.57   8 2.57   5 2.57  24 2.57
  15  0.778  0.444  0.351-  19 2.56  24 2.56  22 2.56  14 2.57  17 2.57  12 2.57   6 2.57  18 2.57
                            10 2.57   9 2.57  13 2.57   4 2.57
  16  0.111  0.778  0.351-  23 2.53  18 2.57  13 2.57   7 2.57  14 2.57  17 2.57  12 2.57  10 2.57
                             8 2.57   1 2.57  25 2.57  26 2.57
  17  0.444  0.778  0.351-  26 2.56  27 2.56  24 2.56  14 2.57  15 2.57   8 2.57   9 2.57  11 2.57
                            16 2.57  18 2.57  10 2.57   2 2.57
  18  0.778  0.778  0.351-  25 2.56  22 2.56  27 2.56  16 2.57  13 2.57   7 2.57  15 2.57  12 2.57
                            17 2.57   9 2.57   3 2.57  11 2.57
  19  0.888  0.223  0.449-  28 2.55  21 2.55  20 2.55  22 2.56  24 2.56  15 2.56  32 2.56  31 2.56
                            12 2.57  10 2.57  25 2.58  26 2.58
  20  0.221  0.221  0.448-  10 2.53  11 2.55  13 2.55  26 2.55  19 2.55  36 2.55  27 2.57  22 2.57
                            29 2.59  31 2.59  23 2.59  21 2.59
  21  0.558  0.221  0.448-  12 2.53  14 2.55  11 2.55  19 2.55  25 2.55  36 2.55  24 2.57  27 2.57
                            32 2.59  30 2.59  20 2.59  23 2.59
  22  0.888  0.556  0.449-  35 2.54  24 2.56  27 2.56  19 2.56  25 2.56  18 2.56  15 2.56  13 2.57
                            23 2.57  20 2.57  31 2.57  33 2.57
  23  0.221  0.558  0.448-  16 2.53  13 2.55  14 2.55  25 2.55  26 2.55  36 2.55  22 2.57  24 2.57
                            33 2.59  34 2.59  20 2.59  21 2.59
  24  0.556  0.556  0.449-  35 2.54  22 2.56  27 2.56  19 2.56  26 2.56  15 2.56  17 2.56  14 2.57
                            21 2.57  23 2.57  32 2.57  34 2.57
  25  0.888  0.888  0.449-  28 2.55  21 2.55  23 2.55  22 2.56  27 2.56  18 2.56  33 2.56  30 2.56
                            16 2.57  12 2.57  19 2.58  26 2.58
  26  0.223  0.888  0.449-  28 2.55  20 2.55  23 2.55  27 2.56  24 2.56  17 2.56  29 2.56  34 2.56
                            10 2.57  16 2.57  25 2.58  19 2.58
  27  0.556  0.888  0.449-  35 2.54  24 2.56  22 2.56  26 2.56  25 2.56  17 2.56  18 2.56  11 2.57
                            20 2.57  21 2.57  29 2.57  30 2.57
  28  0.000  0.000  0.546-  25 2.55  19 2.55  26 2.55  33 2.56  30 2.56  31 2.56  29 2.56  32 2.56
                            34 2.56
  29  0.333  0.999  0.548-  34 2.55  28 2.56  26 2.56  35 2.57  31 2.57  27 2.57  36 2.57  30 2.58
                            20 2.59
  30  0.668  0.999  0.548-  33 2.55  28 2.56  25 2.56  35 2.57  32 2.57  27 2.57  36 2.57  29 2.58
                            21 2.59
  31  0.999  0.333  0.548-  32 2.55  28 2.56  19 2.56  35 2.57  29 2.57  22 2.57  36 2.57  33 2.58
                            20 2.59
  32  0.668  0.333  0.548-  31 2.55  28 2.56  19 2.56  35 2.57  30 2.57  24 2.57  36 2.57  34 2.58
                            21 2.59
  33  0.999  0.668  0.548-  30 2.55  28 2.56  25 2.56  35 2.57  34 2.57  22 2.57  36 2.57  31 2.58
                            23 2.59
  34  0.333  0.668  0.548-  29 2.55  28 2.56  26 2.56  35 2.57  33 2.57  24 2.57  36 2.57  32 2.58
                            23 2.59
  35  0.667  0.667  0.546-  24 2.54  27 2.54  22 2.54  34 2.57  32 2.57  29 2.57  30 2.57  33 2.57
                            31 2.57
  36  0.333  0.333  0.545-  37 1.61  23 2.55  20 2.55  21 2.55  31 2.57  29 2.57  33 2.57  34 2.57
                            32 2.57  30 2.57
  37  0.333  0.333  0.621-  36 1.61
 
  LATTYP: Found a hexagonal cell.
 ALAT       =     7.6967864036
 C/A-ratio  =     2.7653617908
  
  Lattice vectors:
  
 A1 = (  -3.8483927580,  -6.6656128093,   0.0000000000)
 A2 = (   7.6967864037,   0.0000000000,   0.0000000000)
 A3 = (   0.0000000000,   0.0000000000,  21.2843990326)


Analysis of symmetry for initial positions (statically):
=====================================================================
 Subroutine PRICEL returns:
 Original cell was already a primitive cell.
 

 Routine SETGRP: Setting up the symmetry group for a 
 hexagonal supercell.


 Subroutine GETGRP returns: Found  6 space group operations
 (whereof  6 operations were pure point group operations)
 out of a pool of 24 trial point group operations.


The static configuration has the point symmetry C_3v.


Analysis of symmetry for dynamics (positions and initial velocities):
=====================================================================
 Subroutine PRICEL returns:
 Original cell was already a primitive cell.
 

 Routine SETGRP: Setting up the symmetry group for a 
 hexagonal supercell.


 Subroutine GETGRP returns: Found  6 space group operations
 (whereof  6 operations were pure point group operations)
 out of a pool of 24 trial point group operations.


The dynamic configuration has the point symmetry C_3v.


Analysis of constrained symmetry for selective dynamics:
=====================================================================
 Subroutine PRICEL returns:
 Original cell was already a primitive cell.
 

 Routine SETGRP: Setting up the symmetry group for a 
 hexagonal supercell.


 Subroutine GETGRP returns: Found  6 space group operations
 (whereof  6 operations were pure point group operations)
 out of a pool of 24 trial point group operations.


The constrained configuration has the point symmetry C_3v.


 Subroutine INISYM returns: Found  6 space group operations
 (whereof  6 operations are pure point group operations),
 and found     1 'primitive' translations


----------------------------------------------------------------------------------------

                                     Primitive cell                                     

  volume of cell :    1091.9705

  direct lattice vectors                    reciprocal lattice vectors
     7.696786404  0.000000000  0.000000000     0.129924354 -0.075011849  0.000000000
     3.848392758  6.665612809  0.000000000     0.000000000  0.150023716  0.000000000
     0.000000000  0.000000000 21.284399033     0.000000000  0.000000000  0.046982769

  length of vectors
     7.696786404  7.696786404 21.284399033     0.150023716  0.150023716  0.046982769

  position of ions in fractional coordinates (direct lattice)
     0.000000000  0.000000000  0.252370745
     0.333333343  0.000000000  0.252370745
     0.666666687  0.000000000  0.252370745
     1.000000000  0.333333343  0.252370745
     0.333333313  0.333333343  0.252370745
     0.666666687  0.333333343  0.252370745
     1.000000000  0.666666687  0.252370745
     0.333333373  0.666666687  0.252370745
     0.666666627  0.666666687  0.252370745
     0.111111119  0.111111112  0.350790262
     0.444444418  0.111111112  0.350790262
     0.777777791  0.111111112  0.350790262
     0.111111119  0.444444448  0.350790262
     0.444444478  0.444444448  0.350790262
     0.777777731  0.444444448  0.350790262
     0.111111112  0.777777731  0.350790262
     0.444444478  0.777777731  0.350790262
     0.777777851  0.777777731  0.350790262
     0.888405840  0.223188336  0.449235545
     0.221047320  0.221047305  0.447812217
     0.557905420  0.221047305  0.447812217
     0.888076192  0.555961874  0.449167313
     0.221047290  0.557905360  0.447812217
     0.555961934  0.555961874  0.449167313
     0.888405840  0.888405840  0.449235545
     0.223188351  0.888405840  0.449235545
     0.555961874  0.888076192  0.449167313
     0.000000000  0.000000000  0.546410358
     0.332763824  0.999227797  0.547870318
     0.668008409  0.999227797  0.547870318
     0.999227797  0.332763824  0.547870318
     0.668008409  0.332763824  0.547870318
     0.999227797  0.668008409  0.547870318
     0.332763854  0.668008409  0.547870318
     0.666666627  0.666666687  0.546369580
     0.333333313  0.333333343  0.545005776
     0.333333313  0.333333343  0.620546762

  ion indices of the primitive-cell ions
   primitive index   ion index
                 1           1
                 2           2
                 3           3
                 4           4
                 5           5
                 6           6
                 7           7
                 8           8
                 9           9
                10          10
                11          11
                12          12
                13          13
                14          14
                15          15
                16          16
                17          17
                18          18
                19          19
                20          20
                21          21
                22          22
                23          23
                24          24
                25          25
                26          26
                27          27
                28          28
                29          29
                30          30
                31          31
                32          32
                33          33
                34          34
                35          35
                36          36
                37          37

----------------------------------------------------------------------------------------

 
 
 KPOINTS: Automatic mesh                          

Automatic generation of k-mesh.
 Grid dimensions read from file:
 generate k-points for:    8    8    1

 Generating k-lattice:

  Cartesian coordinates                     Fractional coordinates (reciprocal lattice)
     0.016240544 -0.009376481  0.000000000     0.125000000 -0.000000000  0.000000000
     0.000000000  0.018752964  0.000000000     0.000000000  0.125000000  0.000000000
     0.000000000  0.000000000  0.046982769     0.000000000  0.000000000  1.000000000

  Length of vectors
     0.018752964  0.018752964  0.046982769

  Shift w.r.t. Gamma in fractional coordinates (k-lattice)
     0.000000000  0.000000000  0.000000000

 TETIRR: Found     36 inequivalent tetrahedra from      384
 
 Subroutine IBZKPT returns following result:
 ===========================================
 
 Found     10 irreducible k-points:
 
 Following reciprocal coordinates:
            Coordinates               Weight
  0.000000  0.000000  0.000000      1.000000
  0.125000 -0.000000  0.000000      6.000000
  0.250000 -0.000000  0.000000      6.000000
  0.375000 -0.000000  0.000000      6.000000
  0.500000 -0.000000  0.000000      3.000000
  0.250000  0.125000  0.000000      6.000000
  0.375000  0.125000  0.000000     12.000000
  0.500000  0.125000  0.000000     12.000000
  0.500000  0.250000  0.000000      6.000000
 -0.375000  0.250000  0.000000      6.000000
 
 Following cartesian coordinates:
            Coordinates               Weight
  0.000000  0.000000  0.000000      1.000000
  0.016241 -0.009376  0.000000      6.000000
  0.032481 -0.018753  0.000000      6.000000
  0.048722 -0.028129  0.000000      6.000000
  0.064962 -0.037506  0.000000      3.000000
  0.032481  0.000000  0.000000      6.000000
  0.048722 -0.009376  0.000000     12.000000
  0.064962 -0.018753  0.000000     12.000000
  0.064962  0.000000  0.000000      6.000000
 -0.048722  0.065635  0.000000      6.000000
 


--------------------------------------------------------------------------------------------------------




 Dimension of arrays:
   k-points           NKPTS =     10   k-points in BZ     NKDIM =     10   number of bands    NBANDS=    252
   number of dos      NEDOS =    301   number of ions     NIONS =     37
   non local maximal  LDIM  =      6   non local SUM 2l+1 LMDIM =     18
   total plane-waves  NPLWV = 211680
   max r-space proj   IRMAX =   2893   max aug-charges    IRDMAX=  14216
   dimension x,y,z NGX =    42 NGY =   42 NGZ =  120
   dimension x,y,z NGXF=    84 NGYF=   84 NGZF=  240
   support grid    NGXF=    84 NGYF=   84 NGZF=  240
   ions per type =              35   1   1
   NGX,Y,Z   is equivalent  to a cutoff of   9.07,  9.07,  9.37 a.u.
   NGXF,Y,Z  is equivalent  to a cutoff of  18.14, 18.14, 18.75 a.u.

 SYSTEM =  unknown system                          
 POSCAR =  Cu-Ir-H                                 

 Startparameter for this run:
   NWRITE =      2    write-flag & timer
   PREC   = normal    normal or accurate (medium, high low for compatibility)
   ISTART =      0    job   : 0-new  1-cont  2-samecut
   ICHARG =     11    charge: 1-file 2-atom 10-const
   ISPIN  =      1    spin polarized calculation?
   LNONCOLLINEAR =      F non collinear calculations
   LSORBIT =      F    spin-orbit coupling
   INIWAV =      1    electr: 0-lowe 1-rand  2-diag
   LASPH  =      F    aspherical Exc in radial PAW
   METAGGA=      F    non-selfconsistent MetaGGA calc.

 Electronic Relaxation 1
   ENCUT  =  500.0 eV  36.75 Ry    6.06 a.u.  14.03 14.03 38.81*2*pi/ulx,y,z
   ENINI  =  500.0     initial cutoff
   ENAUG  =  587.0 eV  augmentation charge cutoff
   NELM   =    150;   NELMIN=  2; NELMDL= -5     # of ELM steps 
   EDIFF  = 0.1E-04   stopping-criterion for ELM
   LREAL  =      T    real-space projection
   NLSPLINE    = F    spline interpolate recip. space projectors
   LCOMPAT=      F    compatible to vasp.4.4
   GGA_COMPAT  = T    GGA compatible to vasp.4.4-vasp.4.6
   LMAXPAW     = -100 max onsite density
   LMAXMIX     =    2 max onsite mixed and CHGCAR
   VOSKOWN=      0    Vosko Wilk Nusair interpolation
   ROPT   =   -0.00050  -0.00050  -0.00050
 Ionic relaxation
   EDIFFG = -.1E-01   stopping-criterion for IOM
   NSW    =      0    number of steps for IOM
   NBLOCK =      1;   KBLOCK =      1    inner block; outer block 
   IBRION =     -1    ionic relax: 0-MD 1-quasi-New 2-CG
   NFREE  =      1    steps in history (QN), initial steepest desc. (CG)
   ISIF   =      2    stress and relaxation
   IWAVPR =     10    prediction:  0-non 1-charg 2-wave 3-comb
   ISYM   =      2    0-nonsym 1-usesym 2-fastsym
   LCORR  =      T    Harris-Foulkes like correction to forces

   POTIM  = 0.5000    time-step for ionic-motion
   TEIN   =    0.0    initial temperature
   TEBEG  =    0.0;   TEEND  =   0.0 temperature during run
   SMASS  =  -3.00    Nose mass-parameter (am)
   estimated Nose-frequenzy (Omega)   =  0.10E-29 period in steps = 0.13E+47 mass=  -0.135E-26a.u.
   SCALEE = 1.0000    scale energy and forces
   NPACO  =    256;   APACO  = 16.0  distance and # of slots for P.C.
   PSTRESS=    0.0 pullay stress

  Mass of Ions in am
   POMASS =  63.55192.22  1.00
  Ionic Valenz
   ZVAL   =  11.00  9.00  1.00
  Atomic Wigner-Seitz radii
   RWIGS  =  -1.00 -1.00 -1.00
  virtual crystal weights 
   VCA    =   1.00  1.00  1.00
   NELECT =     395.0000    total number of electrons
   NUPDOWN=      -1.0000    fix difference up-down

 DOS related values:
   EMIN   =  10.00;   EMAX   =-10.00  energy-range for DOS
   EFERMI =   0.00
   ISMEAR =    -5;   SIGMA  =   0.10  broadening in eV -4-tet -1-fermi 0-gaus

 Electronic relaxation 2 (details)
   IALGO  =     68    algorithm
   LDIAG  =      T    sub-space diagonalisation (order eigenvalues)
   LSUBROT=      F    optimize rotation matrix (better conditioning)
   TURBO    =      0    0=normal 1=particle mesh
   IRESTART =      0    0=no restart 2=restart with 2 vectors
   NREBOOT  =      0    no. of reboots
   NMIN     =      0    reboot dimension
   EREF     =   0.00    reference energy to select bands
   IMIX   =      4    mixing-type and parameters
     AMIX     =   0.40;   BMIX     =  1.00
     AMIX_MAG =   1.60;   BMIX_MAG =  1.00
     AMIN     =   0.10
     WC   =   100.;   INIMIX=   1;  MIXPRE=   1;  MAXMIX= -45

 Intra band minimization:
   WEIMIN = 0.0000     energy-eigenvalue tresh-hold
   EBREAK =  0.99E-08  absolut break condition
   DEPER  =   0.30     relativ break condition  

   TIME   =   0.40     timestep for ELM

  volume/ion in A,a.u.               =      29.51       199.16
  Fermi-wavevector in a.u.,A,eV,Ry     =   1.166461  2.204292 18.512513  1.360631
  Thomas-Fermi vector in A             =   2.302974
 
 Write flags
   LWAVE        =      F    write WAVECAR
   LDOWNSAMPLE  =      F    k-point downsampling of WAVECAR
   LCHARG       =      F    write CHGCAR
   LVTOT        =      F    write LOCPOT, total local potential
   LVHAR        =      F    write LOCPOT, Hartree potential only
   LELF         =      F    write electronic localiz. function (ELF)
   LORBIT       =     10    0 simple, 1 ext, 2 COOP (PROOUT), +10 PAW based schemes


 Dipole corrections
   LMONO  =      F    monopole corrections only (constant potential shift)
   LDIPOL =      F    correct potential (dipole corrections)
   IDIPOL =      0    1-x, 2-y, 3-z, 4-all directions 
   EPSILON=  1.0000000 bulk dielectric constant

 Exchange correlation treatment:
   GGA     =    --    GGA type
   LEXCH   =     8    internal setting for exchange type
   VOSKOWN=      0    Vosko Wilk Nusair interpolation
   LHFCALC =     F    Hartree Fock is set to
   LHFONE  =     F    Hartree Fock one center treatment
   AEXX    =    0.0000 exact exchange contribution

 Linear response parameters
   LEPSILON=     F    determine dielectric tensor
   LRPA    =     F    only Hartree local field effects (RPA)
   LNABLA  =     F    use nabla operator in PAW spheres
   LVEL    =     F    velocity operator in full k-point grid
   LINTERFAST=   F  fast interpolation
   KINTER  =     0    interpolate to denser k-point grid
   CSHIFT  =0.1000    complex shift for real part using Kramers Kronig
   OMEGAMAX=  -1.0    maximum frequency
   DEG_THRESHOLD= 0.2000000E-02 threshold for treating states as degnerate
   RTIME   =   -0.100 relaxation time in fs
  (WPLASMAI=    0.000 imaginary part of plasma frequency in eV, 0.658/RTIME)
   DFIELD  = 0.0000000 0.0000000 0.0000000 field for delta impulse in time
 
 Orbital magnetization related:
   ORBITALMAG=     F  switch on orbital magnetization
   LCHIMAG   =     F  perturbation theory with respect to B field
   DQ        =  0.001000  dq finite difference perturbation B field
   LLRAUG    =     F  two centre corrections for induced B field



--------------------------------------------------------------------------------------------------------


 Static calculation
 charge density and potential remain constant during run
 non-spin polarized calculation
 RMM-DIIS sequential band-by-band and
  variant of blocked Davidson during initial phase
 perform sub-space diagonalisation
    before iterative eigenvector-optimisation
 no mixing
 using additional bands           54
 real space projection scheme for non local part
 use partial core corrections
 calculate Harris-corrections to forces 
   (improved forces if not selfconsistent)
 use gradient corrections 
 WARNING: stress and forces are not correct
  (second derivative of E(xc) not defined)
 use of overlap-Matrix (Vanderbilt PP)
 Fermi weights with tetrahedron method with Bloechl corrections


--------------------------------------------------------------------------------------------------------


  energy-cutoff  :      500.00
  volume of cell :     1091.97
      direct lattice vectors                 reciprocal lattice vectors
     7.696786404  0.000000000  0.000000000     0.129924354 -0.075011849  0.000000000
     3.848392758  6.665612809  0.000000000     0.000000000  0.150023716  0.000000000
     0.000000000  0.000000000 21.284399033     0.000000000  0.000000000  0.046982769

  length of vectors
     7.696786404  7.696786404 21.284399033     0.150023716  0.150023716  0.046982769


 
 k-points in units of 2pi/SCALE and weight: Automatic mesh                          
   0.00000000  0.00000000  0.00000000       0.016
   0.01624054 -0.00937648  0.00000000       0.094
   0.03248109 -0.01875296  0.00000000       0.094
   0.04872163 -0.02812944  0.00000000       0.094
   0.06496218 -0.03750592  0.00000000       0.047
   0.03248109  0.00000000  0.00000000       0.094
   0.04872163 -0.00937648  0.00000000       0.188
   0.06496218 -0.01875296  0.00000000       0.188
   0.06496218  0.00000000  0.00000000       0.094
  -0.04872163  0.06563537  0.00000000       0.094
 
 k-points in reciprocal lattice and weights: Automatic mesh                          
   0.00000000  0.00000000  0.00000000       0.016
   0.12500000 -0.00000000  0.00000000       0.094
   0.25000000 -0.00000000  0.00000000       0.094
   0.37500000 -0.00000000  0.00000000       0.094
   0.50000000 -0.00000000  0.00000000       0.047
   0.25000000  0.12500000  0.00000000       0.094
   0.37500000  0.12500000  0.00000000       0.188
   0.50000000  0.12500000  0.00000000       0.188
   0.50000000  0.25000000  0.00000000       0.094
  -0.37500000  0.25000000  0.00000000       0.094
 
 position of ions in fractional coordinates (direct lattice) 
   0.00000000  0.00000000  0.25237075
   0.33333334  0.00000000  0.25237075
   0.66666669  0.00000000  0.25237075
   0.00000000  0.33333334  0.25237075
   0.33333331  0.33333334  0.25237075
   0.66666669  0.33333334  0.25237075
   0.00000000  0.66666669  0.25237075
   0.33333337  0.66666669  0.25237075
   0.66666663  0.66666669  0.25237075
   0.11111112  0.11111111  0.35079026
   0.44444442  0.11111111  0.35079026
   0.77777779  0.11111111  0.35079026
   0.11111112  0.44444445  0.35079026
   0.44444448  0.44444445  0.35079026
   0.77777773  0.44444445  0.35079026
   0.11111111  0.77777773  0.35079026
   0.44444448  0.77777773  0.35079026
   0.77777785  0.77777773  0.35079026
   0.88840584  0.22318834  0.44923554
   0.22104732  0.22104730  0.44781222
   0.55790542  0.22104730  0.44781222
   0.88807619  0.55596187  0.44916731
   0.22104729  0.55790536  0.44781222
   0.55596193  0.55596187  0.44916731
   0.88840584  0.88840584  0.44923554
   0.22318835  0.88840584  0.44923554
   0.55596187  0.88807619  0.44916731
   0.00000000  0.00000000  0.54641036
   0.33276382  0.99922780  0.54787032
   0.66800841  0.99922780  0.54787032
   0.99922780  0.33276382  0.54787032
   0.66800841  0.33276382  0.54787032
   0.99922780  0.66800841  0.54787032
   0.33276385  0.66800841  0.54787032
   0.66666663  0.66666669  0.54636958
   0.33333331  0.33333334  0.54500578
   0.33333331  0.33333334  0.62054676
 
 position of ions in cartesian coordinates  (Angst):
   0.00000000  0.00000000  5.37155964
   2.56559554  0.00000000  5.37155964
   5.13119109  0.00000000  5.37155964
   1.28279762  2.22187100  5.37155964
   3.84839293  2.22187100  5.37155964
   6.41398872  2.22187100  5.37155964
   2.56559525  4.44374201  5.37155964
   5.13119102  4.44374201  5.37155964
   7.69678588  4.44374201  5.37155964
   1.28279775  0.74062365  7.46635991
   3.84839295  0.74062365  7.46635991
   6.41398873  0.74062365  7.46635991
   2.56559535  2.96249461  7.46635991
   5.13119101  2.96249461  7.46635991
   7.69678586  2.96249461  7.46635991
   3.84839268  5.18436521  7.46635991
   6.41398840  5.18436521  7.46635991
   8.97958418  5.18436521  7.46635991
   7.69678637  1.48768703  9.56170860
   2.55203085  1.47341575  9.53141393
   5.14475570  1.47341575  9.53141393
   8.97489241  3.70582659  9.56025631
   3.84839272  3.71878111  9.53141393
   6.41867990  3.70582659  9.56025631
  10.25680459  5.92176935  9.56170860
   5.13676766  5.92176935  9.56170860
   7.69678578  5.91957204  9.56025631
   0.00000000  0.00000000 11.63001609
   6.40663309  6.66046561 11.66109047
   8.98693906  6.66046561 11.66109047
   8.97144882  2.21807481 11.66109047
   6.42212393  2.21807481 11.66109047
  10.26160165  4.45268541 11.66109047
   5.13197103  4.45268541 11.66109047
   7.69678588  4.44374201 11.62914817
   3.84839293  2.22187100 11.60012040
   3.84839293  2.22187100 13.20796491
 


--------------------------------------------------------------------------------------------------------


 k-point   1 :   0.0000 0.0000 0.0000  plane waves:   27671
 k-point   2 :   0.1250-0.0000 0.0000  plane waves:   27649
 k-point   3 :   0.2500-0.0000 0.0000  plane waves:   27714
 k-point   4 :   0.3750-0.0000 0.0000  plane waves:   27740
 k-point   5 :   0.5000-0.0000 0.0000  plane waves:   27782
 k-point   6 :   0.2500 0.1250 0.0000  plane waves:   27698
 k-point   7 :   0.3750 0.1250 0.0000  plane waves:   27702
 k-point   8 :   0.5000 0.1250 0.0000  plane waves:   27747
 k-point   9 :   0.5000 0.2500 0.0000  plane waves:   27734
 k-point  10 :  -0.3750 0.2500 0.0000  plane waves:   27782

 maximum and minimum number of plane-waves per node :     27782    27649

 maximum number of plane-waves:     27782
 maximum index in each direction: 
   IXMAX=   14   IYMAX=   14   IZMAX=   38
   IXMIN=  -14   IYMIN=  -14   IZMIN=  -38


 serial   3D FFT for wavefunctions
 parallel 3D FFT for charge:
    minimum data exchange during FFTs selected (reduces bandwidth)


 total amount of memory used by VASP MPI-rank0   104519. kBytes
=======================================================================

   base      :      30000. kBytes
   nonlr-proj:      17633. kBytes
   fftplans  :       2916. kBytes
   grid      :      12390. kBytes
   one-center:        575. kBytes
   wavefun   :      41005. kBytes
 
     INWAV:  cpu time    0.0000: real time    0.0000
 initial charge density was supplied:
 number of electron     395.0000029 magnetization 
 keeping initial charge density in first step


--------------------------------------------------------------------------------------------------------


 Maximum index for non-local projection operator         2775
 Maximum index for augmentation-charges          633 (set IRDMAX)


--------------------------------------------------------------------------------------------------------


 First call to EWALD:  gamma=   0.172
 Maximum number of real-space cells 4x 4x 2
 Maximum number of reciprocal cells 2x 2x 5

    FEWALD:  cpu time    0.0013: real time    0.0014


--------------------------------------- Iteration      1(   1)  ---------------------------------------


    POTLOK:  cpu time    0.0268: real time    0.0272
    SETDIJ:  cpu time    0.0046: real time    0.0046
     EDDAV:  cpu time    5.7277: real time    5.7294
 BZINTS: Fermi energy:   13.760265;  395.000000 electrons
         Band energy: 0.259462E+04;  BLOECHL correction:   -0.034030
       DOS:  cpu time    0.0104: real time    0.0105
    --------------------------------------------
      LOOP:  cpu time    5.7695: real time    5.7717

 eigenvalue-minimisations  :  5040
 total energy-change (2. order) : 0.3543322E+04  (-0.1692835E+05)
 number of electron     395.0000029 magnetization 
 augmentation part      395.0000029 magnetization 

 Free energy of the ion-electron system (eV)
  ---------------------------------------------------
  alpha Z        PSCENC =       888.44163350
  Ewald energy   TEWEN  =    147440.64370981
  -Hartree energ DENC   =   -194450.46012432
  -exchange      EXHF   =         0.00000000
  -V(xc)+E(xc)   XCENC  =      1543.82423855
  PAW double counting   =     46385.94622323   -50116.53722021
  entropy T*S    EENTRO =         0.00000000
  eigenvalues    EBANDS =      2594.61700036
  atomic energy  EATOM  =     49256.84702652
  Solvation  Ediel_sol  =         0.00000000
  ---------------------------------------------------
  free energy    TOTEN  =      3543.32248744 eV

  energy without entropy =     3543.32248744  energy(sigma->0) =     3543.32248744


--------------------------------------------------------------------------------------------------------




--------------------------------------- Iteration      1(   2)  ---------------------------------------


     EDDAV:  cpu time    5.7019: real time    5.7058
 BZINTS: Fermi energy:    3.105291;  395.000000 electrons
         Band energy:-0.607961E+03;  BLOECHL correction:   -0.015467
       DOS:  cpu time    0.0100: real time    0.0100
    --------------------------------------------
      LOOP:  cpu time    5.7118: real time    5.7157

 eigenvalue-minimisations  :  5040
 total energy-change (2. order) :-0.3202578E+04  (-0.3064228E+04)
 number of electron     395.0000029 magnetization 
 augmentation part      395.0000029 magnetization 

 Free energy of the ion-electron system (eV)
  ---------------------------------------------------
  alpha Z        PSCENC =       888.44163350
  Ewald energy   TEWEN  =    147440.64370981
  -Hartree energ DENC   =   -194450.46012432
  -exchange      EXHF   =         0.00000000
  -V(xc)+E(xc)   XCENC  =      1543.82423855
  PAW double counting   =     46385.94622323   -50116.53722021
  entropy T*S    EENTRO =         0.00000000
  eigenvalues    EBANDS =      -607.96097182
  atomic energy  EATOM  =     49256.84702652
  Solvation  Ediel_sol  =         0.00000000
  ---------------------------------------------------
  free energy    TOTEN  =       340.74451526 eV

  energy without entropy =      340.74451526  energy(sigma->0) =      340.74451526


--------------------------------------------------------------------------------------------------------




--------------------------------------- Iteration      1(   3)  ---------------------------------------


     EDDAV:  cpu time    5.9788: real time    5.9792
 BZINTS: Fermi energy:    0.153483;  395.000000 electrons
         Band energy:-0.105968E+04;  BLOECHL correction:   -0.055779
       DOS:  cpu time    0.0099: real time    0.0099
    --------------------------------------------
      LOOP:  cpu time    5.9888: real time    5.9891

 eigenvalue-minimisations  :  5348
 total energy-change (2. order) :-0.4517193E+03  (-0.4200347E+03)
 number of electron     395.0000029 magnetization 
 augmentation part      395.0000029 magnetization 

 Free energy of the ion-electron system (eV)
  ---------------------------------------------------
  alpha Z        PSCENC =       888.44163350
  Ewald energy   TEWEN  =    147440.64370981
  -Hartree energ DENC   =   -194450.46012432
  -exchange      EXHF   =         0.00000000
  -V(xc)+E(xc)   XCENC  =      1543.82423855
  PAW double counting   =     46385.94622323   -50116.53722021
  entropy T*S    EENTRO =         0.00000000
  eigenvalues    EBANDS =     -1059.68026723
  atomic energy  EATOM  =     49256.84702652
  Solvation  Ediel_sol  =         0.00000000
  ---------------------------------------------------
  free energy    TOTEN  =      -110.97478016 eV

  energy without entropy =     -110.97478016  energy(sigma->0) =     -110.97478016


--------------------------------------------------------------------------------------------------------




--------------------------------------- Iteration      1(   4)  ---------------------------------------


     EDDAV:  cpu time    6.3440: real time    6.3444
 BZINTS: Fermi energy:    0.042195;  395.000000 electrons
         Band energy:-0.108260E+04;  BLOECHL correction:   -0.061855
       DOS:  cpu time    0.0099: real time    0.0099
    --------------------------------------------
      LOOP:  cpu time    6.3538: real time    6.3542

 eigenvalue-minimisations  :  5740
 total energy-change (2. order) :-0.2291862E+02  (-0.2267261E+02)
 number of electron     395.0000029 magnetization 
 augmentation part      395.0000029 magnetization 

 Free energy of the ion-electron system (eV)
  ---------------------------------------------------
  alpha Z        PSCENC =       888.44163350
  Ewald energy   TEWEN  =    147440.64370981
  -Hartree energ DENC   =   -194450.46012432
  -exchange      EXHF   =         0.00000000
  -V(xc)+E(xc)   XCENC  =      1543.82423855
  PAW double counting   =     46385.94622323   -50116.53722021
  entropy T*S    EENTRO =         0.00000000
  eigenvalues    EBANDS =     -1082.59889186
  atomic energy  EATOM  =     49256.84702652
  Solvation  Ediel_sol  =         0.00000000
  ---------------------------------------------------
  free energy    TOTEN  =      -133.89340478 eV

  energy without entropy =     -133.89340478  energy(sigma->0) =     -133.89340478


--------------------------------------------------------------------------------------------------------




--------------------------------------- Iteration      1(   5)  ---------------------------------------


     EDDAV:  cpu time    6.3146: real time    6.3149
 BZINTS: Fermi energy:    0.039862;  395.000000 electrons
         Band energy:-0.108309E+04;  BLOECHL correction:   -0.061841
       DOS:  cpu time    0.0099: real time    0.0099
    --------------------------------------------
      LOOP:  cpu time    6.3245: real time    6.3248

 eigenvalue-minimisations  :  5712
 total energy-change (2. order) :-0.4914538E+00  (-0.4913717E+00)
 number of electron     395.0000029 magnetization 
 augmentation part      395.0000029 magnetization 

 Free energy of the ion-electron system (eV)
  ---------------------------------------------------
  alpha Z        PSCENC =       888.44163350
  Ewald energy   TEWEN  =    147440.64370981
  -Hartree energ DENC   =   -194450.46012432
  -exchange      EXHF   =         0.00000000
  -V(xc)+E(xc)   XCENC  =      1543.82423855
  PAW double counting   =     46385.94622323   -50116.53722021
  entropy T*S    EENTRO =         0.00000000
  eigenvalues    EBANDS =     -1083.09034563
  atomic energy  EATOM  =     49256.84702652
  Solvation  Ediel_sol  =         0.00000000
  ---------------------------------------------------
  free energy    TOTEN  =      -134.38485856 eV

  energy without entropy =     -134.38485856  energy(sigma->0) =     -134.38485856


--------------------------------------------------------------------------------------------------------




--------------------------------------- Iteration      1(   6)  ---------------------------------------


    EDDIAG:  cpu time    1.0504: real time    1.0507
  RMM-DIIS:  cpu time    3.0801: real time    3.0802
    ORTHCH:  cpu time    0.2073: real time    0.2073
 BZINTS: Fermi energy:    0.039793;  395.000000 electrons
         Band energy:-0.108311E+04;  BLOECHL correction:   -0.061830
       DOS:  cpu time    0.0096: real time    0.0096
    --------------------------------------------
      LOOP:  cpu time    4.3474: real time    4.3478

 eigenvalue-minimisations  :  5359
 total energy-change (2. order) :-0.1524758E-01  (-0.1525514E-01)
 number of electron     395.0000029 magnetization 
 augmentation part      395.0000029 magnetization 

 Free energy of the ion-electron system (eV)
  ---------------------------------------------------
  alpha Z        PSCENC =       888.44163350
  Ewald energy   TEWEN  =    147440.64370981
  -Hartree energ DENC   =   -194450.46012432
  -exchange      EXHF   =         0.00000000
  -V(xc)+E(xc)   XCENC  =      1543.82423855
  PAW double counting   =     46385.94622323   -50116.53722021
  entropy T*S    EENTRO =         0.00000000
  eigenvalues    EBANDS =     -1083.10559321
  atomic energy  EATOM  =     49256.84702652
  Solvation  Ediel_sol  =         0.00000000
  ---------------------------------------------------
  free energy    TOTEN  =      -134.40010613 eV

  energy without entropy =     -134.40010613  energy(sigma->0) =     -134.40010613


--------------------------------------------------------------------------------------------------------




--------------------------------------- Iteration      1(   7)  ---------------------------------------


    EDDIAG:  cpu time    1.0516: real time    1.0518
  RMM-DIIS:  cpu time    4.4850: real time    4.4852
    ORTHCH:  cpu time    0.2076: real time    0.2076
 BZINTS: Fermi energy:    0.039766;  395.000000 electrons
         Band energy:-0.108311E+04;  BLOECHL correction:   -0.061826
       DOS:  cpu time    0.0101: real time    0.0101
    --------------------------------------------
      LOOP:  cpu time    5.7543: real time    5.7547

 eigenvalue-minimisations  :  7847
 total energy-change (2. order) :-0.7035656E-02  (-0.7005138E-02)
 number of electron     395.0000029 magnetization 
 augmentation part      395.0000029 magnetization 

 Free energy of the ion-electron system (eV)
  ---------------------------------------------------
  alpha Z        PSCENC =       888.44163350
  Ewald energy   TEWEN  =    147440.64370981
  -Hartree energ DENC   =   -194450.46012432
  -exchange      EXHF   =         0.00000000
  -V(xc)+E(xc)   XCENC  =      1543.82423855
  PAW double counting   =     46385.94622323   -50116.53722021
  entropy T*S    EENTRO =         0.00000000
  eigenvalues    EBANDS =     -1083.11262887
  atomic energy  EATOM  =     49256.84702652
  Solvation  Ediel_sol  =         0.00000000
  ---------------------------------------------------
  free energy    TOTEN  =      -134.40714179 eV

  energy without entropy =     -134.40714179  energy(sigma->0) =     -134.40714179


--------------------------------------------------------------------------------------------------------




--------------------------------------- Iteration      1(   8)  ---------------------------------------


    EDDIAG:  cpu time    1.0503: real time    1.0506
  RMM-DIIS:  cpu time    3.4045: real time    3.4046
    ORTHCH:  cpu time    0.2078: real time    0.2078
 BZINTS: Fermi energy:    0.039766;  395.000000 electrons
         Band energy:-0.108311E+04;  BLOECHL correction:   -0.061827
       DOS:  cpu time    0.0103: real time    0.0103
    --------------------------------------------
      LOOP:  cpu time    4.6730: real time    4.6733

 eigenvalue-minimisations  :  5973
 total energy-change (2. order) :-0.3843966E-03  (-0.3883318E-03)
 number of electron     395.0000029 magnetization 
 augmentation part      395.0000029 magnetization 

 Free energy of the ion-electron system (eV)
  ---------------------------------------------------
  alpha Z        PSCENC =       888.44163350
  Ewald energy   TEWEN  =    147440.64370981
  -Hartree energ DENC   =   -194450.46012432
  -exchange      EXHF   =         0.00000000
  -V(xc)+E(xc)   XCENC  =      1543.82423855
  PAW double counting   =     46385.94622323   -50116.53722021
  entropy T*S    EENTRO =         0.00000000
  eigenvalues    EBANDS =     -1083.11301326
  atomic energy  EATOM  =     49256.84702652
  Solvation  Ediel_sol  =         0.00000000
  ---------------------------------------------------
  free energy    TOTEN  =      -134.40752619 eV

  energy without entropy =     -134.40752619  energy(sigma->0) =     -134.40752619


--------------------------------------------------------------------------------------------------------




--------------------------------------- Iteration      1(   9)  ---------------------------------------


    EDDIAG:  cpu time    1.0513: real time    1.0514
  RMM-DIIS:  cpu time    4.4138: real time    4.4140
    ORTHCH:  cpu time    0.2076: real time    0.2076
 BZINTS: Fermi energy:    0.039766;  395.000000 electrons
         Band energy:-0.108311E+04;  BLOECHL correction:   -0.061826
       DOS:  cpu time    0.0101: real time    0.0101
    --------------------------------------------
      LOOP:  cpu time    5.6827: real time    5.6831

 eigenvalue-minimisations  :  7766
 total energy-change (2. order) :-0.1485928E-03  (-0.1478205E-03)
 number of electron     395.0000029 magnetization 
 augmentation part      395.0000029 magnetization 

 Free energy of the ion-electron system (eV)
  ---------------------------------------------------
  alpha Z        PSCENC =       888.44163350
  Ewald energy   TEWEN  =    147440.64370981
  -Hartree energ DENC   =   -194450.46012432
  -exchange      EXHF   =         0.00000000
  -V(xc)+E(xc)   XCENC  =      1543.82423855
  PAW double counting   =     46385.94622323   -50116.53722021
  entropy T*S    EENTRO =         0.00000000
  eigenvalues    EBANDS =     -1083.11316186
  atomic energy  EATOM  =     49256.84702652
  Solvation  Ediel_sol  =         0.00000000
  ---------------------------------------------------
  free energy    TOTEN  =      -134.40767478 eV

  energy without entropy =     -134.40767478  energy(sigma->0) =     -134.40767478


--------------------------------------------------------------------------------------------------------




--------------------------------------- Iteration      1(  10)  ---------------------------------------


    EDDIAG:  cpu time    1.0508: real time    1.0509
  RMM-DIIS:  cpu time    2.6313: real time    2.6314
    ORTHCH:  cpu time    0.2080: real time    0.2080
 BZINTS: Fermi energy:    0.039766;  395.000000 electrons
         Band energy:-0.108311E+04;  BLOECHL correction:   -0.061826
       DOS:  cpu time    0.0096: real time    0.0096
    --------------------------------------------
      LOOP:  cpu time    3.8997: real time    3.8999

 eigenvalue-minimisations  :  4216
 total energy-change (2. order) :-0.8501724E-05  (-0.8510764E-05)
 number of electron     395.0000029 magnetization 
 augmentation part      395.0000029 magnetization 

 Free energy of the ion-electron system (eV)
  ---------------------------------------------------
  alpha Z        PSCENC =       888.44163350
  Ewald energy   TEWEN  =    147440.64370981
  -Hartree energ DENC   =   -194450.46012432
  -exchange      EXHF   =         0.00000000
  -V(xc)+E(xc)   XCENC  =      1543.82423855
  PAW double counting   =     46385.94622323   -50116.53722021
  entropy T*S    EENTRO =         0.00000000
  eigenvalues    EBANDS =     -1083.11317036
  atomic energy  EATOM  =     49256.84702652
  Solvation  Ediel_sol  =         0.00000000
  ---------------------------------------------------
  free energy    TOTEN  =      -134.40768328 eV

  energy without entropy =     -134.40768328  energy(sigma->0) =     -134.40768328


--------------------------------------------------------------------------------------------------------




 average (electrostatic) potential at core
  the test charge radii are     0.9430  1.2793  0.5201
  (the norm of the test charge is              1.0000)
       1 -70.9278       2 -70.9123       3 -70.9122       4 -70.9123       5 -70.9254
       6 -70.9120       7 -70.9122       8 -70.9120       9 -70.9226      10 -71.1961
      11 -71.1512      12 -71.1958      13 -71.1512      14 -71.1507      15 -71.1785
      16 -71.1958      17 -71.1785      18 -71.1786      19 -71.1610      20 -71.1869
      21 -71.1865      22 -71.1480      23 -71.1865      24 -71.1476      25 -71.1610
      26 -71.1610      27 -71.1481      28 -70.8775      29 -70.8675      30 -70.8675
      31 -70.8675      32 -70.8672      33 -70.8675      34 -70.8672      35 -70.8799
      36 -57.6605      37 -36.0966
 
 
 
 E-fermi :   0.0398     XC(G=0):  -5.8959     alpha+bet : -5.3104

 Fermi energy:         0.0397655978

 k-point     1 :       0.0000    0.0000    0.0000
  band No.  band energies     occupation 
      1      -8.7661      2.00000
      2      -7.5142      2.00000
      3      -5.9207      2.00000
      4      -5.8421      2.00000
      5      -5.7782      2.00000
      6      -5.7780      2.00000
      7      -5.7395      2.00000
      8      -5.7394      2.00000
      9      -5.7294      2.00000
     10      -5.1964      2.00000
     11      -5.0318      2.00000
     12      -5.0318      2.00000
     13      -5.0212      2.00000
     14      -4.9788      2.00000
     15      -4.9788      2.00000
     16      -4.9691      2.00000
     17      -4.4638      2.00000
     18      -4.4025      2.00000
     19      -4.4024      2.00000
     20      -4.2791      2.00000
     21      -4.2614      2.00000
     22      -4.2613      2.00000
     23      -4.2165      2.00000
     24      -3.9870      2.00000
     25      -3.9870      2.00000
     26      -3.9824      2.00000
     27      -3.9699      2.00000
     28      -3.9698      2.00000
     29      -3.8910      2.00000
     30      -3.8904      2.00000
     31      -3.8903      2.00000
     32      -3.8074      2.00000
     33      -3.8073      2.00000
     34      -3.7983      2.00000
     35      -3.7890      2.00000
     36      -3.7890      2.00000
     37      -3.7818      2.00000
     38      -3.7549      2.00000
     39      -3.7549      2.00000
     40      -3.7467      2.00000
     41      -3.7372      2.00000
     42      -3.6955      2.00000
     43      -3.6955      2.00000
     44      -3.6652      2.00000
     45      -3.6652      2.00000
     46      -3.5318      2.00000
     47      -3.5190      2.00000
     48      -3.5190      2.00000
     49      -3.5151      2.00000
     50      -3.4719      2.00000
     51      -3.4718      2.00000
     52      -3.4542      2.00000
     53      -3.4414      2.00000
     54      -3.3986      2.00000
     55      -3.2863      2.00000
     56      -3.1578      2.00000
     57      -3.1578      2.00000
     58      -3.1160      2.00000
     59      -3.1160      2.00000
     60      -3.1001      2.00000
     61      -3.0714      2.00000
     62      -3.0188      2.00000
     63      -3.0188      2.00000
     64      -3.0049      2.00000
     65      -3.0049      2.00000
     66      -2.9854      2.00000
     67      -2.9821      2.00000
     68      -2.9821      2.00000
     69      -2.9563      2.00000
     70      -2.9548      2.00000
     71      -2.9548      2.00000
     72      -2.9318      2.00000
     73      -2.8679      2.00000
     74      -2.8679      2.00000
     75      -2.8577      2.00000
     76      -2.8182      2.00000
     77      -2.8182      2.00000
     78      -2.7728      2.00000
     79      -2.7728      2.00000
     80      -2.7591      2.00000
     81      -2.7579      2.00000
     82      -2.7579      2.00000
     83      -2.7394      2.00000
     84      -2.6889      2.00000
     85      -2.6888      2.00000
     86      -2.6688      2.00000
     87      -2.6655      2.00000
     88      -2.6654      2.00000
     89      -2.6604      2.00000
     90      -2.6416      2.00000
     91      -2.6416      2.00000
     92      -2.6166      2.00000
     93      -2.6166      2.00000
     94      -2.5997      2.00000
     95      -2.5997      2.00000
     96      -2.5836      2.00000
     97      -2.5836      2.00000
     98      -2.5601      2.00000
     99      -2.5484      2.00000
    100      -2.5484      2.00000
    101      -2.5109      2.00000
    102      -2.5109      2.00000
    103      -2.5079      2.00000
    104      -2.5033      2.00000
    105      -2.5033      2.00000
    106      -2.4974      2.00000
    107      -2.4974      2.00000
    108      -2.3105      2.00000
    109      -2.2639      2.00000
    110      -2.2639      2.00000
    111      -2.2573      2.00000
    112      -2.2553      2.00000
    113      -2.2511      2.00000
    114      -2.2511      2.00000
    115      -2.2465      2.00000
    116      -2.2465      2.00000
    117      -2.2453      2.00000
    118      -2.2453      2.00000
    119      -2.2401      2.00000
    120      -2.2356      2.00000
    121      -2.2187      2.00000
    122      -2.1970      2.00000
    123      -2.0677      2.00000
    124      -2.0677      2.00000
    125      -2.0487      2.00000
    126      -2.0487      2.00000
    127      -2.0410      2.00000
    128      -2.0378      2.00000
    129      -2.0378      2.00000
    130      -2.0256      2.00000
    131      -2.0256      2.00000
    132      -1.9871      2.00000
    133      -1.9871      2.00000
    134      -1.9586      2.00000
    135      -1.9541      2.00000
    136      -1.9457      2.00000
    137      -1.9456      2.00000
    138      -1.9391      2.00000
    139      -1.9327      2.00000
    140      -1.9327      2.00000
    141      -1.8955      2.00000
    142      -1.8955      2.00000
    143      -1.8087      2.00000
    144      -1.8087      2.00000
    145      -1.8086      2.00000
    146      -1.8026      2.00000
    147      -1.7991      2.00000
    148      -1.7990      2.00000
    149      -1.7908      2.00000
    150      -1.7908      2.00000
    151      -1.7869      2.00000
    152      -1.7767      2.00000
    153      -1.7766      2.00000
    154      -1.7489      2.00000
    155      -1.6721      2.00000
    156      -1.6721      2.00000
    157      -1.6706      2.00000
    158      -1.6677      2.00000
    159      -1.6644      2.00000
    160      -1.6643      2.00000
    161      -1.6539      2.00000
    162      -1.6539      2.00000
    163      -1.6388      2.00000
    164      -1.6387      2.00000
    165      -1.6282      2.00000
    166      -1.6281      2.00000
    167      -1.6107      2.00000
    168      -1.6107      2.00000
    169      -1.6106      2.00000
    170      -1.6103      2.00000
    171      -1.6003      2.00000
    172      -1.5947      2.00000
    173      -1.5947      2.00000
    174      -1.5912      2.00000
    175      -1.5912      2.00000
    176      -1.5831      2.00000
    177      -1.5828      2.00000
    178      -1.5828      2.00000
    179      -1.5717      2.00000
    180      -1.5669      2.00000
    181      -1.5603      2.00000
    182      -1.5603      2.00000
    183      -1.5498      2.00000
    184      -1.5417      2.00000
    185      -1.5417      2.00000
    186      -1.4786      2.00000
    187      -1.4786      2.00000
    188      -1.4598      2.00000
    189      -1.4558      2.00000
    190      -1.4557      2.00000
    191      -1.4547      2.00000
    192      -1.1034      2.00000
    193      -0.8139      2.00000
    194      -0.8139      2.00000
    195      -0.6400      2.00000
    196      -0.6263      2.00000
    197      -0.6262      2.00000
    198      -0.2698      2.00000
    199      -0.2198      2.00000
    200      -0.2198      2.00000
    201      -0.1540      2.41589
    202      -0.1540      2.04426
    203      -0.0544      0.66894
    204       1.4551      0.00000
    205       2.0516      0.00000
    206       2.0769      0.00000
    207       2.0769      0.00000
    208       2.3523      0.00000
    209       2.3523      0.00000
    210       3.4496      0.00000
    211       3.5167      0.00000
    212       3.7325      0.00000
    213       3.7325      0.00000
    214       3.8721      0.00000
    215       3.8721      0.00000
    216       4.0664      0.00000
    217       4.4206      0.00000
    218       4.5465      0.00000
    219       4.5465      0.00000
    220       4.5704      0.00000
    221       4.5704      0.00000
    222       4.5840      0.00000
    223       4.6019      0.00000
    224       4.7894      0.00000
    225       4.7894      0.00000
    226       5.0320      0.00000
    227       5.0320      0.00000
    228       5.2209      0.00000
    229       5.3896      0.00000
    230       5.9184      0.00000
    231       6.2123      0.00000
    232       6.3755      0.00000
    233       6.3755      0.00000
    234       6.5637      0.00000
    235       6.6500      0.00000
    236       6.6501      0.00000
    237       6.9074      0.00000
    238       6.9075      0.00000
    239       6.9406      0.00000
    240       6.9854      0.00000
    241       6.9854      0.00000
    242       7.2360      0.00000
    243       7.5141      0.00000
    244       7.5213      0.00000
    245       7.5558      0.00000
    246       7.5581      0.00000
    247       7.5646      0.00000
    248       7.5991      0.00000
    249       7.6041      0.00000
    250       7.9810      0.00000
    251       8.0428      0.00000
    252       8.0532      0.00000

 k-point     2 :       0.1250   -0.0000    0.0000
  band No.  band energies     occupation 
      1      -8.7108      2.00000
      2      -7.4610      2.00000
      3      -6.3400      2.00000
      4      -6.0356      2.00000
      5      -5.9995      2.00000
      6      -5.8360      2.00000
      7      -5.5243      2.00000
      8      -5.4728      2.00000
      9      -5.3878      2.00000
     10      -5.2747      2.00000
     11      -5.1967      2.00000
     12      -5.1259      2.00000
     13      -4.9857      2.00000
     14      -4.8883      2.00000
     15      -4.8588      2.00000
     16      -4.7884      2.00000
     17      -4.4674      2.00000
     18      -4.4100      2.00000
     19      -4.3831      2.00000
     20      -4.3062      2.00000
     21      -4.2602      2.00000
     22      -4.2488      2.00000
     23      -4.2018      2.00000
     24      -4.0332      2.00000
     25      -3.9966      2.00000
     26      -3.9778      2.00000
     27      -3.9571      2.00000
     28      -3.9548      2.00000
     29      -3.9306      2.00000
     30      -3.9300      2.00000
     31      -3.9134      2.00000
     32      -3.8943      2.00000
     33      -3.8797      2.00000
     34      -3.8447      2.00000
     35      -3.8335      2.00000
     36      -3.7942      2.00000
     37      -3.7690      2.00000
     38      -3.7672      2.00000
     39      -3.7278      2.00000
     40      -3.6979      2.00000
     41      -3.6895      2.00000
     42      -3.6761      2.00000
     43      -3.6632      2.00000
     44      -3.6122      2.00000
     45      -3.6084      2.00000
     46      -3.5703      2.00000
     47      -3.5525      2.00000
     48      -3.5314      2.00000
     49      -3.5235      2.00000
     50      -3.4937      2.00000
     51      -3.4419      2.00000
     52      -3.4077      2.00000
     53      -3.3798      2.00000
     54      -3.3773      2.00000
     55      -3.2938      2.00000
     56      -3.2070      2.00000
     57      -3.1971      2.00000
     58      -3.1566      2.00000
     59      -3.1344      2.00000
     60      -3.1135      2.00000
     61      -3.0954      2.00000
     62      -3.0446      2.00000
     63      -3.0424      2.00000
     64      -3.0182      2.00000
     65      -3.0107      2.00000
     66      -3.0028      2.00000
     67      -2.9941      2.00000
     68      -2.9778      2.00000
     69      -2.9675      2.00000
     70      -2.9404      2.00000
     71      -2.9330      2.00000
     72      -2.9029      2.00000
     73      -2.8835      2.00000
     74      -2.8714      2.00000
     75      -2.8490      2.00000
     76      -2.8046      2.00000
     77      -2.7928      2.00000
     78      -2.7913      2.00000
     79      -2.7891      2.00000
     80      -2.7636      2.00000
     81      -2.7434      2.00000
     82      -2.7413      2.00000
     83      -2.7330      2.00000
     84      -2.7132      2.00000
     85      -2.7034      2.00000
     86      -2.6897      2.00000
     87      -2.6765      2.00000
     88      -2.6745      2.00000
     89      -2.6586      2.00000
     90      -2.6556      2.00000
     91      -2.6335      2.00000
     92      -2.6106      2.00000
     93      -2.6005      2.00000
     94      -2.5987      2.00000
     95      -2.5870      2.00000
     96      -2.5684      2.00000
     97      -2.5656      2.00000
     98      -2.5630      2.00000
     99      -2.5536      2.00000
    100      -2.5353      2.00000
    101      -2.5290      2.00000
    102      -2.5223      2.00000
    103      -2.5079      2.00000
    104      -2.4931      2.00000
    105      -2.4793      2.00000
    106      -2.4765      2.00000
    107      -2.4602      2.00000
    108      -2.4459      2.00000
    109      -2.4134      2.00000
    110      -2.4080      2.00000
    111      -2.3859      2.00000
    112      -2.3429      2.00000
    113      -2.3088      2.00000
    114      -2.2657      2.00000
    115      -2.2584      2.00000
    116      -2.2553      2.00000
    117      -2.2460      2.00000
    118      -2.2365      2.00000
    119      -2.2345      2.00000
    120      -2.2261      2.00000
    121      -2.2114      2.00000
    122      -2.1820      2.00000
    123      -2.1797      2.00000
    124      -2.1660      2.00000
    125      -2.0807      2.00000
    126      -2.0765      2.00000
    127      -2.0733      2.00000
    128      -2.0249      2.00000
    129      -2.0221      2.00000
    130      -2.0144      2.00000
    131      -2.0133      2.00000
    132      -2.0051      2.00000
    133      -1.9924      2.00000
    134      -1.9794      2.00000
    135      -1.9658      2.00000
    136      -1.9588      2.00000
    137      -1.9415      2.00000
    138      -1.9369      2.00000
    139      -1.9350      2.00000
    140      -1.9114      2.00000
    141      -1.9042      2.00000
    142      -1.8822      2.00000
    143      -1.8798      2.00000
    144      -1.8578      2.00000
    145      -1.8292      2.00000
    146      -1.8025      2.00000
    147      -1.7933      2.00000
    148      -1.7725      2.00000
    149      -1.7700      2.00000
[...]
  0.000   0.000   0.000   0.000   0.000   0.000   0.000   0.000   0.000   0.000   0.000   0.000   0.000   0.000   0.000   0.000
  0.000   0.000   0.000   0.000   0.000   0.000   0.000   0.000   0.000   0.000   0.000   0.000   0.000   0.000   0.000   0.000
  0.000   0.000   0.000   0.000   0.000   0.000   0.000   0.000   0.000   0.000   0.000   0.000   0.000   0.000   0.000   0.000
  0.000   0.000   0.000   0.000   0.000   0.000   0.000   0.000   0.000   0.000   0.000   0.000   0.000   0.000   0.000   0.000
  0.000   0.000   0.000   0.000   0.000   0.000   0.000   0.000   0.000   0.000   0.000   0.000   0.000   0.000   0.000   0.000
  0.000   0.000   0.000   0.000   0.000   0.000   0.000   0.000   0.000   0.000   1.000   0.000   0.000   0.000   0.000   0.000
  0.000   0.000   0.000   0.000   0.000   0.000   0.000   0.000   0.000   0.000   0.000   0.000   0.000   0.000   0.000   0.000
  0.000   0.000   0.000   0.000   0.000   0.000   0.000   0.000   0.000   0.000   0.000   0.000   0.000   0.000   0.000   0.000
  0.000   0.000   0.000   0.000   0.000   0.000   0.000   0.000   0.000   0.000   0.000   0.000   0.000   0.000   0.000   0.000
  0.000   0.000   0.000   0.000   0.000   0.000   0.000   0.000   0.000   0.000   0.000   0.000   0.000   0.000   0.000   0.000
  0.000   0.000   0.000   0.000   0.000   0.000   0.000   0.000   0.000   0.000   0.000   0.000   0.000   0.000   0.000   0.000
  0.000   0.000   0.000   0.000   0.000   0.000   0.000   0.000   0.000   0.000   0.000   0.000   0.000   0.000   0.000   0.000
  0.000   0.000   0.000   0.000   0.000   0.000   0.000   0.000   0.000   0.000   0.000   0.000   0.000   0.000   0.000   0.000


------------------------ aborting loop because EDIFF is reached ----------------------------------------





 total charge

# of ion       s       p       d       tot
------------------------------------------
    1        0.449   0.283   9.189   9.921
    2        0.449   0.285   9.186   9.920
    3        0.449   0.285   9.186   9.920
    4        0.449   0.285   9.186   9.920
    5        0.449   0.287   9.179   9.915
    6        0.449   0.285   9.186   9.920
    7        0.449   0.285   9.186   9.920
    8        0.449   0.285   9.186   9.920
    9        0.447   0.282   9.191   9.921
   10        0.441   0.373   9.174   9.988
   11        0.445   0.366   9.184   9.995
   12        0.441   0.373   9.174   9.988
   13        0.445   0.366   9.184   9.995
   14        0.445   0.366   9.184   9.995
   15        0.437   0.370   9.178   9.985
   16        0.441   0.373   9.174   9.988
   17        0.437   0.370   9.178   9.985
   18        0.437   0.370   9.178   9.985
   19        0.441   0.371   9.181   9.993
   20        0.455   0.387   9.175  10.017
   21        0.455   0.387   9.175  10.017
   22        0.432   0.372   9.183   9.987
   23        0.455   0.387   9.175  10.017
   24        0.432   0.372   9.183   9.987
   25        0.441   0.371   9.181   9.993
   26        0.441   0.371   9.181   9.993
   27        0.432   0.372   9.183   9.987
   28        0.449   0.288   9.195   9.932
   29        0.450   0.304   9.180   9.935
   30        0.450   0.304   9.180   9.935
   31        0.450   0.304   9.180   9.935
   32        0.450   0.304   9.180   9.935
   33        0.450   0.304   9.180   9.935
   34        0.450   0.304   9.180   9.935
   35        0.443   0.292   9.193   9.928
   36        0.713   0.569   7.135   8.417
   37        0.515   0.022   0.000   0.537
--------------------------------------------------
tot         16.815  12.271 328.503 357.589
 
    CHARGE:  cpu time    0.2058: real time    0.2059
    FORLOC:  cpu time    0.0074: real time    0.0074
    FORNL :  cpu time    1.1860: real time    1.1861
    STRESS:  cpu time    3.5274: real time    3.5278
    FORCOR:  cpu time    0.0265: real time    0.0265
    FORHAR:  cpu time    0.0114: real time    0.0115
    OFIELD:  cpu time    0.0001: real time    0.0001

  FORCE on cell =-STRESS in cart. coord.  units (eV):
  Direction    XX          YY          ZZ          XY          YZ          ZX
  --------------------------------------------------------------------------------------
  Alpha Z   888.44163   888.44163   888.44163
  Ewald  173439.19909173439.19868************     0.00038     0.00011     0.00016
  Hartree186357.99594186357.99592************     0.00003     0.00005     0.00006
  E(xc)   -2291.01780 -2291.01730 -2295.76988    -0.00043    -0.00003    -0.00006
  Local  ************************373232.14217     0.01844    -0.00055    -0.00090
  n-local  -776.40413  -759.03128  -780.18841     9.30895    -0.13139     0.34044
  augment  3346.09499  3346.11525  3365.81226    -0.01754     0.00023     0.00041
  Kinetic  3252.02279  3258.58933  3279.43851     4.50201     1.61781    -1.25432
  Fock        0.00000     0.00000     0.00000     0.00000     0.00000     0.00000
  -------------------------------------------------------------------------------------
  Total      -5.71526    -5.71526     2.03515     0.00000    -0.00000     0.00000
  in kB      -8.38564    -8.38564     2.98604     0.00000    -0.00000     0.00000
  external pressure =       -4.60 kB  Pullay stress =        0.00 kB


 VOLUME and BASIS-vectors are now :
 -----------------------------------------------------------------------------
  energy-cutoff  :      500.00
  volume of cell :     1091.97
      direct lattice vectors                 reciprocal lattice vectors
     7.696786404  0.000000000  0.000000000     0.129924354 -0.075011849  0.000000000
     3.848392758  6.665612809  0.000000000     0.000000000  0.150023716  0.000000000
     0.000000000  0.000000000 21.284399033     0.000000000  0.000000000  0.046982769

  length of vectors
     7.696786404  7.696786404 21.284399033     0.150023716  0.150023716  0.046982769


 FORCES acting on ions
    electron-ion (+dipol)            ewald-force                    non-local-force                 convergence-correction
 -----------------------------------------------------------------------------------------------
   -.416E-04 0.175E-06 0.347E+04   0.580E-04 -.436E-05 -.347E+04   0.414E-18 0.128E-17 -.289E+01   -.335E-03 -.161E-03 -.360E+00
   -.163E+00 -.264E-01 0.347E+04   0.574E-01 0.726E-02 -.347E+04   0.940E-01 0.779E-01 -.185E+01   0.240E-01 -.339E-01 -.346E+00
   0.163E+00 -.264E-01 0.347E+04   -.575E-01 0.722E-02 -.347E+04   -.940E-01 0.779E-01 -.185E+01   -.232E-01 -.313E-01 -.345E+00
   -.105E+00 -.128E+00 0.347E+04   0.349E-01 0.461E-01 -.347E+04   0.114E+00 0.425E-01 -.185E+01   -.173E-01 0.377E-01 -.346E+00
   -.612E-04 -.317E-05 0.347E+04   0.116E-03 -.101E-04 -.347E+04   -.872E-17 -.352E-17 -.144E+01   0.122E-01 0.749E-02 -.242E+00
   0.105E+00 -.128E+00 0.347E+04   -.350E-01 0.460E-01 -.347E+04   -.114E+00 0.425E-01 -.185E+01   0.156E-01 0.390E-01 -.344E+00
   0.589E-01 0.155E+00 0.347E+04   -.225E-01 -.533E-01 -.347E+04   0.204E-01 -.120E+00 -.185E+01   -.387E-01 -.448E-02 -.345E+00
   -.588E-01 0.155E+00 0.347E+04   0.222E-01 -.533E-01 -.347E+04   -.204E-01 -.120E+00 -.185E+01   0.422E-01 -.598E-02 -.344E+00
   -.144E-03 -.330E-04 0.347E+04   0.263E-03 0.206E-04 -.347E+04   -.419E-18 -.107E-17 -.247E+01   -.133E-01 -.685E-02 -.382E+00
   0.270E+01 0.156E+01 0.116E+04   -.227E+01 -.131E+01 -.115E+04   -.463E+00 -.267E+00 -.117E+01   0.190E-01 0.109E-01 -.427E+00
   -.915E-04 -.867E+00 0.115E+04   0.190E-03 0.464E+00 -.115E+04   -.201E-07 0.302E+00 -.406E+00   0.118E-01 0.654E-01 -.374E+00
   -.270E+01 0.156E+01 0.116E+04   0.227E+01 -.131E+01 -.115E+04   0.463E+00 -.267E+00 -.117E+01   -.210E-01 0.130E-01 -.426E+00
   -.751E+00 0.434E+00 0.115E+04   0.402E+00 -.232E+00 -.115E+04   0.262E+00 -.151E+00 -.406E+00   0.630E-01 -.217E-01 -.374E+00
   0.751E+00 0.434E+00 0.115E+04   -.402E+00 -.232E+00 -.115E+04   -.262E+00 -.151E+00 -.406E+00   -.386E-01 -.226E-01 -.374E+00
   -.143E-03 0.421E-01 0.115E+04   0.298E-03 -.325E+00 -.115E+04   -.121E-07 0.182E+00 -.100E+01   -.407E-02 0.788E-01 -.415E+00
   -.920E-04 -.311E+01 0.116E+04   0.186E-03 0.263E+01 -.115E+04   -.356E-07 0.534E+00 -.117E+01   -.148E-03 -.259E-01 -.426E+00
   0.364E-01 -.212E-01 0.115E+04   -.281E+00 0.163E+00 -.115E+04   0.157E+00 -.909E-01 -.100E+01   0.669E-01 -.430E-01 -.415E+00
   -.364E-01 -.211E-01 0.115E+04   0.281E+00 0.162E+00 -.115E+04   -.157E+00 -.909E-01 -.100E+01   -.662E-01 -.399E-01 -.414E+00
   -.555E-04 -.143E-01 -.118E+04   0.695E-04 0.130E-01 0.118E+04   0.300E-08 -.450E-01 0.832E+00   -.251E-02 0.343E-01 -.393E+00
   -.265E+02 -.153E+02 -.119E+04   0.275E+02 0.159E+02 0.119E+04   -.116E+01 -.671E+00 -.747E+00   0.257E-01 0.147E-01 -.304E+00
   0.265E+02 -.153E+02 -.119E+04   -.275E+02 0.159E+02 0.119E+04   0.116E+01 -.671E+00 -.747E+00   -.165E-02 0.162E-01 -.304E+00
   -.188E+02 0.109E+02 -.119E+04   0.181E+02 -.105E+02 0.119E+04   0.628E+00 -.362E+00 0.795E+00   0.676E-01 -.401E-01 -.391E+00
   -.866E-04 0.305E+02 -.119E+04   0.146E-03 -.318E+02 0.119E+04   -.894E-07 0.134E+01 -.747E+00   0.120E-01 -.107E-01 -.305E+00
   0.188E+02 0.109E+02 -.119E+04   -.181E+02 -.105E+02 0.119E+04   -.628E+00 -.362E+00 0.795E+00   -.702E-01 -.414E-01 -.391E+00
   0.125E-01 0.721E-02 -.118E+04   -.114E-01 -.662E-02 0.118E+04   0.390E-01 0.225E-01 0.832E+00   -.282E-01 -.162E-01 -.394E+00
   -.123E-01 0.722E-02 -.118E+04   0.112E-01 -.665E-02 0.118E+04   -.390E-01 0.225E-01 0.832E+00   0.288E-01 -.191E-01 -.393E+00
   -.119E-03 -.217E+02 -.119E+04   0.243E-03 0.210E+02 0.119E+04   -.483E-07 0.725E+00 0.795E+00   -.996E-03 0.785E-01 -.391E+00
   -.446E-04 0.122E-04 -.346E+04   0.414E-04 -.326E-04 0.346E+04   -.792E-17 0.347E-17 0.239E+01   -.265E-03 -.100E-03 0.372E+00
   -.234E+02 -.352E+02 -.348E+04   0.237E+02 0.353E+02 0.348E+04   -.286E+00 -.150E+00 0.182E+01   0.236E-01 0.707E-01 0.276E+00
   0.234E+02 -.352E+02 -.348E+04   -.237E+02 0.353E+02 0.348E+04   0.286E+00 -.150E+00 0.182E+01   -.226E-01 0.730E-01 0.276E+00
   -.422E+02 -.264E+01 -.348E+04   0.424E+02 0.284E+01 0.348E+04   -.273E+00 -.173E+00 0.182E+01   0.731E-01 -.149E-01 0.276E+00
   0.422E+02 -.264E+01 -.348E+04   -.424E+02 0.284E+01 0.348E+04   0.273E+00 -.173E+00 0.182E+01   -.744E-01 -.140E-01 0.275E+00
   -.188E+02 0.379E+02 -.348E+04   0.187E+02 -.381E+02 0.348E+04   0.134E-01 0.323E+00 0.182E+01   0.519E-01 -.561E-01 0.276E+00
   0.188E+02 0.379E+02 -.348E+04   -.187E+02 -.381E+02 0.348E+04   -.134E-01 0.323E+00 0.182E+01   -.486E-01 -.575E-01 0.275E+00
   -.156E-03 -.318E-04 -.347E+04   0.252E-03 0.328E-05 0.346E+04   0.458E-18 0.548E-18 0.271E+01   -.133E-01 -.684E-02 0.306E+00
   -.517E-04 -.233E-04 -.276E+04   0.113E-03 0.218E-04 0.276E+04   0.387E-18 -.361E-18 -.330E+01   0.216E-02 0.129E-02 0.481E-01
   0.430E-05 -.534E-05 -.385E+03   0.365E-05 0.155E-05 0.387E+03   0.148E-18 0.126E-18 -.270E+01   0.111E-03 0.654E-04 0.202E-01
 -----------------------------------------------------------------------------------------------
   -.193E-03 0.220E-04 0.206E+02   0.196E-13 0.401E-12 -.819E-11   0.114E-15 0.222E-15 -.130E+02   0.544E-01 0.283E-01 -.756E+01
 
 
 POSITION                                       TOTAL-FORCE (eV/Angst)
 -----------------------------------------------------------------------------------
      0.00000      0.00000      5.37156         0.000000      0.000000     -0.010325
      2.56560      0.00000      5.37156         0.012455      0.025883      0.066119
      5.13119      0.00000      5.37156        -0.012455      0.025883      0.066119
      1.28280      2.22187      5.37156         0.028643     -0.002156      0.066119
      3.84839      2.22187      5.37156         0.000000      0.000000      0.026371
      6.41399      2.22187      5.37156        -0.028643     -0.002156      0.066119
      2.56560      4.44374      5.37156         0.016188     -0.023728      0.066119
      5.13119      4.44374      5.37156        -0.016188     -0.023728      0.066119
      7.69679      4.44374      5.37156         0.000000      0.000000      0.018404
      1.28280      0.74062      7.46636        -0.021120     -0.012194     -0.058306
      3.84839      0.74062      7.46636         0.000000     -0.042352     -0.058105
      6.41399      0.74062      7.46636         0.021120     -0.012194     -0.058306
      2.56560      2.96249      7.46636        -0.036678      0.021176     -0.058105
      5.13119      2.96249      7.46636         0.036678      0.021176     -0.058105
      7.69679      2.96249      7.46636         0.000000     -0.022214     -0.019636
      3.84839      5.18437      7.46636        -0.000000      0.024387     -0.058306
      6.41399      5.18437      7.46636        -0.019238      0.011107     -0.019636
      8.97958      5.18437      7.46636         0.019238      0.011107     -0.019636
      7.69679      1.48769      9.56171         0.000000     -0.012530      0.009406
      2.55203      1.47342      9.53141        -0.061966     -0.035776     -0.219533
      5.14476      1.47342      9.53141         0.061966     -0.035776     -0.219533
      8.97489      3.70583      9.56026         0.040865     -0.023593     -0.011264
      3.84839      3.71878      9.53141        -0.000000      0.071553     -0.219533
      6.41868      3.70583      9.56026        -0.040865     -0.023593     -0.011264
     10.25680      5.92177      9.56171         0.010851      0.006265      0.009406
      5.13677      5.92177      9.56171        -0.010851      0.006265      0.009406
      7.69679      5.91957      9.56026        -0.000000      0.047187     -0.011264
      0.00000      0.00000     11.63002         0.000000      0.000000     -0.002845
      6.40663      6.66047     11.66109         0.006164     -0.015349      0.026274
      8.98694      6.66047     11.66109        -0.006164     -0.015349      0.026274
      8.97145      2.21807     11.66109        -0.010211      0.013012      0.026274
      6.42212      2.21807     11.66109         0.010211      0.013012      0.026274
     10.26160      4.45269     11.66109        -0.016374      0.002337      0.026274
      5.13197      4.45269     11.66109         0.016374      0.002337      0.026274
      7.69679      4.44374     11.62915         0.000000      0.000000     -0.003581
      3.84839      2.22187     11.60012         0.000000      0.000000      0.487435
      3.84839      2.22187     13.20796         0.000000      0.000000      0.002500
 -----------------------------------------------------------------------------------
    total drift:                                0.054199      0.028348      0.017206


--------------------------------------------------------------------------------------------------------



  FREE ENERGIE OF THE ION-ELECTRON SYSTEM (eV)
  ---------------------------------------------------
  free  energy   TOTEN  =      -134.40768328 eV

  energy  without entropy=     -134.40768328  energy(sigma->0) =     -134.40768328
 


--------------------------------------------------------------------------------------------------------


    POTLOK:  cpu time    0.0288: real time    0.0288


--------------------------------------------------------------------------------------------------------


 stress matrix after NEB project (eV)
     -5.71526      0.00000      0.00000
      0.00000     -5.71526      0.00000
      0.00000     -0.00000      2.03515
  FORCES: max atom, RMS     0.002500    0.000411
  FORCE total and by dimension    0.002500    0.002500
  Stress total and by dimension    8.334885    5.715265
     LOOP+:  cpu time   59.5476: real time   59.5617
 -----------------------------------------------------------------------------
|                                                                             |
|           W    W    AA    RRRRR   N    N  II  N    N   GGGG   !!!           |
|           W    W   A  A   R    R  NN   N  II  NN   N  G    G  !!!           |
|           W    W  A    A  R    R  N N  N  II  N N  N  G       !!!           |
|           W WW W  AAAAAA  RRRRR   N  N N  II  N  N N  G  GGG   !            |
|           WW  WW  A    A  R   R   N   NN  II  N   NN  G    G                |
|           W    W  A    A  R    R  N    N  II  N    N   GGGG   !!!           |
|                                                                             |
|     Tetrahedron method does not include variations of the Fermi             |
|     occupations, so forces and stress will be inaccurate. We suggest        |
|     using a different smearing scheme ISMEAR = 1 or 2 for metals in         |
|     relaxations.                                                            |
|                                                                             |
 -----------------------------------------------------------------------------

    4ORBIT:  cpu time    0.0000: real time    0.0000



 total charge

# of ion       s       p       d       tot
------------------------------------------
    1        0.449   0.283   9.189   9.921
    2        0.449   0.285   9.186   9.920
    3        0.449   0.285   9.186   9.920
    4        0.449   0.285   9.186   9.920
    5        0.449   0.287   9.179   9.915
    6        0.449   0.285   9.186   9.920
    7        0.449   0.285   9.186   9.920
    8        0.449   0.285   9.186   9.920
    9        0.447   0.282   9.191   9.921
   10        0.441   0.373   9.174   9.988
   11        0.445   0.366   9.184   9.995
   12        0.441   0.373   9.174   9.988
   13        0.445   0.366   9.184   9.995
   14        0.445   0.366   9.184   9.995
   15        0.437   0.370   9.178   9.985
   16        0.441   0.373   9.174   9.988
   17        0.437   0.370   9.178   9.985
   18        0.437   0.370   9.178   9.985
   19        0.441   0.371   9.181   9.993
   20        0.455   0.387   9.175  10.017
   21        0.455   0.387   9.175  10.017
   22        0.432   0.372   9.183   9.987
   23        0.455   0.387   9.175  10.017
   24        0.432   0.372   9.183   9.987
   25        0.441   0.371   9.181   9.993
   26        0.441   0.371   9.181   9.993
   27        0.432   0.372   9.183   9.987
   28        0.449   0.288   9.195   9.932
   29        0.450   0.304   9.180   9.935
   30        0.450   0.304   9.180   9.935
   31        0.450   0.304   9.180   9.935
   32        0.450   0.304   9.180   9.935
   33        0.450   0.304   9.180   9.935
   34        0.450   0.304   9.180   9.935
   35        0.443   0.292   9.193   9.928
   36        0.713   0.569   7.135   8.417
   37        0.515   0.022   0.000   0.537
--------------------------------------------------
tot         16.815  12.271 328.503 357.589
 
 BZINTS: Fermi energy:    0.039766;  395.000000 electrons
         Band energy:-0.108311E+04;  BLOECHL correction:   -0.061826

 total amount of memory used by VASP MPI-rank0   104519. kBytes
=======================================================================

   base      :      30000. kBytes
   nonlr-proj:      17633. kBytes
   fftplans  :       2916. kBytes
   grid      :      12390. kBytes
   one-center:        575. kBytes
   wavefun   :      41005. kBytes
 
  
  
 General timing and accounting informations for this job:
 ========================================================
  
                  Total CPU time used (sec):       65.472
                            User time (sec):       62.756
                          System time (sec):        2.716
                         Elapsed time (sec):       65.849
  
                   Maximum memory used (kb):      343384.
                   Average memory used (kb):          N/A
  
                          Minor page faults:        81475
                          Major page faults:            0
                 Voluntary context switches:         4757
