PROCAR new format
# of k-points:   10         # of bands:  252         # of ions:   37

 k-point     1 :    0.00000000 0.00000000 0.00000000     weight = 0.01562500

band     1 # energy   -8.76610028 # occ.  2.00000000
 
ion      s      p      d    tot
    1  0.006  0.001  0.000  0.007
    2  0.006  0.001  0.000  0.007
    3  0.006  0.001  0.000  0.007
    4  0.006  0.001  0.000  0.007
    5  0.006  0.001  0.000  0.007
    6  0.006  0.001  0.000  0.007
    7  0.006  0.001  0.000  0.007
    8  0.006  0.001  0.000  0.007
    9  0.006  0.001  0.000  0.007
   10  0.024  0.000  0.000  0.024
   11  0.024  0.000  0.000  0.024
   12  0.024  0.000  0.000  0.024
   13  0.024  0.000  0.000  0.024
   14  0.024  0.000  0.000  0.024
   15  0.023  0.000  0.000  0.024
   16  0.024  0.000  0.000  0.024
   17  0.023  0.000  0.000  0.024
   18  0.023  0.000  0.000  0.024
   19  0.024  0.000  0.000  0.024
   20  0.026  0.000  0.000  0.026
   21  0.026  0.000  0.000  0.026
   22  0.024  0.000  0.000  0.025
   23  0.026  0.000  0.000  0.026
   24  0.024  0.000  0.000  0.024
   25  0.024  0.000  0.000  0.024
   26  0.024  0.000  0.000  0.024
   27  0.024  0.000  0.000  0.025
   28  0.007  0.001  0.000  0.008
   29  0.007  0.001  0.000  0.008
   30  0.007  0.001  0.000  0.008
   31  0.007  0.001  0.000  0.008
   32  0.007  0.001  0.000  0.008
   33  0.007  0.001  0.000  0.008
   34  0.007  0.001  0.000  0.008
   35  0.007  0.001  0.000  0.008
   36  0.018  0.001  0.000  0.019
   37  0.001  0.000  0.000  0.001
tot    0.570  0.016  0.001  0.587
 
band     2 # energy   -7.51419783 # occ.  2.00000000
 
ion      s      p      d    tot
    1  0.018  0.001  0.000  0.019
    2  0.017  0.001  0.000  0.019
    3  0.017  0.001  0.000  0.019
    4  0.017  0.001  0.000  0.019
    5  0.017  0.001  0.000  0.018
    6  0.017  0.001  0.000  0.019
    7  0.017  0.001  0.000  0.019
    8  0.017  0.001  0.000  0.019
    9  0.018  0.001  0.000  0.019
   10  0.011  0.002  0.001  0.014
   11  0.011  0.002  0.001  0.013
   12  0.011  0.002  0.001  0.014
   13  0.011  0.002  0.001  0.013
   14  0.011  0.002  0.001  0.013
   15  0.011  0.002  0.001  0.014
   16  0.011  0.002  0.001  0.014
   17  0.011  0.002  0.001  0.014
   18  0.011  0.002  0.001  0.014
   19  0.008  0.002  0.000  0.010
   20  0.009  0.003  0.000  0.013
   21  0.009  0.003  0.000  0.013
   22  0.008  0.002  0.000  0.011
   23  0.009  0.003  0.000  0.013
   24  0.008  0.002  0.000  0.011
   25  0.008  0.002  0.000  0.010
   26  0.008  0.002  0.000  0.010
   27  0.008  0.002  0.000  0.011
   28  0.016  0.001  0.001  0.018
   29  0.018  0.001  0.001  0.020
   30  0.018  0.001  0.001  0.020
   31  0.018  0.001  0.001  0.020
   32  0.018  0.001  0.001  0.020
   33  0.018  0.001  0.001  0.020
   34  0.018  0.001  0.001  0.020
   35  0.016  0.001  0.001  0.017
   36  0.047  0.000  0.000  0.048
   37  0.003  0.000  0.000  0.003
tot    0.524  0.053  0.018  0.594
 
band     3 # energy   -5.92073766 # occ.  2.00000000
 
ion      s      p      d    tot
    1  0.007  0.000  0.003  0.011
    2  0.010  0.000  0.004  0.015
    3  0.010  0.000  0.004  0.015
    4  0.010  0.000  0.004  0.015
    5  0.026  0.001  0.002  0.029
    6  0.010  0.000  0.004  0.015
    7  0.010  0.000  0.004  0.015
    8  0.010  0.000  0.004  0.015
    9  0.003  0.000  0.005  0.009
   10  0.003  0.004  0.003  0.010
   11  0.002  0.004  0.003  0.008
   12  0.003  0.004  0.003  0.010
   13  0.002  0.004  0.003  0.008
   14  0.002  0.004  0.003  0.008
   15  0.012  0.004  0.002  0.018
   16  0.003  0.004  0.003  0.010
   17  0.012  0.004  0.002  0.018
   18  0.012  0.004  0.002  0.018
   19  0.017  0.001  0.005  0.023
   20  0.003  0.006  0.007  0.016
   21  0.003  0.006  0.007  0.016
   22  0.014  0.004  0.003  0.020
   23  0.003  0.006  0.007  0.016
   24  0.014  0.004  0.003  0.020
   25  0.017  0.001  0.005  0.023
   26  0.017  0.001  0.005  0.023
   27  0.014  0.004  0.003  0.020
   28  0.001  0.001  0.005  0.006
   29  0.008  0.002  0.006  0.015
   30  0.008  0.002  0.006  0.015
   31  0.008  0.002  0.006  0.015
   32  0.008  0.002  0.006  0.015
   33  0.008  0.002  0.006  0.015
   34  0.008  0.002  0.006  0.015
   35  0.000  0.001  0.004  0.005
   36  0.113  0.000  0.003  0.116
   37  0.018  0.000  0.000  0.019
tot    0.427  0.083  0.150  0.660
 
band     4 # energy   -5.84213178 # occ.  2.00000000
 
ion      s      p      d    tot
    1  0.009  0.000  0.003  0.012
    2  0.007  0.001  0.004  0.011
    3  0.007  0.001  0.004  0.011
    4  0.007  0.001  0.004  0.011
    5  0.000  0.001  0.004  0.006
    6  0.007  0.001  0.004  0.011
    7  0.007  0.001  0.004  0.011
    8  0.007  0.001  0.004  0.011
    9  0.023  0.001  0.001  0.025
   10  0.001  0.003  0.005  0.009
   11  0.021  0.007  0.001  0.028
   12  0.001  0.003  0.005  0.009
   13  0.021  0.007  0.001  0.028
   14  0.020  0.007  0.001  0.028
   15  0.004  0.001  0.006  0.011
   16  0.001  0.003  0.005  0.009
   17  0.004  0.001  0.006  0.011
   18  0.004  0.001  0.006  0.011
   19  0.001  0.001  0.009  0.011
   20  0.033  0.007  0.004  0.044
   21  0.033  0.007  0.004  0.044
   22  0.001  0.005  0.004  0.010
   23  0.033  0.007  0.004  0.044
   24  0.001  0.005  0.004  0.010
   25  0.001  0.001  0.009  0.011
   26  0.001  0.001  0.009  0.011
   27  0.001  0.005  0.004  0.010
   28  0.019  0.000  0.002  0.021
   29  0.009  0.001  0.005  0.015
   30  0.009  0.001  0.005  0.015
   31  0.009  0.001  0.005  0.015
   32  0.009  0.001  0.005  0.015
   33  0.009  0.001  0.005  0.015
   34  0.009  0.001  0.005  0.015
   35  0.026  0.001  0.002  0.029
   36  0.005  0.002  0.049  0.057
   37  0.006  0.000  0.000  0.006
tot    0.364  0.087  0.203  0.654
 
band     5 # energy   -5.77815797 # occ.  2.00000000
 
ion      s      p      d    tot
    1  0.000  0.003  0.005  0.008
    2  0.009  0.002  0.002  0.014
    3  0.002  0.001  0.002  0.005
    4  0.009  0.002  0.002  0.014
    5  0.000  0.002  0.003  0.005
    6  0.002  0.001  0.002  0.006
    7  0.002  0.001  0.002  0.005
    8  0.002  0.001  0.002  0.006
    9  0.000  0.000  0.003  0.003
   10  0.058  0.004  0.004  0.067
   11  0.006  0.010  0.004  0.019
   12  0.015  0.003  0.012  0.029
   13  0.006  0.010  0.004  0.019
   14  0.022  0.000  0.006  0.029
   15  0.002  0.004  0.008  0.014
   16  0.015  0.003  0.012  0.029
   17  0.002  0.004  0.008  0.014
   18  0.008  0.003  0.003  0.014
   19  0.008  0.010  0.004  0.022
   20  0.064  0.004  0.005  0.074
   21  0.016  0.002  0.014  0.032
   22  0.001  0.005  0.007  0.013
   23  0.016  0.002  0.014  0.032
   24  0.004  0.002  0.003  0.010
   25  0.032  0.000  0.007  0.039
   26  0.008  0.010  0.004  0.022
   27  0.001  0.005  0.007  0.013
   28  0.000  0.003  0.004  0.007
   29  0.010  0.003  0.003  0.016
   30  0.005  0.001  0.003  0.009
   31  0.010  0.003  0.003  0.016
   32  0.001  0.001  0.003  0.005
   33  0.005  0.001  0.003  0.009
   34  0.001  0.001  0.003  0.005
   35  0.000  0.000  0.003  0.003
   36  0.000  0.005  0.020  0.025
   37  0.000  0.000  0.000  0.000
tot    0.344  0.113  0.192  0.649
 
band     6 # energy   -5.77798867 # occ.  2.00000000
 
ion      s      p      d    tot
    1  0.000  0.003  0.005  0.008
    2  0.000  0.001  0.002  0.003
    3  0.007  0.002  0.002  0.011
    4  0.000  0.001  0.002  0.003
    5  0.000  0.002  0.003  0.005
    6  0.007  0.002  0.002  0.011
    7  0.007  0.002  0.002  0.011
    8  0.007  0.002  0.002  0.011
    9  0.000  0.000  0.003  0.003
   10  0.000  0.002  0.014  0.016
   11  0.017  0.003  0.005  0.026
   12  0.044  0.004  0.006  0.054
   13  0.017  0.003  0.005  0.026
   14  0.000  0.013  0.003  0.016
   15  0.006  0.003  0.004  0.014
   16  0.044  0.004  0.006  0.054
   17  0.006  0.003  0.004  0.014
   18  0.000  0.004  0.010  0.014
   19  0.024  0.004  0.006  0.033
   20  0.000  0.001  0.017  0.018
   21  0.048  0.003  0.008  0.060
   22  0.003  0.003  0.005  0.011
   23  0.048  0.003  0.008  0.060
   24  0.000  0.006  0.008  0.015
   25  0.000  0.013  0.003  0.016
   26  0.024  0.004  0.006  0.033
   27  0.003  0.003  0.005  0.011
   28  0.000  0.003  0.004  0.007
   29  0.001  0.001  0.003  0.004
   30  0.006  0.002  0.003  0.011
   31  0.001  0.001  0.003  0.004
   32  0.010  0.003  0.003  0.015
   33  0.006  0.002  0.003  0.011
   34  0.010  0.003  0.003  0.015
   35  0.000  0.000  0.003  0.003
   36  0.000  0.005  0.020  0.025
   37  0.000  0.000  0.000  0.000
tot    0.344  0.113  0.192  0.649
 
band     7 # energy   -5.73951672 # occ.  2.00000000
 
ion      s      p      d    tot
    1  0.000  0.001  0.002  0.003
    2  0.010  0.002  0.002  0.015
    3  0.002  0.001  0.002  0.006
    4  0.010  0.002  0.002  0.015
    5  0.000  0.001  0.005  0.006
    6  0.003  0.001  0.002  0.006
    7  0.002  0.001  0.002  0.005
    8  0.002  0.001  0.002  0.006
    9  0.000  0.003  0.005  0.008
   10  0.000  0.011  0.003  0.014
   11  0.029  0.004  0.005  0.038
   12  0.001  0.003  0.005  0.009
   13  0.029  0.004  0.006  0.038
   14  0.000  0.000  0.016  0.016
   15  0.039  0.004  0.006  0.048
   16  0.001  0.003  0.005  0.009
   17  0.038  0.004  0.006  0.048
   18  0.000  0.009  0.008  0.017
   19  0.024  0.004  0.005  0.033
   20  0.000  0.014  0.001  0.015
   21  0.003  0.004  0.005  0.012
   22  0.044  0.004  0.006  0.054
   23  0.003  0.004  0.005  0.012
   24  0.000  0.007  0.010  0.017
   25  0.000  0.001  0.016  0.016
   26  0.024  0.004  0.005  0.033
   27  0.045  0.004  0.006  0.055
   28  0.000  0.001  0.004  0.005
   29  0.012  0.003  0.003  0.017
   30  0.004  0.002  0.003  0.008
   31  0.012  0.003  0.003  0.017
   32  0.002  0.001  0.002  0.006
   33  0.004  0.002  0.003  0.008
   34  0.002  0.001  0.002  0.006
   35  0.000  0.004  0.006  0.009
   36  0.000  0.002  0.009  0.011
   37  0.000  0.000  0.000  0.000
tot    0.343  0.116  0.180  0.640
 
band     8 # energy   -5.73935696 # occ.  2.00000000
 
ion      s      p      d    tot
    1  0.000  0.001  0.002  0.003
    2  0.000  0.001  0.002  0.003
    3  0.007  0.002  0.002  0.012
    4  0.000  0.001  0.002  0.003
    5  0.000  0.001  0.005  0.006
    6  0.007  0.002  0.002  0.011
    7  0.007  0.002  0.002  0.012
    8  0.007  0.002  0.002  0.011
    9  0.000  0.003  0.005  0.008
   10  0.001  0.001  0.005  0.007
   11  0.010  0.001  0.012  0.023
   12  0.000  0.008  0.004  0.012
   13  0.010  0.001  0.012  0.024
   14  0.038  0.005  0.002  0.045
   15  0.012  0.007  0.007  0.027
   16  0.000  0.008  0.004  0.012
   17  0.013  0.007  0.007  0.027
   18  0.051  0.002  0.006  0.059
   19  0.008  0.002  0.012  0.022
   20  0.005  0.001  0.006  0.011
   21  0.001  0.010  0.002  0.014
   22  0.015  0.006  0.009  0.030
   23  0.001  0.010  0.002  0.014
   24  0.059  0.003  0.005  0.066
   25  0.031  0.005  0.002  0.038
   26  0.008  0.002  0.012  0.022
   27  0.015  0.006  0.009  0.030
   28  0.000  0.001  0.004  0.005
   29  0.000  0.001  0.003  0.004
   30  0.008  0.002  0.002  0.012
   31  0.000  0.001  0.003  0.004
   32  0.009  0.003  0.003  0.015
   33  0.008  0.002  0.002  0.012
   34  0.009  0.003  0.003  0.015
   35  0.000  0.004  0.006  0.009
   36  0.000  0.002  0.009  0.011
   37  0.000  0.000  0.000  0.000
tot    0.343  0.116  0.180  0.640
 
band     9 # energy   -5.72939244 # occ.  2.00000000
 
ion      s      p      d    tot
    1  0.022  0.003  0.001  0.026
    2  0.000  0.002  0.004  0.006
    3  0.000  0.002  0.004  0.006
    4  0.000  0.002  0.004  0.006
    5  0.001  0.000  0.001  0.002
    6  0.000  0.002  0.004  0.006
    7  0.000  0.002  0.004  0.006
    8  0.000  0.002  0.004  0.006
    9  0.009  0.002  0.000  0.011
   10  0.030  0.006  0.006  0.041
   11  0.005  0.000  0.012  0.017
   12  0.030  0.006  0.006  0.041
   13  0.005  0.000  0.012  0.017
   14  0.006  0.000  0.012  0.018
   15  0.012  0.008  0.003  0.024
   16  0.030  0.006  0.006  0.041
   17  0.012  0.008  0.003  0.024
   18  0.012  0.008  0.003  0.023
   19  0.022  0.009  0.002  0.033
   20  0.000  0.003  0.009  0.012
   21  0.000  0.003  0.009  0.012
   22  0.024  0.002  0.009  0.035
   23  0.000  0.003  0.009  0.012
   24  0.025  0.002  0.009  0.036
   25  0.023  0.009  0.002  0.034
   26  0.022  0.009  0.002  0.033
   27  0.024  0.002  0.009  0.035
   28  0.020  0.003  0.000  0.023
   29  0.000  0.002  0.004  0.006
   30  0.000  0.002  0.004  0.006
   31  0.000  0.002  0.004  0.006
   32  0.000  0.002  0.004  0.006
   33  0.000  0.002  0.004  0.006
   34  0.000  0.002  0.004  0.006
   35  0.012  0.002  0.001  0.015
   36  0.000  0.000  0.000  0.000
   37  0.000  0.000  0.000  0.000
tot    0.346  0.116  0.176  0.638
 
band    10 # energy   -5.19641454 # occ.  2.00000000
 
ion      s      p      d    tot
    1  0.007  0.001  0.000  0.007
    2  0.000  0.003  0.009  0.012
    3  0.000  0.003  0.009  0.012
    4  0.000  0.003  0.009  0.012
    5  0.040  0.005  0.001  0.046
    6  0.000  0.003  0.009  0.012
    7  0.000  0.003  0.009  0.012
    8  0.000  0.003  0.009  0.012
    9  0.013  0.002  0.001  0.016
   10  0.001  0.002  0.012  0.015
   11  0.019  0.006  0.005  0.030
   12  0.001  0.002  0.012  0.015
   13  0.019  0.006  0.005  0.030
   14  0.019  0.006  0.005  0.030
   15  0.012  0.001  0.013  0.026
   16  0.001  0.002  0.012  0.015
   17  0.012  0.001  0.013  0.026
   18  0.012  0.001  0.013  0.026
   19  0.001  0.002  0.001  0.004
   20  0.001  0.004  0.028  0.034
   21  0.001  0.004  0.028  0.034
   22  0.000  0.001  0.011  0.012
   23  0.001  0.004  0.028  0.034
   24  0.000  0.001  0.011  0.012
   25  0.001  0.002  0.001  0.004
   26  0.001  0.002  0.001  0.004
   27  0.000  0.001  0.011  0.012
   28  0.011  0.000  0.000  0.011
   29  0.001  0.002  0.003  0.006
   30  0.001  0.002  0.003  0.006
   31  0.001  0.002  0.003  0.006
   32  0.001  0.002  0.003  0.006
   33  0.001  0.002  0.003  0.006
   34  0.001  0.002  0.003  0.006
   35  0.008  0.000  0.000  0.009
   36  0.065  0.000  0.070  0.135
   37  0.037  0.001  0.000  0.039
tot    0.289  0.084  0.356  0.728
 
band    11 # energy   -5.03180565 # occ.  2.00000000
 
ion      s      p      d    tot
    1  0.000  0.003  0.010  0.013
    2  0.019  0.004  0.005  0.027
    3  0.000  0.001  0.005  0.006
    4  0.015  0.003  0.005  0.023
    5  0.000  0.000  0.010  0.010
    6  0.008  0.002  0.005  0.015
    7  0.002  0.002  0.005  0.008
    8  0.014  0.003  0.005  0.022
    9  0.000  0.005  0.008  0.013
   10  0.000  0.004  0.017  0.021
   11  0.003  0.002  0.010  0.015
   12  0.007  0.001  0.008  0.015
   13  0.004  0.002  0.008  0.014
   14  0.000  0.002  0.014  0.016
   15  0.015  0.003  0.011  0.029
   16  0.005  0.002  0.010  0.017
   17  0.022  0.004  0.007  0.033
   18  0.001  0.001  0.021  0.022
   19  0.007  0.003  0.010  0.020
   20  0.000  0.003  0.018  0.021
   21  0.000  0.001  0.011  0.012
   22  0.010  0.003  0.006  0.019
   23  0.000  0.002  0.013  0.015
   24  0.000  0.002  0.027  0.029
   25  0.000  0.000  0.013  0.014
   26  0.010  0.005  0.009  0.024
   27  0.007  0.003  0.012  0.022
   28  0.000  0.004  0.007  0.011
   29  0.024  0.003  0.008  0.035
   30  0.000  0.002  0.009  0.011
   31  0.019  0.003  0.008  0.030
   32  0.013  0.002  0.008  0.023
   33  0.002  0.002  0.009  0.013
   34  0.020  0.002  0.008  0.030
   35  0.000  0.005  0.008  0.014
   36  0.000  0.000  0.047  0.047
   37  0.000  0.000  0.000  0.000
tot    0.227  0.090  0.391  0.708
 
band    12 # energy   -5.03180520 # occ.  2.00000000
 
ion      s      p      d    tot
    1  0.000  0.003  0.010  0.013
    2  0.001  0.002  0.005  0.007
    3  0.019  0.004  0.005  0.028
    4  0.004  0.002  0.005  0.011
    5  0.000  0.000  0.010  0.010
    6  0.011  0.003  0.005  0.019
    7  0.017  0.003  0.005  0.026
    8  0.005  0.002  0.005  0.012
    9  0.000  0.005  0.008  0.013
   10  0.008  0.001  0.006  0.015
   11  0.002  0.002  0.011  0.015
   12  0.001  0.004  0.016  0.020
   13  0.001  0.002  0.013  0.016
   14  0.005  0.002  0.007  0.014
   15  0.010  0.002  0.014  0.026
   16  0.003  0.003  0.013  0.019
   17  0.003  0.001  0.019  0.023
   18  0.025  0.005  0.005  0.034
   19  0.005  0.002  0.011  0.018
   20  0.000  0.001  0.011  0.012
   21  0.000  0.003  0.017  0.019
   22  0.001  0.002  0.024  0.027
   23  0.000  0.002  0.015  0.017
   24  0.011  0.003  0.003  0.017
   25  0.011  0.005  0.008  0.025
   26  0.002  0.001  0.013  0.015
   27  0.004  0.002  0.018  0.024
   28  0.000  0.004  0.007  0.011
   29  0.002  0.002  0.009  0.012
   30  0.026  0.003  0.008  0.036
   31  0.007  0.002  0.008  0.018
   32  0.013  0.003  0.008  0.024
   33  0.024  0.002  0.008  0.034
   34  0.006  0.003  0.009  0.017
   35  0.000  0.005  0.008  0.014
   36  0.000  0.000  0.047  0.047
   37  0.000  0.000  0.000  0.000
tot    0.227  0.090  0.391  0.708
 
band    13 # energy   -5.02118959 # occ.  2.00000000
 
ion      s      p      d    tot
    1  0.002  0.001  0.010  0.013
    2  0.006  0.001  0.010  0.016
    3  0.006  0.001  0.010  0.016
    4  0.006  0.001  0.010  0.016
    5  0.008  0.000  0.008  0.017
    6  0.006  0.001  0.009  0.016
    7  0.006  0.001  0.010  0.016
    8  0.006  0.001  0.009  0.016
    9  0.009  0.000  0.009  0.018
   10  0.010  0.000  0.024  0.034
   11  0.005  0.000  0.023  0.027
   12  0.010  0.000  0.024  0.034
   13  0.005  0.000  0.023  0.027
   14  0.005  0.000  0.023  0.027
   15  0.006  0.000  0.023  0.029
   16  0.010  0.000  0.024  0.034
   17  0.006  0.000  0.023  0.029
   18  0.006  0.000  0.023  0.029
   19  0.008  0.000  0.019  0.028
   20  0.005  0.000  0.026  0.032
   21  0.005  0.000  0.026  0.031
   22  0.004  0.000  0.018  0.022
   23  0.005  0.000  0.026  0.031
   24  0.004  0.000  0.018  0.022
   25  0.008  0.000  0.019  0.028
   26  0.008  0.000  0.019  0.028
   27  0.004  0.000  0.018  0.022
   28  0.000  0.001  0.007  0.008
   29  0.004  0.001  0.008  0.012
   30  0.004  0.001  0.008  0.012
   31  0.004  0.001  0.008  0.012
   32  0.004  0.001  0.008  0.012
   33  0.004  0.001  0.008  0.012
   34  0.004  0.001  0.008  0.012
   35  0.003  0.000  0.006  0.009
   36  0.010  0.001  0.026  0.037
   37  0.000  0.000  0.000  0.000
tot    0.202  0.012  0.572  0.786
 
band    14 # energy   -4.97877757 # occ.  2.00000000
 
ion      s      p      d    tot
    1  0.000  0.003  0.010  0.013
    2  0.021  0.004  0.006  0.031
    3  0.001  0.002  0.005  0.008
    4  0.020  0.004  0.006  0.030
    5  0.000  0.006  0.010  0.016
    6  0.011  0.003  0.006  0.020
    7  0.002  0.002  0.005  0.009
    8  0.012  0.003  0.006  0.021
    9  0.000  0.001  0.013  0.014
   10  0.018  0.005  0.009  0.032
   11  0.005  0.003  0.022  0.029
   12  0.004  0.001  0.017  0.023
   13  0.004  0.003  0.023  0.029
   14  0.019  0.004  0.005  0.027
   15  0.000  0.003  0.015  0.018
   16  0.005  0.001  0.017  0.023
   17  0.000  0.003  0.016  0.019
   18  0.000  0.000  0.009  0.009
   19  0.001  0.002  0.017  0.020
   20  0.021  0.006  0.004  0.030
   21  0.005  0.002  0.024  0.030
   22  0.002  0.001  0.012  0.015
   23  0.006  0.002  0.022  0.030
   24  0.007  0.003  0.010  0.019
   25  0.003  0.000  0.006  0.010
   26  0.001  0.002  0.018  0.021
   27  0.002  0.001  0.012  0.015
   28  0.000  0.002  0.010  0.012
   29  0.015  0.003  0.006  0.025
   30  0.000  0.001  0.004  0.006
   31  0.015  0.003  0.006  0.024
   32  0.010  0.003  0.006  0.018
   33  0.001  0.001  0.004  0.006
   34  0.011  0.003  0.006  0.019
   35  0.000  0.001  0.008  0.009
   36  0.000  0.009  0.023  0.032
   37  0.000  0.000  0.000  0.000
tot    0.220  0.096  0.397  0.713
 
band    15 # energy   -4.97875893 # occ.  2.00000000
 
ion      s      p      d    tot
    1  0.000  0.003  0.010  0.013
    2  0.001  0.002  0.006  0.009
    3  0.022  0.004  0.006  0.031
    4  0.002  0.002  0.006  0.010
    5  0.000  0.006  0.010  0.016
    6  0.012  0.003  0.005  0.020
    7  0.021  0.004  0.006  0.031
    8  0.010  0.003  0.005  0.018
    9  0.000  0.001  0.013  0.014
   10  0.000  0.000  0.020  0.020
   11  0.013  0.003  0.011  0.028
   12  0.014  0.004  0.011  0.029
   13  0.014  0.003  0.010  0.028
   14  0.000  0.002  0.028  0.030
   15  0.000  0.001  0.011  0.013
   16  0.013  0.004  0.012  0.028
   17  0.000  0.001  0.011  0.012
   18  0.000  0.004  0.018  0.021
   19  0.002  0.001  0.011  0.014
   20  0.000  0.001  0.030  0.030
   21  0.016  0.005  0.009  0.030
   22  0.005  0.002  0.010  0.018
   23  0.015  0.004  0.011  0.030
   24  0.000  0.001  0.013  0.014
   25  0.000  0.003  0.021  0.024
   26  0.002  0.001  0.010  0.013
   27  0.005  0.002  0.010  0.017
   28  0.000  0.002  0.010  0.012
   29  0.002  0.001  0.005  0.008
   30  0.017  0.004  0.006  0.027
   31  0.002  0.002  0.005  0.009
   32  0.007  0.002  0.005  0.015
   33  0.017  0.004  0.006  0.027
   34  0.006  0.002  0.005  0.014
   35  0.000  0.001  0.008  0.009
   36  0.000  0.009  0.023  0.032
   37  0.000  0.000  0.000  0.000
tot    0.220  0.096  0.396  0.713
 
band    16 # energy   -4.96906558 # occ.  2.00000000
 
ion      s      p      d    tot
    1  0.034  0.003  0.000  0.038
    2  0.000  0.003  0.010  0.014
    3  0.000  0.003  0.010  0.014
    4  0.000  0.003  0.010  0.014
    5  0.000  0.000  0.001  0.001
    6  0.000  0.003  0.010  0.014
    7  0.000  0.003  0.010  0.014
    8  0.000  0.003  0.010  0.014
    9  0.029  0.004  0.001  0.034
   10  0.007  0.003  0.011  0.021
   11  0.001  0.000  0.015  0.016
   12  0.007  0.003  0.011  0.021
   13  0.001  0.000  0.015  0.016
   14  0.001  0.000  0.015  0.016
   15  0.008  0.004  0.018  0.029
   16  0.007  0.003  0.011  0.021
   17  0.008  0.004  0.018  0.029
   18  0.008  0.004  0.018  0.029
   19  0.004  0.003  0.018  0.026
   20  0.000  0.000  0.014  0.014
   21  0.000  0.000  0.014  0.014
   22  0.013  0.004  0.011  0.027
   23  0.000  0.000  0.014  0.014
   24  0.013  0.004  0.011  0.027
   25  0.004  0.003  0.018  0.025
   26  0.004  0.003  0.018  0.026
   27  0.013  0.004  0.011  0.027
   28  0.036  0.003  0.000  0.039
   29  0.000  0.003  0.010  0.013
   30  0.000  0.003  0.010  0.013
   31  0.000  0.003  0.010  0.013
   32  0.000  0.003  0.010  0.013
   33  0.000  0.003  0.010  0.013
   34  0.000  0.003  0.010  0.013
   35  0.028  0.004  0.002  0.034
   36  0.000  0.000  0.000  0.000
   37  0.000  0.000  0.000  0.000
tot    0.230  0.092  0.383  0.705
 
band    17 # energy   -4.46376491 # occ.  2.00000000
 
ion      s      p      d    tot
    1  0.021  0.001  0.000  0.023
    2  0.000  0.001  0.011  0.012
    3  0.000  0.001  0.011  0.012
    4  0.000  0.001  0.011  0.012
    5  0.019  0.002  0.000  0.021
    6  0.000  0.001  0.011  0.012
    7  0.000  0.001  0.011  0.012
    8  0.000  0.001  0.011  0.012
    9  0.000  0.000  0.000  0.000
   10  0.000  0.002  0.035  0.036
   11  0.000  0.004  0.024  0.028
   12  0.000  0.002  0.035  0.036
   13  0.000  0.004  0.024  0.028
   14  0.000  0.004  0.024  0.028
   15  0.000  0.000  0.002  0.002
   16  0.000  0.002  0.035  0.036
   17  0.000  0.000  0.002  0.002
   18  0.000  0.000  0.002  0.002
   19  0.002  0.001  0.023  0.026
   20  0.007  0.001  0.030  0.038
   21  0.007  0.001  0.030  0.038
   22  0.000  0.001  0.011  0.012
   23  0.007  0.001  0.030  0.038
   24  0.000  0.001  0.011  0.012
   25  0.002  0.001  0.023  0.026
   26  0.002  0.001  0.023  0.026
   27  0.000  0.001  0.011  0.012
   28  0.001  0.000  0.002  0.003
   29  0.000  0.001  0.007  0.008
   30  0.000  0.001  0.007  0.008
   31  0.000  0.001  0.007  0.008
   32  0.000  0.001  0.007  0.008
   33  0.000  0.001  0.007  0.008
   34  0.000  0.001  0.007  0.008
   35  0.004  0.000  0.000  0.004
   36  0.012  0.010  0.128  0.149
   37  0.056  0.001  0.000  0.057
tot    0.141  0.053  0.613  0.807
 
band    18 # energy   -4.40246957 # occ.  2.00000000
 
ion      s      p      d    tot
    1  0.000  0.001  0.027  0.028
    2  0.014  0.001  0.008  0.023
    3  0.007  0.001  0.007  0.015
    4  0.014  0.001  0.008  0.023
    5  0.000  0.001  0.012  0.013
    6  0.001  0.001  0.007  0.010
    7  0.007  0.001  0.007  0.015
    8  0.001  0.001  0.007  0.010
    9  0.000  0.003  0.004  0.007
   10  0.000  0.000  0.059  0.059
   11  0.000  0.003  0.015  0.019
   12  0.000  0.000  0.019  0.019
   13  0.000  0.003  0.015  0.019
   14  0.000  0.000  0.005  0.005
   15  0.000  0.005  0.015  0.020
   16  0.000  0.000  0.018  0.019
   17  0.000  0.005  0.015  0.020
   18  0.000  0.000  0.028  0.028
   19  0.004  0.003  0.012  0.019
   20  0.000  0.000  0.059  0.059
   21  0.000  0.000  0.024  0.025
   22  0.003  0.002  0.016  0.020
   23  0.000  0.000  0.024  0.024
   24  0.000  0.000  0.014  0.015
   25  0.000  0.000  0.018  0.018
   26  0.004  0.003  0.012  0.019
   27  0.003  0.002  0.016  0.020
   28  0.000  0.001  0.005  0.006
   29  0.009  0.000  0.019  0.028
   30  0.000  0.001  0.016  0.017
   31  0.009  0.000  0.019  0.028
   32  0.010  0.000  0.017  0.027
   33  0.000  0.001  0.016  0.017
   34  0.010  0.000  0.017  0.027
   35  0.000  0.001  0.006  0.007
   36  0.000  0.000  0.086  0.086
   37  0.000  0.000  0.000  0.000
tot    0.097  0.043  0.672  0.812
 
band    19 # energy   -4.40238248 # occ.  2.00000000
 
ion      s      p      d    tot
    1  0.000  0.001  0.027  0.028
    2  0.001  0.001  0.007  0.009
    3  0.008  0.001  0.008  0.017
    4  0.001  0.001  0.007  0.009
    5  0.000  0.001  0.012  0.013
    6  0.014  0.001  0.007  0.022
    7  0.008  0.001  0.008  0.017
    8  0.014  0.001  0.007  0.022
    9  0.000  0.003  0.004  0.007
   10  0.000  0.000  0.005  0.006
   11  0.000  0.001  0.008  0.009
   12  0.000  0.000  0.045  0.045
   13  0.000  0.001  0.008  0.009
   14  0.000  0.004  0.019  0.023
   15  0.000  0.002  0.024  0.026
   16  0.000  0.000  0.046  0.046
   17  0.000  0.002  0.024  0.026
   18  0.000  0.006  0.011  0.017
   19  0.001  0.001  0.016  0.018
   20  0.000  0.000  0.013  0.013
   21  0.000  0.000  0.047  0.048
   22  0.001  0.001  0.015  0.017
   23  0.000  0.000  0.048  0.048
   24  0.004  0.003  0.016  0.022
   25  0.006  0.004  0.010  0.019
   26  0.001  0.001  0.016  0.018
   27  0.001  0.001  0.015  0.017
   28  0.000  0.001  0.005  0.006
   29  0.004  0.001  0.015  0.020
   30  0.012  0.000  0.018  0.031
   31  0.004  0.001  0.015  0.020
   32  0.003  0.001  0.017  0.021
   33  0.012  0.000  0.018  0.031
   34  0.003  0.001  0.017  0.021
   35  0.000  0.001  0.006  0.007
   36  0.000  0.000  0.086  0.086
   37  0.000  0.000  0.000  0.000
tot    0.097  0.043  0.672  0.812
 
band    20 # energy   -4.27909012 # occ.  2.00000000
 
ion      s      p      d    tot
    1  0.001  0.000  0.000  0.001
    2  0.000  0.001  0.016  0.017
    3  0.000  0.001  0.016  0.017
    4  0.000  0.001  0.016  0.017
    5  0.022  0.001  0.001  0.024
    6  0.000  0.001  0.016  0.017
    7  0.000  0.001  0.016  0.017
    8  0.000  0.001  0.016  0.017
    9  0.014  0.000  0.001  0.016
   10  0.000  0.000  0.004  0.004
   11  0.000  0.001  0.029  0.030
   12  0.000  0.000  0.004  0.004
   13  0.000  0.001  0.029  0.030
   14  0.000  0.001  0.029  0.030
   15  0.000  0.003  0.025  0.028
   16  0.000  0.000  0.004  0.004
   17  0.000  0.003  0.025  0.028
   18  0.000  0.003  0.025  0.028
   19  0.000  0.000  0.012  0.013
   20  0.000  0.002  0.019  0.021
   21  0.000  0.002  0.019  0.021
   22  0.001  0.004  0.045  0.049
   23  0.000  0.002  0.019  0.021
   24  0.001  0.004  0.045  0.049
   25  0.000  0.000  0.012  0.013
   26  0.000  0.000  0.012  0.013
   27  0.001  0.004  0.045  0.049
   28  0.005  0.000  0.000  0.006
   29  0.000  0.002  0.022  0.024
   30  0.000  0.002  0.022  0.024
   31  0.000  0.002  0.022  0.024
   32  0.000  0.002  0.022  0.024
   33  0.000  0.002  0.022  0.024
   34  0.000  0.002  0.022  0.024
   35  0.042  0.001  0.003  0.046
   36  0.008  0.000  0.022  0.031
   37  0.001  0.000  0.000  0.001
tot    0.099  0.054  0.653  0.807
 
band    21 # energy   -4.26142422 # occ.  2.00000000
 
ion      s      p      d    tot
    1  0.000  0.002  0.001  0.003
    2  0.014  0.001  0.011  0.026
    3  0.009  0.001  0.010  0.019
    4  0.014  0.001  0.011  0.026
    5  0.000  0.002  0.023  0.025
    6  0.001  0.001  0.010  0.011
    7  0.009  0.001  0.010  0.019
    8  0.001  0.001  0.010  0.011
    9  0.000  0.000  0.033  0.033
   10  0.001  0.007  0.021  0.030
   11  0.000  0.000  0.041  0.041
   12  0.000  0.002  0.013  0.015
   13  0.000  0.000  0.041  0.042
   14  0.001  0.002  0.005  0.008
   15  0.000  0.000  0.031  0.032
   16  0.000  0.002  0.013  0.015
   17  0.000  0.000  0.032  0.032
   18  0.000  0.002  0.013  0.015
   19  0.000  0.000  0.048  0.048
   20  0.001  0.007  0.020  0.028
   21  0.000  0.002  0.014  0.016
   22  0.000  0.001  0.024  0.025
   23  0.000  0.002  0.014  0.016
   24  0.000  0.002  0.015  0.018
   25  0.001  0.001  0.003  0.005
   26  0.000  0.000  0.048  0.049
   27  0.000  0.001  0.024  0.025
   28  0.000  0.002  0.028  0.030
   29  0.012  0.001  0.010  0.023
   30  0.000  0.001  0.009  0.010
   31  0.012  0.001  0.010  0.023
   32  0.010  0.001  0.009  0.020
   33  0.000  0.001  0.009  0.010
   34  0.010  0.001  0.009  0.020
   35  0.000  0.000  0.026  0.026
   36  0.000  0.004  0.001  0.005