PROCAR new format
# of k-points:   10         # of bands:  252         # of ions:   37

 k-point     1 :    0.00000000 0.00000000 0.00000000     weight = 0.01562500

band     1 # energy   -8.18837259 # occ.  2.00000000
 
ion      s      p      d    tot
    1  0.007  0.001  0.000  0.007
    2  0.007  0.001  0.000  0.007
    3  0.007  0.001  0.000  0.007
    4  0.007  0.001  0.000  0.007
    5  0.007  0.001  0.000  0.007
    6  0.007  0.001  0.000  0.007
    7  0.007  0.001  0.000  0.007
    8  0.007  0.001  0.000  0.007
    9  0.007  0.001  0.000  0.007
   10  0.027  0.000  0.000  0.027
   11  0.027  0.000  0.000  0.028
   12  0.027  0.000  0.000  0.027
   13  0.027  0.000  0.000  0.028
   14  0.027  0.000  0.000  0.028
   15  0.026  0.000  0.000  0.027
   16  0.027  0.000  0.000  0.027
   17  0.026  0.000  0.000  0.027
   18  0.026  0.000  0.000  0.027
   19  0.023  0.000  0.000  0.024
   20  0.027  0.000  0.000  0.027
   21  0.027  0.000  0.000  0.027
   22  0.024  0.000  0.000  0.025
   23  0.027  0.000  0.000  0.027
   24  0.024  0.000  0.000  0.025
   25  0.023  0.000  0.000  0.024
   26  0.023  0.000  0.000  0.024
   27  0.024  0.000  0.000  0.025
   28  0.005  0.000  0.000  0.005
   29  0.005  0.000  0.000  0.005
   30  0.005  0.000  0.000  0.005
   31  0.005  0.000  0.000  0.005
   32  0.005  0.000  0.000  0.005
   33  0.005  0.000  0.000  0.005
   34  0.005  0.000  0.000  0.005
   35  0.005  0.000  0.000  0.005
   36  0.006  0.001  0.000  0.007
   37  0.000  0.000  0.000  0.000
tot    0.566  0.012  0.004  0.581
 
band     2 # energy   -7.01057956 # occ.  2.00000000
 
ion      s      p      d    tot
    1  0.017  0.000  0.001  0.018
    2  0.017  0.000  0.001  0.018
    3  0.017  0.000  0.001  0.018
    4  0.017  0.000  0.001  0.018
    5  0.017  0.000  0.001  0.018
    6  0.017  0.000  0.001  0.018
    7  0.017  0.000  0.001  0.018
    8  0.017  0.000  0.001  0.018
    9  0.017  0.000  0.001  0.018
   10  0.010  0.001  0.003  0.015
   11  0.010  0.002  0.003  0.014
   12  0.010  0.001  0.003  0.015
   13  0.010  0.002  0.003  0.014
   14  0.010  0.002  0.003  0.014
   15  0.010  0.001  0.002  0.014
   16  0.010  0.001  0.003  0.015
   17  0.010  0.001  0.002  0.014
   18  0.010  0.001  0.002  0.014
   19  0.013  0.001  0.004  0.018
   20  0.016  0.001  0.004  0.021
   21  0.016  0.001  0.004  0.021
   22  0.014  0.001  0.003  0.019
   23  0.016  0.001  0.004  0.021
   24  0.014  0.001  0.003  0.019
   25  0.013  0.001  0.004  0.018
   26  0.013  0.001  0.004  0.018
   27  0.014  0.001  0.003  0.019
   28  0.014  0.000  0.000  0.015
   29  0.014  0.001  0.001  0.015
   30  0.014  0.001  0.001  0.015
   31  0.014  0.001  0.001  0.015
   32  0.014  0.001  0.001  0.015
   33  0.014  0.001  0.001  0.015
   34  0.014  0.001  0.001  0.015
   35  0.013  0.000  0.000  0.014
   36  0.014  0.001  0.000  0.014
   37  0.001  0.000  0.000  0.001
tot    0.497  0.032  0.071  0.599
 
band     3 # energy   -6.06469409 # occ.  2.00000000
 
ion      s      p      d    tot
    1  0.005  0.000  0.019  0.025
    2  0.014  0.000  0.015  0.029
    3  0.014  0.000  0.015  0.029
    4  0.014  0.000  0.015  0.029
    5  0.008  0.000  0.012  0.021
    6  0.014  0.000  0.015  0.029
    7  0.014  0.000  0.015  0.029
    8  0.014  0.000  0.015  0.029
    9  0.035  0.000  0.009  0.044
   10  0.014  0.001  0.020  0.035
   11  0.015  0.002  0.016  0.033
   12  0.014  0.001  0.020  0.035
   13  0.015  0.002  0.016  0.033
   14  0.015  0.002  0.016  0.033
   15  0.001  0.001  0.023  0.024
   16  0.014  0.001  0.020  0.035
   17  0.001  0.001  0.023  0.024
   18  0.001  0.001  0.023  0.024
   19  0.000  0.001  0.009  0.010
   20  0.009  0.001  0.009  0.020
   21  0.009  0.001  0.009  0.020
   22  0.007  0.001  0.001  0.010
   23  0.009  0.001  0.009  0.020
   24  0.007  0.001  0.001  0.010
   25  0.000  0.001  0.009  0.010
   26  0.000  0.001  0.009  0.010
   27  0.007  0.001  0.001  0.010
   28  0.005  0.000  0.000  0.005
   29  0.002  0.000  0.003  0.005
   30  0.002  0.000  0.003  0.005
   31  0.002  0.000  0.003  0.005
   32  0.002  0.000  0.003  0.005
   33  0.002  0.000  0.003  0.005
   34  0.002  0.000  0.003  0.005
   35  0.009  0.000  0.000  0.009
   36  0.001  0.001  0.001  0.003
   37  0.000  0.000  0.000  0.000
tot    0.301  0.024  0.381  0.706
 
band     4 # energy   -6.05300684 # occ.  2.00000000
 
ion      s      p      d    tot
    1  0.024  0.000  0.003  0.027
    2  0.008  0.000  0.011  0.019
    3  0.008  0.000  0.011  0.019
    4  0.008  0.000  0.011  0.019
    5  0.012  0.000  0.009  0.021
    6  0.008  0.000  0.011  0.019
    7  0.008  0.000  0.011  0.019
    8  0.008  0.000  0.011  0.019
    9  0.000  0.001  0.012  0.014
   10  0.001  0.000  0.032  0.033
   11  0.000  0.001  0.019  0.020
   12  0.000  0.000  0.032  0.033
   13  0.000  0.001  0.019  0.020
   14  0.000  0.001  0.019  0.020
   15  0.036  0.002  0.007  0.045
   16  0.000  0.000  0.032  0.033
   17  0.036  0.002  0.007  0.045
   18  0.036  0.002  0.007  0.045
   19  0.000  0.001  0.017  0.018
   20  0.017  0.000  0.017  0.034
   21  0.017  0.000  0.017  0.034
   22  0.012  0.002  0.005  0.019
   23  0.017  0.000  0.017  0.034
   24  0.012  0.002  0.005  0.019
   25  0.000  0.001  0.017  0.018
   26  0.000  0.001  0.017  0.018
   27  0.012  0.002  0.005  0.019
   28  0.000  0.000  0.000  0.000
   29  0.000  0.000  0.002  0.003
   30  0.000  0.000  0.002  0.003
   31  0.000  0.000  0.002  0.003
   32  0.000  0.000  0.002  0.003
   33  0.000  0.000  0.002  0.003
   34  0.000  0.000  0.002  0.003
   35  0.003  0.001  0.000  0.004
   36  0.008  0.002  0.002  0.012
   37  0.000  0.000  0.000  0.000
tot    0.290  0.030  0.396  0.716
 
band     5 # energy   -6.04606021 # occ.  2.00000000
 
ion      s      p      d    tot
    1  0.000  0.000  0.008  0.008
    2  0.002  0.001  0.003  0.005
    3  0.000  0.000  0.003  0.004
    4  0.004  0.001  0.003  0.007
    5  0.000  0.001  0.007  0.008
    6  0.007  0.001  0.003  0.012
    7  0.002  0.001  0.003  0.006
    8  0.007  0.001  0.004  0.011
    9  0.000  0.000  0.001  0.001
   10  0.032  0.002  0.005  0.039
   11  0.008  0.003  0.025  0.035
   12  0.012  0.001  0.024  0.037
   13  0.021  0.002  0.021  0.044
   14  0.053  0.001  0.011  0.065
   15  0.000  0.003  0.005  0.008
   16  0.005  0.000  0.031  0.036
   17  0.001  0.002  0.007  0.011
   18  0.003  0.000  0.013  0.016
   19  0.001  0.003  0.004  0.009
   20  0.059  0.001  0.010  0.070
   21  0.023  0.002  0.025  0.050
   22  0.008  0.001  0.020  0.028
   23  0.008  0.002  0.031  0.041
   24  0.020  0.002  0.005  0.026
   25  0.007  0.000  0.013  0.021
   26  0.003  0.003  0.007  0.012
   27  0.003  0.000  0.026  0.029
   28  0.000  0.000  0.001  0.001
   29  0.006  0.001  0.004  0.011
   30  0.002  0.001  0.003  0.006
   31  0.006  0.001  0.003  0.011
   32  0.003  0.001  0.002  0.006
   33  0.001  0.000  0.003  0.004
   34  0.001  0.000  0.002  0.004
   35  0.000  0.000  0.005  0.005
   36  0.000  0.003  0.004  0.007
   37  0.000  0.000  0.000  0.000
tot    0.306  0.044  0.343  0.693
 
band     6 # energy   -6.04605909 # occ.  2.00000000
 
ion      s      p      d    tot
    1  0.000  0.000  0.008  0.008
    2  0.005  0.001  0.004  0.010
    3  0.007  0.001  0.003  0.011
    4  0.003  0.001  0.004  0.008
    5  0.000  0.001  0.007  0.008
    6  0.000  0.000  0.003  0.003
    7  0.005  0.001  0.003  0.009
    8  0.001  0.000  0.003  0.004
    9  0.000  0.000  0.001  0.001
   10  0.001  0.000  0.035  0.036
   11  0.047  0.001  0.013  0.061
   12  0.020  0.001  0.016  0.038
   13  0.034  0.002  0.017  0.052
   14  0.001  0.003  0.026  0.031
   15  0.002  0.001  0.012  0.015
   16  0.028  0.002  0.009  0.038
   17  0.002  0.002  0.010  0.013
   18  0.000  0.004  0.004  0.007
   19  0.006  0.001  0.012  0.019
   20  0.001  0.003  0.034  0.037
   21  0.037  0.002  0.019  0.058
   22  0.012  0.001  0.014  0.027
   23  0.052  0.001  0.013  0.066
   24  0.000  0.000  0.029  0.029
   25  0.000  0.004  0.003  0.007
   26  0.005  0.002  0.009  0.015
   27  0.017  0.002  0.008  0.027
   28  0.000  0.000  0.001  0.001
   29  0.000  0.000  0.002  0.003
   30  0.005  0.001  0.002  0.008
   31  0.000  0.000  0.002  0.003
   32  0.004  0.001  0.004  0.008
   33  0.006  0.001  0.003  0.010
   34  0.005  0.001  0.004  0.010
   35  0.000  0.000  0.005  0.005
   36  0.000  0.003  0.004  0.007
   37  0.000  0.000  0.000  0.000
tot    0.306  0.044  0.343  0.693
 
band     7 # energy   -6.01952311 # occ.  2.00000000
 
ion      s      p      d    tot
    1  0.007  0.001  0.001  0.009
    2  0.000  0.001  0.006  0.007
    3  0.000  0.001  0.006  0.007
    4  0.000  0.001  0.006  0.007
    5  0.017  0.002  0.001  0.020
    6  0.000  0.001  0.006  0.007
    7  0.000  0.001  0.006  0.007
    8  0.000  0.001  0.006  0.007
    9  0.000  0.000  0.002  0.002
   10  0.023  0.003  0.002  0.028
   11  0.023  0.001  0.020  0.044
   12  0.023  0.003  0.002  0.028
   13  0.023  0.001  0.020  0.044
   14  0.023  0.001  0.020  0.044
   15  0.001  0.001  0.025  0.026
   16  0.023  0.003  0.002  0.028
   17  0.001  0.001  0.025  0.026
   18  0.000  0.001  0.025  0.026
   19  0.026  0.002  0.006  0.034
   20  0.006  0.003  0.016  0.025
   21  0.007  0.003  0.016  0.025
   22  0.007  0.000  0.027  0.034
   23  0.007  0.003  0.016  0.025
   24  0.007  0.000  0.027  0.034
   25  0.026  0.002  0.006  0.034
   26  0.026  0.002  0.006  0.034
   27  0.007  0.000  0.027  0.034
   28  0.012  0.001  0.001  0.014
   29  0.000  0.000  0.004  0.004
   30  0.000  0.000  0.004  0.004
   31  0.000  0.000  0.004  0.004
   32  0.000  0.000  0.004  0.004
   33  0.000  0.000  0.004  0.004
   34  0.000  0.000  0.004  0.004
   35  0.004  0.001  0.002  0.007
   36  0.000  0.000  0.000  0.001
   37  0.000  0.000  0.000  0.000
tot    0.299  0.040  0.355  0.695
 
band     8 # energy   -5.99318712 # occ.  2.00000000
 
ion      s      p      d    tot
    1  0.000  0.001  0.004  0.005
    2  0.005  0.001  0.004  0.010
    3  0.007  0.001  0.004  0.012
    4  0.005  0.001  0.004  0.011
    5  0.000  0.000  0.004  0.004
    6  0.000  0.000  0.003  0.004
    7  0.008  0.001  0.004  0.013
    8  0.000  0.000  0.003  0.004
    9  0.000  0.001  0.011  0.012
   10  0.030  0.000  0.017  0.047
   11  0.002  0.002  0.018  0.021
   12  0.007  0.004  0.008  0.018
   13  0.001  0.002  0.019  0.022
   14  0.006  0.001  0.009  0.015
   15  0.018  0.001  0.033  0.052
   16  0.009  0.003  0.009  0.021
   17  0.014  0.001  0.036  0.051
   18  0.062  0.002  0.005  0.068
   19  0.012  0.001  0.027  0.040
   20  0.001  0.001  0.012  0.014
   21  0.000  0.002  0.013  0.015
   22  0.007  0.003  0.013  0.023
   23  0.000  0.002  0.013  0.015
   24  0.032  0.001  0.012  0.044
   25  0.043  0.002  0.003  0.048
   26  0.009  0.001  0.029  0.039
   27  0.009  0.003  0.013  0.025
   28  0.000  0.000  0.006  0.007
   29  0.000  0.000  0.002  0.002
   30  0.003  0.001  0.002  0.005
   31  0.000  0.000  0.002  0.002
   32  0.004  0.001  0.003  0.007
   33  0.002  0.001  0.002  0.004
   34  0.003  0.001  0.003  0.007
   35  0.000  0.001  0.003  0.004
   36  0.000  0.000  0.000  0.000
   37  0.000  0.000  0.000  0.000
tot    0.298  0.041  0.354  0.693
 
band     9 # energy   -5.99317893 # occ.  2.00000000
 
ion      s      p      d    tot
    1  0.000  0.001  0.004  0.005
    2  0.004  0.001  0.003  0.008
    3  0.001  0.001  0.004  0.006
    4  0.003  0.001  0.003  0.007
    5  0.000  0.000  0.004  0.004
    6  0.008  0.001  0.004  0.014
    7  0.001  0.000  0.004  0.005
    8  0.008  0.001  0.004  0.014
    9  0.000  0.001  0.011  0.012
   10  0.000  0.005  0.006  0.010
   11  0.004  0.001  0.013  0.018
   12  0.024  0.001  0.014  0.039
   13  0.004  0.001  0.012  0.017
   14  0.000  0.002  0.022  0.024
   15  0.044  0.001  0.016  0.062
   16  0.022  0.001  0.014  0.037
   17  0.048  0.002  0.013  0.063
   18  0.000  0.001  0.045  0.046
   19  0.031  0.002  0.013  0.045
   20  0.000  0.002  0.013  0.015
   21  0.001  0.001  0.012  0.014
   22  0.025  0.001  0.013  0.038
   23  0.001  0.001  0.012  0.014
   24  0.000  0.004  0.014  0.018
   25  0.000  0.000  0.036  0.037
   26  0.033  0.002  0.011  0.046
   27  0.023  0.001  0.013  0.037
   28  0.000  0.000  0.006  0.007
   29  0.004  0.001  0.002  0.007
   30  0.001  0.000  0.002  0.004
   31  0.004  0.001  0.002  0.007
   32  0.000  0.000  0.001  0.002
   33  0.002  0.000  0.002  0.005
   34  0.001  0.000  0.001  0.002
   35  0.000  0.001  0.003  0.004
   36  0.000  0.000  0.000  0.000
   37  0.000  0.000  0.000  0.000
tot    0.298  0.041  0.354  0.693
 
band    10 # energy   -5.94190199 # occ.  2.00000000
 
ion      s      p      d    tot
    1  0.001  0.000  0.000  0.001
    2  0.000  0.000  0.000  0.000
    3  0.000  0.000  0.000  0.000
    4  0.000  0.000  0.000  0.000
    5  0.001  0.000  0.000  0.001
    6  0.000  0.000  0.000  0.000
    7  0.000  0.000  0.000  0.000
    8  0.000  0.000  0.000  0.000
    9  0.000  0.000  0.000  0.000
   10  0.000  0.000  0.004  0.005
   11  0.001  0.000  0.003  0.004
   12  0.000  0.000  0.004  0.005
   13  0.001  0.000  0.003  0.004
   14  0.001  0.000  0.003  0.004
   15  0.000  0.000  0.004  0.005
   16  0.000  0.000  0.004  0.005
   17  0.000  0.000  0.004  0.005
   18  0.000  0.000  0.004  0.005
   19  0.006  0.001  0.020  0.027
   20  0.004  0.000  0.031  0.035
   21  0.003  0.000  0.031  0.035
   22  0.009  0.001  0.024  0.034
   23  0.003  0.000  0.031  0.035
   24  0.009  0.001  0.024  0.034
   25  0.006  0.001  0.020  0.027
   26  0.006  0.001  0.020  0.027
   27  0.009  0.001  0.024  0.034
   28  0.023  0.000  0.021  0.044
   29  0.025  0.000  0.021  0.046
   30  0.025  0.000  0.021  0.046
   31  0.025  0.000  0.021  0.046
   32  0.025  0.000  0.021  0.046
   33  0.025  0.000  0.021  0.046
   34  0.025  0.000  0.021  0.046
   35  0.026  0.000  0.022  0.048
   36  0.016  0.001  0.004  0.021
   37  0.001  0.000  0.000  0.001
tot    0.281  0.011  0.433  0.725
 
band    11 # energy   -5.56889750 # occ.  2.00000000
 
ion      s      p      d    tot
    1  0.014  0.002  0.002  0.018
    2  0.000  0.001  0.008  0.009
    3  0.000  0.001  0.008  0.009
    4  0.000  0.001  0.008  0.009
    5  0.000  0.000  0.002  0.002
    6  0.000  0.001  0.008  0.009
    7  0.000  0.001  0.008  0.009
    8  0.000  0.001  0.008  0.009
    9  0.016  0.001  0.000  0.018
   10  0.010  0.001  0.013  0.025
   11  0.003  0.000  0.044  0.047
   12  0.010  0.001  0.013  0.025
   13  0.003  0.000  0.044  0.047
   14  0.003  0.000  0.044  0.047
   15  0.003  0.001  0.022  0.027
   16  0.010  0.001  0.013  0.025
   17  0.003  0.001  0.022  0.027
   18  0.003  0.001  0.023  0.027
   19  0.004  0.001  0.013  0.018
   20  0.001  0.000  0.053  0.054
   21  0.001  0.000  0.053  0.054
   22  0.011  0.001  0.018  0.031
   23  0.001  0.000  0.053  0.054
   24  0.011  0.001  0.018  0.030
   25  0.004  0.001  0.013  0.018
   26  0.004  0.001  0.013  0.018
   27  0.011  0.001  0.018  0.031
   28  0.012  0.001  0.000  0.013
   29  0.000  0.000  0.006  0.006
   30  0.000  0.000  0.006  0.006
   31  0.000  0.000  0.006  0.006
   32  0.000  0.000  0.006  0.006
   33  0.000  0.000  0.006  0.006
   34  0.000  0.000  0.006  0.006
   35  0.008  0.001  0.002  0.011
   36  0.000  0.000  0.001  0.001
   37  0.000  0.000  0.000  0.000
tot    0.148  0.027  0.580  0.755
 
band    12 # energy   -5.56764245 # occ.  2.00000000
 
ion      s      p      d    tot
    1  0.000  0.001  0.004  0.005
    2  0.000  0.001  0.005  0.006
    3  0.009  0.001  0.005  0.015
    4  0.000  0.001  0.005  0.006
    5  0.000  0.001  0.011  0.012
    6  0.005  0.001  0.004  0.010
    7  0.009  0.001  0.005  0.015
    8  0.005  0.001  0.004  0.010
    9  0.000  0.000  0.008  0.008
   10  0.000  0.001  0.052  0.052
   11  0.016  0.001  0.021  0.037
   12  0.008  0.002  0.019  0.028
   13  0.016  0.001  0.021  0.037
   14  0.000  0.000  0.048  0.048
   15  0.001  0.000  0.019  0.021
   16  0.008  0.002  0.019  0.028
   17  0.001  0.000  0.019  0.021
   18  0.000  0.001  0.011  0.012
   19  0.006  0.000  0.019  0.025
   20  0.000  0.000  0.078  0.078
   21  0.017  0.001  0.024  0.042
   22  0.002  0.001  0.019  0.022
   23  0.017  0.001  0.024  0.042
   24  0.000  0.001  0.031  0.032
   25  0.000  0.001  0.013  0.014
   26  0.006  0.000  0.019  0.025
   27  0.002  0.001  0.019  0.022
   28  0.000  0.000  0.008  0.009
   29  0.002  0.001  0.004  0.007
   30  0.010  0.001  0.004  0.015
   31  0.002  0.001  0.004  0.007
   32  0.003  0.001  0.004  0.007
   33  0.010  0.001  0.004  0.015
   34  0.003  0.001  0.004  0.007
   35  0.000  0.000  0.003  0.004
   36  0.000  0.004  0.003  0.007
   37  0.000  0.000  0.000  0.000
tot    0.157  0.032  0.560  0.750
 
band    13 # energy   -5.56763146 # occ.  2.00000000
 
ion      s      p      d    tot
    1  0.000  0.001  0.004  0.005
    2  0.009  0.001  0.004  0.014
    3  0.001  0.000  0.004  0.006
    4  0.009  0.001  0.004  0.014
    5  0.000  0.001  0.011  0.012
    6  0.004  0.001  0.005  0.010
    7  0.001  0.000  0.004  0.006
    8  0.004  0.001  0.005  0.010
    9  0.000  0.000  0.008  0.008
   10  0.010  0.002  0.008  0.020
   11  0.005  0.000  0.039  0.044
   12  0.003  0.001  0.041  0.044
   13  0.005  0.000  0.039  0.044
   14  0.021  0.001  0.011  0.033
   15  0.000  0.001  0.014  0.015
   16  0.003  0.001  0.041  0.044
   17  0.000  0.001  0.014  0.015
   18  0.002  0.000  0.022  0.024
   19  0.002  0.001  0.015  0.018
   20  0.022  0.002  0.006  0.030
   21  0.006  0.000  0.060  0.066
   22  0.001  0.001  0.027  0.029
   23  0.006  0.000  0.060  0.066
   24  0.003  0.001  0.015  0.019
   25  0.008  0.000  0.021  0.029
   26  0.002  0.001  0.015  0.018
   27  0.001  0.001  0.027  0.029
   28  0.000  0.000  0.008  0.009
   29  0.008  0.001  0.004  0.012
   30  0.000  0.000  0.004  0.005
   31  0.008  0.001  0.004  0.012
   32  0.007  0.001  0.004  0.012
   33  0.000  0.000  0.004  0.005
   34  0.007  0.001  0.004  0.012
   35  0.000  0.000  0.003  0.004
   36  0.000  0.004  0.003  0.007
   37  0.000  0.000  0.000  0.000
tot    0.157  0.032  0.560  0.750
 
band    14 # energy   -5.53036336 # occ.  2.00000000
 
ion      s      p      d    tot
    1  0.007  0.000  0.001  0.008
    2  0.000  0.001  0.008  0.009
    3  0.000  0.001  0.008  0.009
    4  0.000  0.001  0.008  0.009
    5  0.018  0.002  0.000  0.020
    6  0.000  0.001  0.008  0.009
    7  0.000  0.001  0.008  0.009
    8  0.000  0.001  0.008  0.009
    9  0.003  0.001  0.002  0.006
   10  0.000  0.000  0.043  0.044
   11  0.007  0.002  0.009  0.017
   12  0.000  0.000  0.043  0.044
   13  0.007  0.002  0.009  0.017
   14  0.007  0.002  0.009  0.017
   15  0.008  0.001  0.026  0.035
   16  0.000  0.000  0.043  0.044
   17  0.008  0.001  0.026  0.035
   18  0.008  0.001  0.026  0.035
   19  0.010  0.001  0.038  0.049
   20  0.009  0.002  0.011  0.022
   21  0.009  0.002  0.011  0.022
   22  0.000  0.000  0.035  0.035
   23  0.009  0.002  0.011  0.022
   24  0.000  0.000  0.035  0.035
   25  0.010  0.001  0.038  0.049
   26  0.010  0.001  0.038  0.049
   27  0.000  0.000  0.035  0.035
   28  0.002  0.001  0.005  0.008
   29  0.000  0.001  0.005  0.006
   30  0.000  0.001  0.005  0.006
   31  0.000  0.001  0.005  0.006
   32  0.000  0.001  0.005  0.006
   33  0.000  0.001  0.005  0.006
   34  0.000  0.001  0.005  0.006
   35  0.003  0.000  0.000  0.003
   36  0.016  0.003  0.001  0.021
   37  0.001  0.000  0.000  0.001
tot    0.156  0.031  0.575  0.762
 
band    15 # energy   -5.50169878 # occ.  2.00000000
 
ion      s      p      d    tot
    1  0.000  0.001  0.015  0.015
    2  0.010  0.001  0.005  0.016
    3  0.002  0.000  0.005  0.008
    4  0.010  0.001  0.005  0.016
    5  0.000  0.000  0.005  0.005
    6  0.003  0.001  0.006  0.009
    7  0.002  0.000  0.005  0.008
    8  0.003  0.001  0.006  0.010
    9  0.000  0.001  0.007  0.009
   10  0.000  0.001  0.028  0.029
   11  0.001  0.001  0.020  0.022
   12  0.006  0.000  0.023  0.029
   13  0.001  0.001  0.020  0.022
   14  0.000  0.001  0.020  0.021
   15  0.011  0.002  0.021  0.034
   16  0.006  0.000  0.023  0.029
   17  0.011  0.002  0.021  0.033
   18  0.000  0.000  0.065  0.065
   19  0.013  0.001  0.020  0.034
   20  0.000  0.002  0.019  0.020
   21  0.000  0.001  0.023  0.024
   22  0.018  0.001  0.021  0.039
   23  0.000  0.001  0.023  0.024
   24  0.000  0.000  0.034  0.034
   25  0.000  0.000  0.068  0.068
   26  0.013  0.001  0.020  0.033
   27  0.018  0.001  0.021  0.039
   28  0.000  0.001  0.005  0.005
   29  0.005  0.001  0.003  0.010
   30  0.000  0.000  0.004  0.005
   31  0.005  0.001  0.003  0.010
   32  0.003  0.001  0.002  0.006
   33  0.000  0.000  0.004  0.005
   34  0.003  0.001  0.002  0.006
   35  0.000  0.001  0.008  0.008
   36  0.000  0.000  0.001  0.001
   37  0.000  0.000  0.000  0.000
tot    0.146  0.028  0.578  0.752
 
band    16 # energy   -5.50168553 # occ.  2.00000000
 
ion      s      p      d    tot
    1  0.000  0.001  0.015  0.015
    2  0.000  0.000  0.006  0.006
    3  0.008  0.001  0.005  0.015
    4  0.000  0.000  0.006  0.006
    5  0.000  0.000  0.005  0.005
    6  0.007  0.001  0.005  0.013
    7  0.008  0.001  0.005  0.014
    8  0.007  0.001  0.005  0.013
    9  0.000  0.001  0.007  0.009
   10  0.008  0.000  0.021  0.030
   11  0.000  0.001  0.020  0.022
   12  0.002  0.001  0.026  0.029
   13  0.000  0.001  0.020  0.022
   14  0.001  0.001  0.020  0.022
   15  0.004  0.001  0.050  0.054
   16  0.002  0.001  0.026  0.029
   17  0.004  0.001  0.050  0.054
   18  0.015  0.002  0.007  0.023
   19  0.004  0.001  0.051  0.056
   20  0.000  0.000  0.025  0.025
   21  0.000  0.001  0.020  0.021
   22  0.006  0.000  0.029  0.036
   23  0.000  0.001  0.020  0.022
   24  0.024  0.001  0.016  0.041
   25  0.017  0.001  0.004  0.022
   26  0.004  0.001  0.052  0.057
   27  0.006  0.000  0.029  0.036
   28  0.000  0.001  0.005  0.005
   29  0.001  0.000  0.003  0.004
   30  0.005  0.001  0.002  0.009
   31  0.001  0.000  0.003  0.004
   32  0.003  0.001  0.004  0.008
   33  0.005  0.001  0.002  0.009
   34  0.003  0.001  0.004  0.008
   35  0.000  0.001  0.008  0.008
   36  0.000  0.000  0.001  0.001
   37  0.000  0.000  0.000  0.000
tot    0.146  0.028  0.578  0.752
 
band    17 # energy   -5.18181415 # occ.  2.00000000
 
ion      s      p      d    tot
    1  0.000  0.000  0.016  0.017
    2  0.000  0.001  0.010  0.011
    3  0.005  0.000  0.014  0.019
    4  0.000  0.001  0.010  0.011
    5  0.000  0.001  0.026  0.027
    6  0.008  0.001  0.009  0.017
    7  0.005  0.000  0.014  0.019
    8  0.008  0.001  0.009  0.017
    9  0.000  0.001  0.005  0.006
   10  0.000  0.000  0.018  0.018
   11  0.000  0.000  0.050  0.050
   12  0.000  0.000  0.011  0.011
   13  0.000  0.000  0.050  0.050
   14  0.000  0.000  0.047  0.047
   15  0.000  0.000  0.022  0.022
   16  0.000  0.000  0.011  0.011
   17  0.000  0.000  0.022  0.022
   18  0.000  0.000  0.038  0.038
   19  0.000  0.000  0.010  0.010
   20  0.001  0.000  0.064  0.065
   21  0.000  0.000  0.044  0.045
   22  0.000  0.000  0.032  0.032
   23  0.000  0.000  0.045  0.045
   24  0.000  0.000  0.029  0.029
   25  0.000  0.000  0.013  0.013
   26  0.000  0.000  0.010  0.010
   27  0.000  0.000  0.032  0.032
   28  0.000  0.000  0.012  0.012
   29  0.009  0.001  0.013  0.023
   30  0.000  0.001  0.009  0.010
   31  0.008  0.001  0.013  0.023
   32  0.008  0.001  0.006  0.015
   33  0.000  0.001  0.009  0.010
   34  0.008  0.001  0.007  0.016
   35  0.000  0.000  0.020  0.020
   36  0.000  0.004  0.002  0.006
   37  0.000  0.000  0.000  0.000
tot    0.062  0.017  0.751  0.830
 
band    18 # energy   -5.18181048 # occ.  2.00000000
 
ion      s      p      d    tot
    1  0.000  0.000  0.016  0.017
    2  0.008  0.000  0.012  0.021
    3  0.004  0.001  0.008  0.012
    4  0.008  0.000  0.012  0.021
    5  0.000  0.001  0.026  0.027
    6  0.001  0.000  0.013  0.014
    7  0.004  0.001  0.008  0.012
    8  0.001  0.000  0.013  0.014
    9  0.000  0.001  0.005  0.006
   10  0.000  0.000  0.009  0.009
   11  0.000  0.000  0.048  0.048
   12  0.000  0.000  0.015  0.016
   13  0.000  0.000  0.048  0.048
   14  0.000  0.000  0.051  0.051
   15  0.000  0.000  0.032  0.033
   16  0.000  0.000  0.015  0.016
   17  0.000  0.000  0.033  0.033
   18  0.000  0.000  0.017  0.017
   19  0.000  0.000  0.012  0.012
   20  0.000  0.000  0.038  0.038
   21  0.001  0.000  0.058  0.059
   22  0.000  0.000  0.030  0.030
   23  0.001  0.000  0.057  0.058
   24  0.000  0.000  0.033  0.033
   25  0.000  0.000  0.009  0.009
   26  0.000  0.000  0.012  0.012
   27  0.000  0.000  0.030  0.030
   28  0.000  0.000  0.012  0.012
   29  0.003  0.001  0.006  0.009
   30  0.011  0.001  0.010  0.022
   31  0.003  0.001  0.006  0.009
   32  0.003  0.001  0.013  0.017
   33  0.011  0.001  0.010  0.022
   34  0.003  0.001  0.013  0.016
   35  0.000  0.000  0.020  0.020
   36  0.000  0.004  0.002  0.006
   37  0.000  0.000  0.000  0.000
tot    0.062  0.017  0.751  0.830
 
band    19 # energy   -5.16829052 # occ.  2.00000000
 
ion      s      p      d    tot
    1  0.011  0.000  0.004  0.016
    2  0.000  0.001  0.010  0.011
    3  0.000  0.001  0.010  0.011
    4  0.000  0.001  0.010  0.011
    5  0.001  0.000  0.013  0.014
    6  0.000  0.001  0.010  0.011
    7  0.000  0.001  0.010  0.011
    8  0.000  0.001  0.010  0.011
    9  0.007  0.001  0.001  0.009
   10  0.000  0.000  0.025  0.025
   11  0.000  0.000  0.047  0.048
   12  0.000  0.000  0.025  0.025
   13  0.000  0.000  0.047  0.048
   14  0.000  0.000  0.047  0.047
   15  0.000  0.000  0.031  0.031
   16  0.000  0.000  0.025  0.025
   17  0.000  0.000  0.031  0.031
   18  0.000  0.000  0.031  0.031
   19  0.000  0.000  0.023  0.023
   20  0.001  0.000  0.043  0.044
   21  0.001  0.000  0.043  0.044
   22  0.001  0.000  0.030  0.031
   23  0.001  0.000  0.043  0.044
   24  0.001  0.000  0.030  0.031
   25  0.000  0.000  0.023  0.023
   26  0.000  0.000  0.023  0.023
   27  0.001  0.000  0.030  0.031
   28  0.011  0.001  0.000  0.011
   29  0.000  0.001  0.014  0.015
   30  0.000  0.001  0.014  0.015
   31  0.000  0.001  0.014  0.015
   32  0.000  0.001  0.014  0.015
   33  0.000  0.001  0.014  0.015
   34  0.000  0.001  0.014  0.015
   35  0.015  0.001  0.003  0.018
   36  0.000  0.000  0.004  0.005
   37  0.000  0.000  0.000  0.000
tot    0.051  0.014  0.767  0.831
 
band    20 # energy   -5.15942207 # occ.  2.00000000
 
ion      s      p      d    tot
    1  0.001  0.000  0.006  0.007
    2  0.000  0.001  0.020  0.021
    3  0.000  0.001  0.020  0.021
    4  0.000  0.001  0.020  0.021
    5  0.023  0.001  0.000  0.025
    6  0.000  0.001  0.020  0.021
    7  0.000  0.001  0.020  0.021
    8  0.000  0.001  0.020  0.021
    9  0.018  0.000  0.011  0.030
   10  0.000  0.000  0.037  0.037
   11  0.000  0.001  0.028  0.029
   12  0.000  0.000  0.037  0.037
   13  0.000  0.001  0.028  0.029
   14  0.000  0.001  0.028  0.029
   15  0.000  0.000  0.033  0.034
   16  0.000  0.000  0.037  0.037
   17  0.000  0.000  0.033  0.034
   18  0.000  0.000  0.033  0.034
   19  0.001  0.000  0.025  0.026
   20  0.000  0.000  0.029  0.030
   21  0.000  0.000  0.030  0.030
   22  0.001  0.000  0.016  0.017
   23  0.000  0.000  0.030  0.030
   24  0.001  0.000  0.016  0.017
   25  0.001  0.000  0.025  0.026
   26  0.001  0.000  0.025  0.026
   27  0.001  0.000  0.016  0.017
   28  0.009  0.000  0.008  0.017
   29  0.000  0.000  0.014  0.015
   30  0.000  0.000  0.014  0.015
   31  0.000  0.000  0.014  0.015
   32  0.000  0.000  0.014  0.015
   33  0.000  0.000  0.014  0.015
   34  0.000  0.000  0.014  0.015
   35  0.000  0.000  0.003  0.004
   36  0.008  0.001  0.000  0.009
   37  0.000  0.000  0.000  0.000
tot    0.066  0.016  0.745  0.826
 
band    21 # energy   -5.12440739 # occ.  2.00000000
 
ion      s      p      d    tot
    1  0.000  0.002  0.012  0.014
    2  0.013  0.001  0.017  0.031
    3  0.011  0.001  0.011  0.023
    4  0.013  0.001  0.017  0.031
    5  0.000  0.001  0.019  0.020
    6  0.000  0.001  0.018  0.018
    7  0.011  0.001  0.011  0.023
    8  0.000  0.001  0.018  0.018
    9  0.000  0.000  0.039  0.039
   10  0.000  0.001  0.054  0.055
   11  0.000  0.000  0.024  0.024
   12  0.000  0.000  0.059  0.059
   13  0.000  0.000  0.024  0.024
   14  0.000  0.000  0.030  0.030
   15  0.000  0.001  0.032  0.033
   16  0.000  0.000  0.059  0.059
   17  0.000  0.001  0.032  0.033
   18  0.000  0.001  0.028  0.029
   19  0.000  0.000  0.023  0.024
   20  0.000  0.000  0.020  0.020
   21  0.000  0.000  0.016  0.016
   22  0.001  0.000  0.009  0.010
   23  0.000  0.000  0.016  0.016
   24  0.004  0.000  0.020  0.024
   25  0.001  0.000  0.036  0.037
   26  0.000  0.000  0.023  0.024
   27  0.001  0.000  0.009  0.010
   28  0.000  0.000  0.013  0.013
   29  0.000  0.000  0.006  0.006
   30  0.004  0.000  0.003  0.007
   31  0.000  0.000  0.006  0.006
   32  0.003  0.000  0.009  0.012
   33  0.004  0.000  0.003  0.007
   34  0.003  0.000  0.009  0.012
   35  0.000  0.001  0.005  0.006
   36  0.000  0.000  0.003  0.003