 vasp.6.2.0 18Jan21 (build Jun 12 2021 23:27:24) complex                        
  
 executed on             LinuxIFC date 2022.05.27  05:59:47
 running on   28 total cores
 distrk:  each k-point on   28 cores,    1 groups
 distr:  one band on NCORE=   1 cores,   28 groups


--------------------------------------------------------------------------------------------------------


 INCAR:
   ISMEAR = -5
   SIGMA = 0.1
   ISPIN = 1
   EDIFF = 1.d-5
   EDIFFG = -0.01
   NSW = 0
   NELM = 150
   ENCUT = 500
   ISIF = 2
   IBRION = 2
   LREAL = Auto
   ALGO = Fast
   ICHARG = 11
   LORBIT = 10
   LCHARG = .F.
   LWAVE = .F.

 POTCAR:    PAW_PBE Cu 22Jun2005                  
 POTCAR:    PAW_PBE Cr 06Sep2000                  
 POTCAR:    PAW_PBE O 08Apr2002                   
 POTCAR:    PAW_PBE H 15Jun2001                   
 -----------------------------------------------------------------------------
|                                                                             |
|           W    W    AA    RRRRR   N    N  II  N    N   GGGG   !!!           |
|           W    W   A  A   R    R  NN   N  II  NN   N  G    G  !!!           |
|           W    W  A    A  R    R  N N  N  II  N N  N  G       !!!           |
|           W WW W  AAAAAA  RRRRR   N  N N  II  N  N N  G  GGG   !            |
|           WW  WW  A    A  R   R   N   NN  II  N   NN  G    G                |
|           W    W  A    A  R    R  N    N  II  N    N   GGGG   !!!           |
|                                                                             |
|     For optimal performance we recommend to set                             |
|       NCORE = 2 up to number-of-cores-per-socket                            |
|     NCORE specifies how many cores store one orbital (NPAR=cpu/NCORE).      |
|     This setting can greatly improve the performance of VASP for DFT.       |
|     The default, NCORE=1 might be grossly inefficient on modern             |
|     multi-core architectures or massively parallel machines. Do your        |
|     own testing! More info at https://www.vasp.at/wiki/index.php/NCORE      |
|     Unfortunately you need to use the default for GW and RPA                |
|     calculations (for HF NCORE is supported but not extensively tested      |
|     yet).                                                                   |
|                                                                             |
 -----------------------------------------------------------------------------

 POTCAR:    PAW_PBE Cu 22Jun2005                  
   VRHFIN =Cu: d10 p1                                                                               
   LEXCH  = PE                                                                                      
   EATOM  =  1390.9808 eV,  102.2342 Ry                                                             
                                                                                                    
   TITEL  = PAW_PBE Cu 22Jun2005                                                                    
   LULTRA =        F    use ultrasoft PP ?                                                          
   IUNSCR =        1    unscreen: 0-lin 1-nonlin 2-no                                               
   RPACOR =    2.000    partial core radius                                                         
   POMASS =   63.546; ZVAL   =   11.000    mass and valenz                                          
   RCORE  =    2.300    outmost cutoff radius                                                       
   RWIGS  =    2.200; RWIGS  =    1.164    wigner-seitz radius (au A)                               
   ENMAX  =  295.446; ENMIN  =  221.585 eV                                                          
   ICORE  =        3    local potential                                                             
   LCOR   =        T    correct aug charges                                                         
   LPAW   =        T    paw PP                                                                      
   EAUG   =  586.980                                                                                
   DEXC   =    0.000                                                                                
   RMAX   =    2.344    core radius for proj-oper                                                   
   RAUG   =    1.300    factor for augmentation sphere                                              
   RDEP   =    2.302    radius for radial grids                                                     
   RDEPT  =    1.771    core radius for aug-charge                                                  
                                                                                                    
   Atomic configuration                                                                             
    9 entries                                                                                       
     n  l   j            E        occ.                                                              
     1  0  0.50     -8850.2468   2.0000                                                             
     2  0  0.50     -1062.3498   2.0000                                                             
     2  1  1.50      -916.8226   6.0000                                                             
     3  0  0.50      -114.6929   2.0000                                                             
     3  1  1.50       -72.1325   6.0000                                                             
     3  2  2.50        -5.0394  10.0000                                                             
     4  0  0.50        -4.6097   1.0000                                                             
     4  1  0.50        -4.0817   0.0000                                                             
     4  3  2.50        -1.3606   0.0000                                                             
   Description                                                                                      
     l       E           TYP  RCUT    TYP  RCUT                                                     
     2     -5.0393973     23  2.200                                                                 
     2     10.8846608     23  2.200                                                                 
     0     -4.6097109     23  2.200                                                                 
     0      8.2520465     23  2.200                                                                 
     1     -2.7211652     23  2.200                                                                 
     1     21.7055443     23  2.200                                                                 
     3      2.7211652     23  2.300                                                                 
  local pseudopotential read in
  partial core-charges read in
  partial kinetic energy density read in
  atomic valenz-charges read in
  non local Contribution for L=           2  read in
    real space projection operators read in
  non local Contribution for L=           2  read in
    real space projection operators read in
  non local Contribution for L=           0  read in
    real space projection operators read in
  non local Contribution for L=           0  read in
    real space projection operators read in
  non local Contribution for L=           1  read in
    real space projection operators read in
  non local Contribution for L=           1  read in
    real space projection operators read in
    PAW grid and wavefunctions read in
 
   number of l-projection  operators is LMAX  =           6
   number of lm-projection operators is LMMAX =          18
 
 POTCAR:    PAW_PBE Cr 06Sep2000                  
   VRHFIN =Cr : d5 s1                                                                               
   LEXCH  = PE                                                                                      
   EATOM  =   276.8859 eV,   20.3505 Ry                                                             
                                                                                                    
   TITEL  = PAW_PBE Cr 06Sep2000                                                                    
   LULTRA =        F    use ultrasoft PP ?                                                          
   IUNSCR =        1    unscreen: 0-lin 1-nonlin 2-no                                               
   RPACOR =    2.080    partial core radius                                                         
   POMASS =   51.996; ZVAL   =    6.000    mass and valenz                                          
   RCORE  =    2.500    outmost cutoff radius                                                       
   RWIGS  =    2.500; RWIGS  =    1.323    wigner-seitz radius (au A)                               
   ENMAX  =  227.080; ENMIN  =  170.310 eV                                                          
   RCLOC  =    1.721    cutoff for local pot                                                        
   LCOR   =        T    correct aug charges                                                         
   LPAW   =        T    paw PP                                                                      
   EAUG   =  402.108                                                                                
   DEXC   =    0.000                                                                                
   RMAX   =    2.552    core radius for proj-oper                                                   
   RAUG   =    1.300    factor for augmentation sphere                                              
   RDEP   =    2.609    radius for radial grids                                                     
   RDEPT  =    2.065    core radius for aug-charge                                                  
                                                                                                    
   Atomic configuration                                                                             
    9 entries                                                                                       
     n  l   j            E        occ.                                                              
     1  0  0.50     -5880.4963   2.0000                                                             
     2  0  0.50      -667.0865   2.0000                                                             
     2  1  1.50      -560.6250   6.0000                                                             
     3  0  0.50       -73.9860   2.0000                                                             
     3  1  1.50       -45.4378   6.0000                                                             
     3  2  2.50        -2.9137   5.0000                                                             
     4  0  0.50        -4.0071   1.0000                                                             
     4  1  0.50        -1.2789   0.0000                                                             
     4  3  2.50        -1.3606   0.0000                                                             
   Description                                                                                      
     l       E           TYP  RCUT    TYP  RCUT                                                     
     2     -2.9136677     23  2.500                                                                 
     2     -4.2742503     23  2.500                                                                 
     0     -4.0071322     23  2.500                                                                 
     0      9.4498801     23  2.500                                                                 
     1     -5.4423304     23  2.500                                                                 
     1     27.2116520     23  2.500                                                                 
  local pseudopotential read in
  partial core-charges read in
  partial kinetic energy density read in
  atomic valenz-charges read in
  non local Contribution for L=           2  read in
    real space projection operators read in
  non local Contribution for L=           2  read in
    real space projection operators read in
  non local Contribution for L=           0  read in
    real space projection operators read in
  non local Contribution for L=           0  read in
    real space projection operators read in
  non local Contribution for L=           1  read in
    real space projection operators read in
  non local Contribution for L=           1  read in
    real space projection operators read in
    PAW grid and wavefunctions read in
 
   number of l-projection  operators is LMAX  =           6
   number of lm-projection operators is LMMAX =          18
 
 POTCAR:    PAW_PBE O 08Apr2002                   
   VRHFIN =O: s2p4                                                                                  
   LEXCH  = PE                                                                                      
   EATOM  =   432.3788 eV,   31.7789 Ry                                                             
                                                                                                    
   TITEL  = PAW_PBE O 08Apr2002                                                                     
   LULTRA =        F    use ultrasoft PP ?                                                          
   IUNSCR =        1    unscreen: 0-lin 1-nonlin 2-no                                               
   RPACOR =    1.200    partial core radius                                                         
   POMASS =   16.000; ZVAL   =    6.000    mass and valenz                                          
   RCORE  =    1.520    outmost cutoff radius                                                       
   RWIGS  =    1.550; RWIGS  =    0.820    wigner-seitz radius (au A)                               
   ENMAX  =  400.000; ENMIN  =  300.000 eV                                                          
   ICORE  =        2    local potential                                                             
   LCOR   =        T    correct aug charges                                                         
   LPAW   =        T    paw PP                                                                      
   EAUG   =  605.392                                                                                
   DEXC   =    0.000                                                                                
   RMAX   =    1.553    core radius for proj-oper                                                   
   RAUG   =    1.300    factor for augmentation sphere                                              
   RDEP   =    1.550    radius for radial grids                                                     
   RDEPT  =    1.329    core radius for aug-charge                                                  
                                                                                                    
   Atomic configuration                                                                             
    4 entries                                                                                       
     n  l   j            E        occ.                                                              
     1  0  0.50      -514.6923   2.0000                                                             
     2  0  0.50       -23.9615   2.0000                                                             
     2  1  0.50        -9.0305   4.0000                                                             
     3  2  1.50        -9.5241   0.0000                                                             
   Description                                                                                      
     l       E           TYP  RCUT    TYP  RCUT                                                     
     0    -23.9615318     23  1.200                                                                 
     0     -9.5240782     23  1.200                                                                 
     1     -9.0304911     23  1.520                                                                 
     1      8.1634956     23  1.520                                                                 
     2     -9.5240782      7  1.500                                                                 
  local pseudopotential read in
  partial core-charges read in
  partial kinetic energy density read in
  kinetic energy density of atom read in
  atomic valenz-charges read in
  non local Contribution for L=           0  read in
    real space projection operators read in
  non local Contribution for L=           0  read in
    real space projection operators read in
  non local Contribution for L=           1  read in
    real space projection operators read in
  non local Contribution for L=           1  read in
    real space projection operators read in
    PAW grid and wavefunctions read in
 
   number of l-projection  operators is LMAX  =           4
   number of lm-projection operators is LMMAX =           8
 
 POTCAR:    PAW_PBE H 15Jun2001                   
   VRHFIN =H: ultrasoft test                                                                        
   LEXCH  = PE                                                                                      
   EATOM  =    12.4884 eV,    0.9179 Ry                                                             
                                                                                                    
   TITEL  = PAW_PBE H 15Jun2001                                                                     
   LULTRA =        F    use ultrasoft PP ?                                                          
   IUNSCR =        0    unscreen: 0-lin 1-nonlin 2-no                                               
   RPACOR =    0.000    partial core radius                                                         
   POMASS =    1.000; ZVAL   =    1.000    mass and valenz                                          
   RCORE  =    1.100    outmost cutoff radius                                                       
   RWIGS  =    0.700; RWIGS  =    0.370    wigner-seitz radius (au A)                               
   ENMAX  =  250.000; ENMIN  =  200.000 eV                                                          
   RCLOC  =    0.701    cutoff for local pot                                                        
   LCOR   =        T    correct aug charges                                                         
   LPAW   =        T    paw PP                                                                      
   EAUG   =  400.000                                                                                
   RMAX   =    1.123    core radius for proj-oper                                                   
   RAUG   =    1.200    factor for augmentation sphere                                              
   RDEP   =    1.112    radius for radial grids                                                     
   RDEPT  =    0.926    core radius for aug-charge                                                  
                                                                                                    
   Atomic configuration                                                                             
    2 entries                                                                                       
     n  l   j            E        occ.                                                              
     1  0  0.50        -6.4927   1.0000                                                             
     2  1  0.50        -3.4015   0.0000                                                             
   Description                                                                                      
     l       E           TYP  RCUT    TYP  RCUT                                                     
     0     -6.4927494     23  1.100                                                                 
     0      6.8029130     23  1.100                                                                 
     1     -4.0817478     23  1.100                                                                 
  local pseudopotential read in
  atomic valenz-charges read in
  non local Contribution for L=           0  read in
    real space projection operators read in
  non local Contribution for L=           0  read in
    real space projection operators read in
  non local Contribution for L=           1  read in
    real space projection operators read in
    PAW grid and wavefunctions read in
 
   number of l-projection  operators is LMAX  =           3
   number of lm-projection operators is LMMAX =           5
 
 Optimization of the real space projectors (new method)

 maximal supplied QI-value         = 16.25
 optimisation between [QCUT,QGAM] = [ 11.38, 22.75] = [ 36.24,144.96] Ry 
 Optimized for a Real-space Cutoff    1.52 Angstroem

   l    n(q)    QCUT    max X(q) W(low)/X(q) W(high)/X(q)  e(spline) 
   2      9    11.376     4.610    0.21E-03    0.10E-03    0.26E-06
   2      9    11.376     8.522    0.33E-03    0.16E-03    0.37E-06
   0     10    11.376    51.609    0.62E-04    0.20E-04    0.13E-06
   0     10    11.376    27.747    0.54E-04    0.20E-04    0.13E-06
   1     10    11.376    20.408    0.13E-04    0.99E-04    0.19E-06
   1     10    11.376    13.425    0.12E-04    0.87E-04    0.17E-06
 Optimization of the real space projectors (new method)

 maximal supplied QI-value         = 15.12
 optimisation between [QCUT,QGAM] = [ 11.34, 22.83] = [ 36.00,145.93] Ry 
 Optimized for a Real-space Cutoff    1.43 Angstroem

   l    n(q)    QCUT    max X(q) W(low)/X(q) W(high)/X(q)  e(spline) 
   2      9    11.338    94.395    0.18E-03    0.10E-02    0.64E-06
   2      9    11.338    88.078    0.18E-03    0.10E-02    0.65E-06
   0     10    11.338    50.173    0.13E-03    0.16E-03    0.96E-07
   0     10    11.338    24.906    0.12E-03    0.14E-03    0.88E-07
   1      9    11.338    12.133    0.13E-03    0.15E-03    0.24E-06
   1      9    11.338     7.290    0.10E-03    0.10E-03    0.18E-06
 Optimization of the real space projectors (new method)

 maximal supplied QI-value         = 24.76
 optimisation between [QCUT,QGAM] = [ 11.39, 22.77] = [ 36.31,145.25] Ry 
 Optimized for a Real-space Cutoff    1.00 Angstroem

   l    n(q)    QCUT    max X(q) W(low)/X(q) W(high)/X(q)  e(spline) 
   0      7    11.387    20.381    0.39E-03    0.13E-02    0.15E-06
   0      7    11.387    15.268    0.42E-03    0.14E-02    0.17E-06
   1      6    11.387     5.964    0.41E-03    0.11E-02    0.17E-06
   1      6    11.387     5.382    0.39E-03    0.87E-03    0.15E-06
 Optimization of the real space projectors (new method)

 maximal supplied QI-value         = 34.20
 optimisation between [QCUT,QGAM] = [ 11.29, 22.57] = [ 35.68,142.71] Ry 
 Optimized for a Real-space Cutoff    1.16 Angstroem

   l    n(q)    QCUT    max X(q) W(low)/X(q) W(high)/X(q)  e(spline) 
   0      8    11.287    19.460    0.40E-03    0.73E-03    0.16E-06
   0      8    11.287    12.209    0.38E-03    0.70E-03    0.15E-06
   1      7    11.287     4.655    0.22E-03    0.25E-04    0.22E-06
  PAW_PBE Cu 22Jun2005                  :
 energy of atom  1       EATOM=-1390.9808
 kinetic energy error for atom=    0.0043 (will be added to EATOM!!)
  PAW_PBE Cr 06Sep2000                  :
 energy of atom  2       EATOM= -276.8859
 kinetic energy error for atom=    0.0012 (will be added to EATOM!!)
  PAW_PBE O 08Apr2002                   :
 energy of atom  3       EATOM= -432.3788
 kinetic energy error for atom=    0.0224 (will be added to EATOM!!)
  PAW_PBE H 15Jun2001                   :
 energy of atom  4       EATOM=  -12.4884
 kinetic energy error for atom=    0.0020 (will be added to EATOM!!)
 
 
 POSCAR: Cu-Cr-OH
  positions in direct lattice
  velocities in cartesian coordinates
 exchange correlation table for  LEXCH =        8
   RHO(1)=    0.500       N(1)  =     2000
   RHO(2)=  100.500       N(2)  =     4000

 VTST: version 3.2, (02/03/18)

 CHAIN: initializing optimizer
 
 OPT: Using VASP Conjugate-Gradient optimizer
 CHAIN: Read ICHAIN            0
 
 POSCAR: Cu-Cr-OH
  positions in direct lattice
  velocities in cartesian coordinates
 


--------------------------------------------------------------------------------------------------------


 ion  position               nearest neighbor table
   1  0.000  0.000  0.252-   7 2.57   3 2.57   4 2.57   2 2.57   6 2.57   8 2.57  12 2.57  10 2.57
                            16 2.57
   2  0.333  0.000  0.252-   8 2.57   9 2.57   5 2.57   1 2.57   3 2.57  11 2.57   4 2.57  10 2.57
                            17 2.57
   3  0.667  0.000  0.252-   1 2.57   7 2.57   6 2.57   9 2.57   2 2.57  12 2.57   5 2.57  18 2.57
                            11 2.57
   4  0.000  0.333  0.252-   5 2.57   6 2.57   1 2.57   7 2.57   2 2.57  13 2.57   9 2.57  10 2.57
                            15 2.57
   5  0.333  0.333  0.252-   4 2.57   2 2.57   7 2.57  13 2.57   8 2.57   6 2.57   3 2.57  11 2.57
                            14 2.57
   6  0.667  0.333  0.252-   4 2.57   9 2.57  15 2.57   3 2.57   1 2.57   8 2.57  14 2.57   5 2.57
                            12 2.57
   7  0.000  0.667  0.252-   1 2.57   3 2.57  16 2.57  18 2.57   4 2.57   5 2.57   8 2.57   9 2.57
                            13 2.57
   8  0.333  0.667  0.252-   9 2.57   2 2.57  17 2.57   6 2.57   1 2.57   7 2.57   5 2.57  14 2.57
                            16 2.57
   9  0.667  0.667  0.252-   8 2.57   6 2.57   2 2.57  17 2.57   3 2.57   7 2.57   4 2.57  15 2.57
                            18 2.57
  10  0.111  0.111  0.351-  20 2.55  26 2.56  19 2.56  11 2.57  12 2.57  13 2.57   1 2.57   2 2.57
                             4 2.57  15 2.57  16 2.57  17 2.57
  11  0.444  0.111  0.351-  20 2.55  21 2.55  10 2.57  13 2.57   2 2.57  17 2.57  14 2.57  12 2.57
                             5 2.57   3 2.57  18 2.57  27 2.57
  12  0.778  0.111  0.351-  21 2.55  19 2.56  25 2.56  15 2.57  10 2.57  14 2.57  18 2.57   3 2.57
                             1 2.57  16 2.57  11 2.57   6 2.57
  13  0.111  0.444  0.351-  23 2.55  20 2.55  16 2.57  18 2.57  10 2.57  11 2.57  14 2.57   5 2.57
                             4 2.57   7 2.57  15 2.57  22 2.57
  14  0.444  0.444  0.351-  21 2.55  23 2.55  15 2.57  17 2.57  12 2.57  16 2.57  13 2.57  11 2.57
                             6 2.57   8 2.57   5 2.57  24 2.57
  15  0.778  0.444  0.351-  19 2.56  24 2.56  22 2.56  14 2.57  17 2.57  12 2.57   6 2.57  18 2.57
                            10 2.57   9 2.57  13 2.57   4 2.57
  16  0.111  0.778  0.351-  23 2.55  25 2.56  26 2.56  18 2.57  13 2.57   7 2.57  14 2.57  17 2.57
                            12 2.57  10 2.57   8 2.57   1 2.57
  17  0.444  0.778  0.351-  26 2.56  27 2.56  24 2.56  14 2.57  15 2.57   8 2.57   9 2.57  11 2.57
                            16 2.57  18 2.57  10 2.57   2 2.57
  18  0.778  0.778  0.351-  25 2.56  22 2.56  27 2.56  16 2.57  13 2.57   7 2.57  15 2.57  12 2.57
                            17 2.57   9 2.57   3 2.57  11 2.57
  19  0.889  0.222  0.449-  12 2.56  10 2.56  15 2.56  28 2.56  25 2.57  26 2.57  22 2.57  24 2.57
                            21 2.57  20 2.57  32 2.58  31 2.58
  20  0.222  0.222  0.448-  36 2.50  11 2.55  13 2.55  10 2.55  23 2.56  21 2.56  26 2.57  19 2.57
                            29 2.57  31 2.57  27 2.57  22 2.57
  21  0.555  0.222  0.448-  36 2.50  14 2.55  11 2.55  12 2.55  20 2.56  23 2.56  19 2.57  25 2.57
                            32 2.57  30 2.57  24 2.57  27 2.57
  22  0.888  0.556  0.449-  35 2.56  24 2.56  27 2.56  18 2.56  15 2.56  31 2.56  33 2.56  19 2.57
                            25 2.57  13 2.57  23 2.57  20 2.57
  23  0.222  0.555  0.448-  36 2.50  13 2.55  14 2.55  16 2.55  20 2.56  21 2.56  25 2.57  26 2.57
                            33 2.57  34 2.57  22 2.57  24 2.57
  24  0.556  0.556  0.449-  35 2.56  22 2.56  27 2.56  15 2.56  17 2.56  32 2.56  34 2.56  19 2.57
                            26 2.57  14 2.57  21 2.57  23 2.57
  25  0.889  0.889  0.449-  12 2.56  16 2.56  18 2.56  28 2.56  19 2.57  26 2.57  22 2.57  27 2.57
                            21 2.57  23 2.57  33 2.58  30 2.58
  26  0.222  0.889  0.449-  10 2.56  16 2.56  17 2.56  28 2.56  25 2.57  19 2.57  27 2.57  24 2.57
                            20 2.57  23 2.57  29 2.58  34 2.58
  27  0.556  0.888  0.449-  35 2.56  24 2.56  22 2.56  17 2.56  18 2.56  29 2.56  30 2.56  26 2.57
                            25 2.57  11 2.57  20 2.57  21 2.57
  28  0.000  0.000  0.547-  25 2.56  19 2.56  26 2.56  33 2.57  30 2.57  31 2.57  29 2.57  32 2.57
                            34 2.57
  29  0.333  0.002  0.547-  31 2.55  30 2.55  36 2.55  27 2.56  20 2.57  28 2.57  35 2.57  26 2.58
                            34 2.60
  30  0.665  0.002  0.547-  32 2.55  29 2.55  36 2.55  27 2.56  21 2.57  28 2.57  35 2.57  25 2.58
                            33 2.60
  31  0.002  0.333  0.547-  29 2.55  33 2.55  36 2.55  22 2.56  20 2.57  28 2.57  35 2.57  19 2.58
                            32 2.60
  32  0.665  0.333  0.547-  30 2.55  34 2.55  36 2.55  24 2.56  21 2.57  28 2.57  35 2.57  19 2.58
                            31 2.60
  33  0.002  0.665  0.547-  34 2.55  31 2.55  36 2.55  22 2.56  23 2.57  28 2.57  35 2.57  25 2.58
                            30 2.60
  34  0.333  0.665  0.547-  33 2.55  32 2.55  36 2.55  24 2.56  23 2.57  28 2.57  35 2.57  26 2.58
                            29 2.60
  35  0.667  0.667  0.547-  24 2.56  27 2.56  22 2.56  34 2.57  32 2.57  29 2.57  30 2.57  33 2.57
                            31 2.57
  36  0.333  0.333  0.543-  37 1.75  23 2.50  20 2.50  21 2.50  31 2.55  29 2.55  33 2.55  34 2.55
                            32 2.55  30 2.55
  37  0.333  0.333  0.625-  38 0.97  36 1.75
  38  0.333  0.333  0.671-  37 0.97
 
  LATTYP: Found a hexagonal cell.
 ALAT       =     7.6967864036
 C/A-ratio  =     2.7653617908
  
  Lattice vectors:
  
 A1 = (  -3.8483927580,  -6.6656128093,   0.0000000000)
 A2 = (   7.6967864037,   0.0000000000,   0.0000000000)
 A3 = (   0.0000000000,   0.0000000000,  21.2843990326)


Analysis of symmetry for initial positions (statically):
=====================================================================
 Subroutine PRICEL returns:
 Original cell was already a primitive cell.
 

 Routine SETGRP: Setting up the symmetry group for a 
 hexagonal supercell.


 Subroutine GETGRP returns: Found  6 space group operations
 (whereof  6 operations were pure point group operations)
 out of a pool of 24 trial point group operations.


The static configuration has the point symmetry C_3v.


Analysis of symmetry for dynamics (positions and initial velocities):
=====================================================================
 Subroutine PRICEL returns:
 Original cell was already a primitive cell.
 

 Routine SETGRP: Setting up the symmetry group for a 
 hexagonal supercell.


 Subroutine GETGRP returns: Found  6 space group operations
 (whereof  6 operations were pure point group operations)
 out of a pool of 24 trial point group operations.


The dynamic configuration has the point symmetry C_3v.


Analysis of constrained symmetry for selective dynamics:
=====================================================================
 Subroutine PRICEL returns:
 Original cell was already a primitive cell.
 

 Routine SETGRP: Setting up the symmetry group for a 
 hexagonal supercell.


 Subroutine GETGRP returns: Found  6 space group operations
 (whereof  6 operations were pure point group operations)
 out of a pool of 24 trial point group operations.


The constrained configuration has the point symmetry C_3v.


 Subroutine INISYM returns: Found  6 space group operations
 (whereof  6 operations are pure point group operations),
 and found     1 'primitive' translations


----------------------------------------------------------------------------------------

                                     Primitive cell                                     

  volume of cell :    1091.9705

  direct lattice vectors                    reciprocal lattice vectors
     7.696786404  0.000000000  0.000000000     0.129924354 -0.075011849  0.000000000
     3.848392758  6.665612809  0.000000000     0.000000000  0.150023716  0.000000000
     0.000000000  0.000000000 21.284399033     0.000000000  0.000000000  0.046982769

  length of vectors
     7.696786404  7.696786404 21.284399033     0.150023716  0.150023716  0.046982769

  position of ions in fractional coordinates (direct lattice)
     0.000000000  0.000000000  0.252370745
     0.333333343  0.000000000  0.252370745
     0.666666687  0.000000000  0.252370745
     1.000000000  0.333333343  0.252370745
     0.333333313  0.333333343  0.252370745
     0.666666687  0.333333343  0.252370745
     1.000000000  0.666666687  0.252370745
     0.333333373  0.666666687  0.252370745
     0.666666627  0.666666687  0.252370745
     0.111111119  0.111111112  0.350790262
     0.444444418  0.111111112  0.350790262
     0.777777791  0.111111112  0.350790262
     0.111111119  0.444444448  0.350790262
     0.444444478  0.444444448  0.350790262
     0.777777731  0.444444448  0.350790262
     0.111111112  0.777777731  0.350790262
     0.444444478  0.777777731  0.350790262
     0.777777851  0.777777731  0.350790262
     0.888897442  0.222205133  0.448768362
     0.222265583  0.222265568  0.448432901
     0.555468893  0.222265568  0.448432901
     0.888328893  0.555835524  0.449118745
     0.222265553  0.555468833  0.448432901
     0.555835584  0.555835524  0.449118745
     0.888897442  0.888897442  0.448768362
     0.222205148  0.888897442  0.448768362
     0.555835524  0.888328893  0.449118745
     0.000000000  0.000000000  0.546867683
     0.333215572  0.002074968  0.547367671
     0.664709491  0.002074968  0.547367671
     0.002074968  0.333215572  0.547367671
     0.664709491  0.333215572  0.547367671
     0.002074968  0.664709491  0.547367671
     0.333215602  0.664709491  0.547367671
     0.666666627  0.666666687  0.547114682
     0.333333313  0.333333343  0.542998502
     0.333333313  0.333333343  0.625339618
     0.333333313  0.333333343  0.670804786

  ion indices of the primitive-cell ions
   primitive index   ion index
                 1           1
                 2           2
                 3           3
                 4           4
                 5           5
                 6           6
                 7           7
                 8           8
                 9           9
                10          10
                11          11
                12          12
                13          13
                14          14
                15          15
                16          16
                17          17
                18          18
                19          19
                20          20
                21          21
                22          22
                23          23
                24          24
                25          25
                26          26
                27          27
                28          28
                29          29
                30          30
                31          31
                32          32
                33          33
                34          34
                35          35
                36          36
                37          37
                38          38

----------------------------------------------------------------------------------------

 
 
 KPOINTS: Automatic mesh                          

Automatic generation of k-mesh.
 Grid dimensions read from file:
 generate k-points for:    8    8    1

 Generating k-lattice:

  Cartesian coordinates                     Fractional coordinates (reciprocal lattice)
     0.016240544 -0.009376481  0.000000000     0.125000000 -0.000000000  0.000000000
     0.000000000  0.018752964  0.000000000     0.000000000  0.125000000  0.000000000
     0.000000000  0.000000000  0.046982769     0.000000000  0.000000000  1.000000000

  Length of vectors
     0.018752964  0.018752964  0.046982769

  Shift w.r.t. Gamma in fractional coordinates (k-lattice)
     0.000000000  0.000000000  0.000000000

 TETIRR: Found     36 inequivalent tetrahedra from      384
 
 Subroutine IBZKPT returns following result:
 ===========================================
 
 Found     10 irreducible k-points:
 
 Following reciprocal coordinates:
            Coordinates               Weight
  0.000000  0.000000  0.000000      1.000000
  0.125000 -0.000000  0.000000      6.000000
  0.250000 -0.000000  0.000000      6.000000
  0.375000 -0.000000  0.000000      6.000000
  0.500000 -0.000000  0.000000      3.000000
  0.250000  0.125000  0.000000      6.000000
  0.375000  0.125000  0.000000     12.000000
  0.500000  0.125000  0.000000     12.000000
  0.500000  0.250000  0.000000      6.000000
 -0.375000  0.250000  0.000000      6.000000
 
 Following cartesian coordinates:
            Coordinates               Weight
  0.000000  0.000000  0.000000      1.000000
  0.016241 -0.009376  0.000000      6.000000
  0.032481 -0.018753  0.000000      6.000000
  0.048722 -0.028129  0.000000      6.000000
  0.064962 -0.037506  0.000000      3.000000
  0.032481  0.000000  0.000000      6.000000
  0.048722 -0.009376  0.000000     12.000000
  0.064962 -0.018753  0.000000     12.000000
  0.064962  0.000000  0.000000      6.000000
 -0.048722  0.065635  0.000000      6.000000
 


--------------------------------------------------------------------------------------------------------




 Dimension of arrays:
   k-points           NKPTS =     10   k-points in BZ     NKDIM =     10   number of bands    NBANDS=    252
   number of dos      NEDOS =    301   number of ions     NIONS =     38
   non local maximal  LDIM  =      6   non local SUM 2l+1 LMDIM =     18
   total plane-waves  NPLWV = 211680
   max r-space proj   IRMAX =   2893   max aug-charges    IRDMAX=  10101
   dimension x,y,z NGX =    42 NGY =   42 NGZ =  120
   dimension x,y,z NGXF=    84 NGYF=   84 NGZF=  240
   support grid    NGXF=    84 NGYF=   84 NGZF=  240
   ions per type =              35   1   1   1
   NGX,Y,Z   is equivalent  to a cutoff of   9.07,  9.07,  9.37 a.u.
   NGXF,Y,Z  is equivalent  to a cutoff of  18.14, 18.14, 18.75 a.u.

 SYSTEM =  unknown system                          
 POSCAR =  Cu-Cr-OH                                

 Startparameter for this run:
   NWRITE =      2    write-flag & timer
   PREC   = normal    normal or accurate (medium, high low for compatibility)
   ISTART =      0    job   : 0-new  1-cont  2-samecut
   ICHARG =     11    charge: 1-file 2-atom 10-const
   ISPIN  =      1    spin polarized calculation?
   LNONCOLLINEAR =      F non collinear calculations
   LSORBIT =      F    spin-orbit coupling
   INIWAV =      1    electr: 0-lowe 1-rand  2-diag
   LASPH  =      F    aspherical Exc in radial PAW
   METAGGA=      F    non-selfconsistent MetaGGA calc.

 Electronic Relaxation 1
   ENCUT  =  500.0 eV  36.75 Ry    6.06 a.u.  14.03 14.03 38.81*2*pi/ulx,y,z
   ENINI  =  500.0     initial cutoff
   ENAUG  =  605.4 eV  augmentation charge cutoff
   NELM   =    150;   NELMIN=  2; NELMDL= -5     # of ELM steps 
   EDIFF  = 0.1E-04   stopping-criterion for ELM
   LREAL  =      T    real-space projection
   NLSPLINE    = F    spline interpolate recip. space projectors
   LCOMPAT=      F    compatible to vasp.4.4
   GGA_COMPAT  = T    GGA compatible to vasp.4.4-vasp.4.6
   LMAXPAW     = -100 max onsite density
   LMAXMIX     =    2 max onsite mixed and CHGCAR
   VOSKOWN=      0    Vosko Wilk Nusair interpolation
   ROPT   =   -0.00050  -0.00050  -0.00050  -0.00050
 Ionic relaxation
   EDIFFG = -.1E-01   stopping-criterion for IOM
   NSW    =      0    number of steps for IOM
   NBLOCK =      1;   KBLOCK =      1    inner block; outer block 
   IBRION =     -1    ionic relax: 0-MD 1-quasi-New 2-CG
   NFREE  =      1    steps in history (QN), initial steepest desc. (CG)
   ISIF   =      2    stress and relaxation
   IWAVPR =     10    prediction:  0-non 1-charg 2-wave 3-comb
   ISYM   =      2    0-nonsym 1-usesym 2-fastsym
   LCORR  =      T    Harris-Foulkes like correction to forces

   POTIM  = 0.5000    time-step for ionic-motion
   TEIN   =    0.0    initial temperature
   TEBEG  =    0.0;   TEEND  =   0.0 temperature during run
   SMASS  =  -3.00    Nose mass-parameter (am)
   estimated Nose-frequenzy (Omega)   =  0.10E-29 period in steps = 0.13E+47 mass=  -0.135E-26a.u.
   SCALEE = 1.0000    scale energy and forces
   NPACO  =    256;   APACO  = 16.0  distance and # of slots for P.C.
   PSTRESS=    0.0 pullay stress

  Mass of Ions in am
   POMASS =  63.55 52.00 16.00  1.00
  Ionic Valenz
   ZVAL   =  11.00  6.00  6.00  1.00
  Atomic Wigner-Seitz radii
   RWIGS  =  -1.00 -1.00 -1.00 -1.00
  virtual crystal weights 
   VCA    =   1.00  1.00  1.00  1.00
   NELECT =     398.0000    total number of electrons
   NUPDOWN=      -1.0000    fix difference up-down

 DOS related values:
   EMIN   =  10.00;   EMAX   =-10.00  energy-range for DOS
   EFERMI =   0.00
   ISMEAR =    -5;   SIGMA  =   0.10  broadening in eV -4-tet -1-fermi 0-gaus

 Electronic relaxation 2 (details)
   IALGO  =     68    algorithm
   LDIAG  =      T    sub-space diagonalisation (order eigenvalues)
   LSUBROT=      F    optimize rotation matrix (better conditioning)
   TURBO    =      0    0=normal 1=particle mesh
   IRESTART =      0    0=no restart 2=restart with 2 vectors
   NREBOOT  =      0    no. of reboots
   NMIN     =      0    reboot dimension
   EREF     =   0.00    reference energy to select bands
   IMIX   =      4    mixing-type and parameters
     AMIX     =   0.40;   BMIX     =  1.00
     AMIX_MAG =   1.60;   BMIX_MAG =  1.00
     AMIN     =   0.10
     WC   =   100.;   INIMIX=   1;  MIXPRE=   1;  MAXMIX= -45

 Intra band minimization:
   WEIMIN = 0.0000     energy-eigenvalue tresh-hold
   EBREAK =  0.99E-08  absolut break condition
   DEPER  =   0.30     relativ break condition  

   TIME   =   0.40     timestep for ELM

  volume/ion in A,a.u.               =      28.74       193.92
  Fermi-wavevector in a.u.,A,eV,Ry     =   1.169407  2.209858 18.606129  1.367512
  Thomas-Fermi vector in A             =   2.305880
 
 Write flags
   LWAVE        =      F    write WAVECAR
   LDOWNSAMPLE  =      F    k-point downsampling of WAVECAR
   LCHARG       =      F    write CHGCAR
   LVTOT        =      F    write LOCPOT, total local potential
   LVHAR        =      F    write LOCPOT, Hartree potential only
   LELF         =      F    write electronic localiz. function (ELF)
   LORBIT       =     10    0 simple, 1 ext, 2 COOP (PROOUT), +10 PAW based schemes


 Dipole corrections
   LMONO  =      F    monopole corrections only (constant potential shift)
   LDIPOL =      F    correct potential (dipole corrections)
   IDIPOL =      0    1-x, 2-y, 3-z, 4-all directions 
   EPSILON=  1.0000000 bulk dielectric constant

 Exchange correlation treatment:
   GGA     =    --    GGA type
   LEXCH   =     8    internal setting for exchange type
   VOSKOWN=      0    Vosko Wilk Nusair interpolation
   LHFCALC =     F    Hartree Fock is set to
   LHFONE  =     F    Hartree Fock one center treatment
   AEXX    =    0.0000 exact exchange contribution

 Linear response parameters
   LEPSILON=     F    determine dielectric tensor
   LRPA    =     F    only Hartree local field effects (RPA)
   LNABLA  =     F    use nabla operator in PAW spheres
   LVEL    =     F    velocity operator in full k-point grid
   LINTERFAST=   F  fast interpolation
   KINTER  =     0    interpolate to denser k-point grid
   CSHIFT  =0.1000    complex shift for real part using Kramers Kronig
   OMEGAMAX=  -1.0    maximum frequency
   DEG_THRESHOLD= 0.2000000E-02 threshold for treating states as degnerate
   RTIME   =   -0.100 relaxation time in fs
  (WPLASMAI=    0.000 imaginary part of plasma frequency in eV, 0.658/RTIME)
   DFIELD  = 0.0000000 0.0000000 0.0000000 field for delta impulse in time
 
 Orbital magnetization related:
   ORBITALMAG=     F  switch on orbital magnetization
   LCHIMAG   =     F  perturbation theory with respect to B field
   DQ        =  0.001000  dq finite difference perturbation B field
   LLRAUG    =     F  two centre corrections for induced B field



--------------------------------------------------------------------------------------------------------


 Static calculation
 charge density and potential remain constant during run
 non-spin polarized calculation
 RMM-DIIS sequential band-by-band and
  variant of blocked Davidson during initial phase
 perform sub-space diagonalisation
    before iterative eigenvector-optimisation
 no mixing
 using additional bands           53
 real space projection scheme for non local part
 use partial core corrections
 calculate Harris-corrections to forces 
   (improved forces if not selfconsistent)
 use gradient corrections 
 WARNING: stress and forces are not correct
  (second derivative of E(xc) not defined)
 use of overlap-Matrix (Vanderbilt PP)
 Fermi weights with tetrahedron method with Bloechl corrections


--------------------------------------------------------------------------------------------------------


  energy-cutoff  :      500.00
  volume of cell :     1091.97
      direct lattice vectors                 reciprocal lattice vectors
     7.696786404  0.000000000  0.000000000     0.129924354 -0.075011849  0.000000000
     3.848392758  6.665612809  0.000000000     0.000000000  0.150023716  0.000000000
     0.000000000  0.000000000 21.284399033     0.000000000  0.000000000  0.046982769

  length of vectors
     7.696786404  7.696786404 21.284399033     0.150023716  0.150023716  0.046982769


 
 k-points in units of 2pi/SCALE and weight: Automatic mesh                          
   0.00000000  0.00000000  0.00000000       0.016
   0.01624054 -0.00937648  0.00000000       0.094
   0.03248109 -0.01875296  0.00000000       0.094
   0.04872163 -0.02812944  0.00000000       0.094
   0.06496218 -0.03750592  0.00000000       0.047
   0.03248109  0.00000000  0.00000000       0.094
   0.04872163 -0.00937648  0.00000000       0.188
   0.06496218 -0.01875296  0.00000000       0.188
   0.06496218  0.00000000  0.00000000       0.094
  -0.04872163  0.06563537  0.00000000       0.094
 
 k-points in reciprocal lattice and weights: Automatic mesh                          
   0.00000000  0.00000000  0.00000000       0.016
   0.12500000 -0.00000000  0.00000000       0.094
   0.25000000 -0.00000000  0.00000000       0.094
   0.37500000 -0.00000000  0.00000000       0.094
   0.50000000 -0.00000000  0.00000000       0.047
   0.25000000  0.12500000  0.00000000       0.094
   0.37500000  0.12500000  0.00000000       0.188
   0.50000000  0.12500000  0.00000000       0.188
   0.50000000  0.25000000  0.00000000       0.094
  -0.37500000  0.25000000  0.00000000       0.094
 
 position of ions in fractional coordinates (direct lattice) 
   0.00000000  0.00000000  0.25237075
   0.33333334  0.00000000  0.25237075
   0.66666669  0.00000000  0.25237075
   0.00000000  0.33333334  0.25237075
   0.33333331  0.33333334  0.25237075
   0.66666669  0.33333334  0.25237075
   0.00000000  0.66666669  0.25237075
   0.33333337  0.66666669  0.25237075
   0.66666663  0.66666669  0.25237075
   0.11111112  0.11111111  0.35079026
   0.44444442  0.11111111  0.35079026
   0.77777779  0.11111111  0.35079026
   0.11111112  0.44444445  0.35079026
   0.44444448  0.44444445  0.35079026
   0.77777773  0.44444445  0.35079026
   0.11111111  0.77777773  0.35079026
   0.44444448  0.77777773  0.35079026
   0.77777785  0.77777773  0.35079026
   0.88889744  0.22220513  0.44876836
   0.22226558  0.22226557  0.44843290
   0.55546889  0.22226557  0.44843290
   0.88832889  0.55583552  0.44911874
   0.22226555  0.55546883  0.44843290
   0.55583558  0.55583552  0.44911874
   0.88889744  0.88889744  0.44876836
   0.22220515  0.88889744  0.44876836
   0.55583552  0.88832889  0.44911874
   0.00000000  0.00000000  0.54686768
   0.33321557  0.00207497  0.54736767
   0.66470949  0.00207497  0.54736767
   0.00207497  0.33321557  0.54736767
   0.66470949  0.33321557  0.54736767
   0.00207497  0.66470949  0.54736767
   0.33321560  0.66470949  0.54736767
   0.66666663  0.66666669  0.54711468
   0.33333331  0.33333334  0.54299850
   0.33333331  0.33333334  0.62533962
   0.33333331  0.33333334  0.67080479
 
 position of ions in cartesian coordinates  (Angst):
   0.00000000  0.00000000  5.37155964
   2.56559554  0.00000000  5.37155964
   5.13119109  0.00000000  5.37155964
   1.28279762  2.22187100  5.37155964
   3.84839293  2.22187100  5.37155964
   6.41398872  2.22187100  5.37155964
   2.56559525  4.44374201  5.37155964
   5.13119102  4.44374201  5.37155964
   7.69678588  4.44374201  5.37155964
   1.28279775  0.74062365  7.46635991
   3.84839295  0.74062365  7.46635991
   6.41398873  0.74062365  7.46635991
   2.56559535  2.96249461  7.46635991
   5.13119101  2.96249461  7.46635991
   7.69678586  2.96249461  7.46635991
   3.84839268  5.18436521  7.46635991
   6.41398840  5.18436521  7.46635991
   8.97958418  5.18436521  7.46635991
   7.69678637  1.48113338  9.55176490
   2.56609593  1.48153622  9.54462481
   5.13069063  1.48153622  9.54462481
   8.97635115  3.70498439  9.55922258
   3.84839272  3.70254017  9.54462481
   6.41722117  3.70498439  9.55922258
  10.26248022  5.92504617  9.55176490
   5.13109204  5.92504617  9.55176490
   7.69678578  5.92125645  9.55922258
   0.00000000  0.00000000 11.63974998
   2.57267437  0.01383093 11.65039194
   5.12411226  0.01383093 11.65039194
   1.29831497  2.22108598 11.65039194
   6.39847136  2.22108598 11.65039194
   2.57403377  4.43069610 11.65039194
   5.12275250  4.43069610 11.65039194
   7.69678588  4.44374201 11.64500721
   3.84839293  2.22187100 11.55739679
   3.84839293  2.22187100 13.30997797
   3.84839293  2.22187100 14.27767674
 


--------------------------------------------------------------------------------------------------------


 k-point   1 :   0.0000 0.0000 0.0000  plane waves:   27671
 k-point   2 :   0.1250-0.0000 0.0000  plane waves:   27649
 k-point   3 :   0.2500-0.0000 0.0000  plane waves:   27714
 k-point   4 :   0.3750-0.0000 0.0000  plane waves:   27740
 k-point   5 :   0.5000-0.0000 0.0000  plane waves:   27782
 k-point   6 :   0.2500 0.1250 0.0000  plane waves:   27698
 k-point   7 :   0.3750 0.1250 0.0000  plane waves:   27702
 k-point   8 :   0.5000 0.1250 0.0000  plane waves:   27747
 k-point   9 :   0.5000 0.2500 0.0000  plane waves:   27734
 k-point  10 :  -0.3750 0.2500 0.0000  plane waves:   27782

 maximum and minimum number of plane-waves per node :     27782    27649

 maximum number of plane-waves:     27782
 maximum index in each direction: 
   IXMAX=   14   IYMAX=   14   IZMAX=   38
   IXMIN=  -14   IYMIN=  -14   IZMIN=  -38


 serial   3D FFT for wavefunctions
 parallel 3D FFT for charge:
    minimum data exchange during FFTs selected (reduces bandwidth)


 total amount of memory used by VASP MPI-rank0   105043. kBytes
=======================================================================

   base      :      30000. kBytes
   nonlr-proj:      17654. kBytes
   fftplans  :       2916. kBytes
   grid      :      12878. kBytes
   one-center:        590. kBytes
   wavefun   :      41005. kBytes
 
     INWAV:  cpu time    0.0000: real time    0.0000
 initial charge density was supplied:
 number of electron     398.0000147 magnetization 
 keeping initial charge density in first step


--------------------------------------------------------------------------------------------------------


 Maximum index for non-local projection operator         2775
 Maximum index for augmentation-charges          504 (set IRDMAX)


--------------------------------------------------------------------------------------------------------


 First call to EWALD:  gamma=   0.172
 Maximum number of real-space cells 4x 4x 2
 Maximum number of reciprocal cells 2x 2x 5

    FEWALD:  cpu time    0.0013: real time    0.0014


--------------------------------------- Iteration      1(   1)  ---------------------------------------


    POTLOK:  cpu time    0.0269: real time    0.0273
    SETDIJ:  cpu time    0.0043: real time    0.0044
     EDDAV:  cpu time    5.7461: real time    5.7491
 BZINTS: Fermi energy:   13.602906;  398.000000 electrons
         Band energy: 0.268579E+04;  BLOECHL correction:   -0.016037
       DOS:  cpu time    0.0110: real time    0.0111
    --------------------------------------------
      LOOP:  cpu time    5.7884: real time    5.7919

 eigenvalue-minimisations  :  5040
 total energy-change (2. order) : 0.3562238E+04  (-0.1699718E+05)
 number of electron     398.0000147 magnetization 
 augmentation part      398.0000147 magnetization 

 Free energy of the ion-electron system (eV)
  ---------------------------------------------------
  alpha Z        PSCENC =       882.56031311
  Ewald energy   TEWEN  =    145825.32002989
  -Hartree energ DENC   =   -193056.12432693
  -exchange      EXHF   =         0.00000000
  -V(xc)+E(xc)   XCENC  =      1569.32262457
  PAW double counting   =     46568.51355818   -50319.05045284
  entropy T*S    EENTRO =         0.00000000
  eigenvalues    EBANDS =      2685.78999396
  atomic energy  EATOM  =     49405.90664065
  Solvation  Ediel_sol  =         0.00000000
  ---------------------------------------------------
  free energy    TOTEN  =      3562.23838059 eV

  energy without entropy =     3562.23838059  energy(sigma->0) =     3562.23838059


--------------------------------------------------------------------------------------------------------




--------------------------------------- Iteration      1(   2)  ---------------------------------------


     EDDAV:  cpu time    5.7150: real time    5.7167
 BZINTS: Fermi energy:    3.156475;  398.000000 electrons
         Band energy:-0.535032E+03;  BLOECHL correction:   -0.023509
       DOS:  cpu time    0.0103: real time    0.0103
    --------------------------------------------
      LOOP:  cpu time    5.7252: real time    5.7270

 eigenvalue-minimisations  :  5040
 total energy-change (2. order) :-0.3220822E+04  (-0.3093714E+04)
 number of electron     398.0000147 magnetization 
 augmentation part      398.0000147 magnetization 

 Free energy of the ion-electron system (eV)
  ---------------------------------------------------
  alpha Z        PSCENC =       882.56031311
  Ewald energy   TEWEN  =    145825.32002989
  -Hartree energ DENC   =   -193056.12432693
  -exchange      EXHF   =         0.00000000
  -V(xc)+E(xc)   XCENC  =      1569.32262457
  PAW double counting   =     46568.51355818   -50319.05045284
  entropy T*S    EENTRO =         0.00000000
  eigenvalues    EBANDS =      -535.03173768
  atomic energy  EATOM  =     49405.90664065
  Solvation  Ediel_sol  =         0.00000000
  ---------------------------------------------------
  free energy    TOTEN  =       341.41664895 eV

  energy without entropy =      341.41664895  energy(sigma->0) =      341.41664895


--------------------------------------------------------------------------------------------------------




--------------------------------------- Iteration      1(   3)  ---------------------------------------


     EDDAV:  cpu time    6.6653: real time    6.6673
 BZINTS: Fermi energy:    0.519441;  398.000000 electrons
         Band energy:-0.987431E+03;  BLOECHL correction:   -0.034181
       DOS:  cpu time    0.0100: real time    0.0100
    --------------------------------------------
      LOOP:  cpu time    6.6753: real time    6.6773

 eigenvalue-minimisations  :  6076
 total energy-change (2. order) :-0.4523992E+03  (-0.4212988E+03)
 number of electron     398.0000147 magnetization 
 augmentation part      398.0000147 magnetization 

 Free energy of the ion-electron system (eV)
  ---------------------------------------------------
  alpha Z        PSCENC =       882.56031311
  Ewald energy   TEWEN  =    145825.32002989
  -Hartree energ DENC   =   -193056.12432693
  -exchange      EXHF   =         0.00000000
  -V(xc)+E(xc)   XCENC  =      1569.32262457
  PAW double counting   =     46568.51355818   -50319.05045284
  entropy T*S    EENTRO =         0.00000000
  eigenvalues    EBANDS =      -987.43090824
  atomic energy  EATOM  =     49405.90664065
  Solvation  Ediel_sol  =         0.00000000
  ---------------------------------------------------
  free energy    TOTEN  =      -110.98252161 eV

  energy without entropy =     -110.98252161  energy(sigma->0) =     -110.98252161


--------------------------------------------------------------------------------------------------------




--------------------------------------- Iteration      1(   4)  ---------------------------------------


     EDDAV:  cpu time    7.8154: real time    7.8176
 BZINTS: Fermi energy:    0.404802;  398.000000 electrons
         Band energy:-0.101674E+04;  BLOECHL correction:   -0.028413
       DOS:  cpu time    0.0100: real time    0.0100
    --------------------------------------------
      LOOP:  cpu time    7.8254: real time    7.8276

 eigenvalue-minimisations  :  7336
 total energy-change (2. order) :-0.2930976E+02  (-0.2820956E+02)
 number of electron     398.0000147 magnetization 
 augmentation part      398.0000147 magnetization 

 Free energy of the ion-electron system (eV)
  ---------------------------------------------------
  alpha Z        PSCENC =       882.56031311
  Ewald energy   TEWEN  =    145825.32002989
  -Hartree energ DENC   =   -193056.12432693
  -exchange      EXHF   =         0.00000000
  -V(xc)+E(xc)   XCENC  =      1569.32262457
  PAW double counting   =     46568.51355818   -50319.05045284
  entropy T*S    EENTRO =         0.00000000
  eigenvalues    EBANDS =     -1016.74067122
  atomic energy  EATOM  =     49405.90664065
  Solvation  Ediel_sol  =         0.00000000
  ---------------------------------------------------
  free energy    TOTEN  =      -140.29228460 eV

  energy without entropy =     -140.29228460  energy(sigma->0) =     -140.29228460


--------------------------------------------------------------------------------------------------------




--------------------------------------- Iteration      1(   5)  ---------------------------------------


     EDDAV:  cpu time    6.2884: real time    6.2902
 BZINTS: Fermi energy:    0.400708;  398.000000 electrons
         Band energy:-0.101727E+04;  BLOECHL correction:   -0.027966
       DOS:  cpu time    0.0103: real time    0.0103
    --------------------------------------------
      LOOP:  cpu time    6.2987: real time    6.3006

 eigenvalue-minimisations  :  5656
 total energy-change (2. order) :-0.5283376E+00  (-0.5273002E+00)
 number of electron     398.0000147 magnetization 
 augmentation part      398.0000147 magnetization 

 Free energy of the ion-electron system (eV)
  ---------------------------------------------------
  alpha Z        PSCENC =       882.56031311
  Ewald energy   TEWEN  =    145825.32002989
  -Hartree energ DENC   =   -193056.12432693
  -exchange      EXHF   =         0.00000000
  -V(xc)+E(xc)   XCENC  =      1569.32262457
  PAW double counting   =     46568.51355818   -50319.05045284
  entropy T*S    EENTRO =         0.00000000
  eigenvalues    EBANDS =     -1017.26900881
  atomic energy  EATOM  =     49405.90664065
  Solvation  Ediel_sol  =         0.00000000
  ---------------------------------------------------
  free energy    TOTEN  =      -140.82062218 eV

  energy without entropy =     -140.82062218  energy(sigma->0) =     -140.82062218


--------------------------------------------------------------------------------------------------------




--------------------------------------- Iteration      1(   6)  ---------------------------------------


    EDDIAG:  cpu time    1.0606: real time    1.0610
  RMM-DIIS:  cpu time    3.0789: real time    3.0798
    ORTHCH:  cpu time    0.2085: real time    0.2085
 BZINTS: Fermi energy:    0.400656;  398.000000 electrons
         Band energy:-0.101728E+04;  BLOECHL correction:   -0.027966
       DOS:  cpu time    0.0101: real time    0.0101
    --------------------------------------------
      LOOP:  cpu time    4.3581: real time    4.3594

 eigenvalue-minimisations  :  5372
 total energy-change (2. order) :-0.9363392E-02  (-0.9361098E-02)
 number of electron     398.0000147 magnetization 
 augmentation part      398.0000147 magnetization 

 Free energy of the ion-electron system (eV)
  ---------------------------------------------------
  alpha Z        PSCENC =       882.56031311
  Ewald energy   TEWEN  =    145825.32002989
  -Hartree energ DENC   =   -193056.12432693
  -exchange      EXHF   =         0.00000000
  -V(xc)+E(xc)   XCENC  =      1569.32262457
  PAW double counting   =     46568.51355818   -50319.05045284
  entropy T*S    EENTRO =         0.00000000
  eigenvalues    EBANDS =     -1017.27837220
  atomic energy  EATOM  =     49405.90664065
  Solvation  Ediel_sol  =         0.00000000
  ---------------------------------------------------
  free energy    TOTEN  =      -140.82998557 eV

  energy without entropy =     -140.82998557  energy(sigma->0) =     -140.82998557


--------------------------------------------------------------------------------------------------------




--------------------------------------- Iteration      1(   7)  ---------------------------------------


    EDDIAG:  cpu time    1.0609: real time    1.0612
  RMM-DIIS:  cpu time    4.3864: real time    4.3878
    ORTHCH:  cpu time    0.2080: real time    0.2080
 BZINTS: Fermi energy:    0.400640;  398.000000 electrons
         Band energy:-0.101728E+04;  BLOECHL correction:   -0.027966
       DOS:  cpu time    0.0099: real time    0.0099
    --------------------------------------------
      LOOP:  cpu time    5.6653: real time    5.6669

 eigenvalue-minimisations  :  7748
 total energy-change (2. order) :-0.4282443E-02  (-0.4171743E-02)
 number of electron     398.0000147 magnetization 
 augmentation part      398.0000147 magnetization 

 Free energy of the ion-electron system (eV)
  ---------------------------------------------------
  alpha Z        PSCENC =       882.56031311
  Ewald energy   TEWEN  =    145825.32002989
  -Hartree energ DENC   =   -193056.12432693
  -exchange      EXHF   =         0.00000000
  -V(xc)+E(xc)   XCENC  =      1569.32262457
  PAW double counting   =     46568.51355818   -50319.05045284
  entropy T*S    EENTRO =         0.00000000
  eigenvalues    EBANDS =     -1017.28265464
  atomic energy  EATOM  =     49405.90664065
  Solvation  Ediel_sol  =         0.00000000
  ---------------------------------------------------
  free energy    TOTEN  =      -140.83426801 eV

  energy without entropy =     -140.83426801  energy(sigma->0) =     -140.83426801


--------------------------------------------------------------------------------------------------------




--------------------------------------- Iteration      1(   8)  ---------------------------------------


    EDDIAG:  cpu time    1.0615: real time    1.0617
  RMM-DIIS:  cpu time    3.3643: real time    3.3652
    ORTHCH:  cpu time    0.2078: real time    0.2081
 BZINTS: Fermi energy:    0.400639;  398.000000 electrons
         Band energy:-0.101728E+04;  BLOECHL correction:   -0.027966
       DOS:  cpu time    0.0101: real time    0.0101
    --------------------------------------------
      LOOP:  cpu time    4.6437: real time    4.6451

 eigenvalue-minimisations  :  5926
 total energy-change (2. order) :-0.2611011E-03  (-0.2721302E-03)
 number of electron     398.0000147 magnetization 
 augmentation part      398.0000147 magnetization 

 Free energy of the ion-electron system (eV)
  ---------------------------------------------------
  alpha Z        PSCENC =       882.56031311
  Ewald energy   TEWEN  =    145825.32002989
  -Hartree energ DENC   =   -193056.12432693
  -exchange      EXHF   =         0.00000000
  -V(xc)+E(xc)   XCENC  =      1569.32262457
  PAW double counting   =     46568.51355818   -50319.05045284
  entropy T*S    EENTRO =         0.00000000
  eigenvalues    EBANDS =     -1017.28291574
  atomic energy  EATOM  =     49405.90664065
  Solvation  Ediel_sol  =         0.00000000
  ---------------------------------------------------
  free energy    TOTEN  =      -140.83452911 eV

  energy without entropy =     -140.83452911  energy(sigma->0) =     -140.83452911


--------------------------------------------------------------------------------------------------------




--------------------------------------- Iteration      1(   9)  ---------------------------------------


    EDDIAG:  cpu time    1.0624: real time    1.0627
  RMM-DIIS:  cpu time    4.1404: real time    4.1415
    ORTHCH:  cpu time    0.2078: real time    0.2078
 BZINTS: Fermi energy:    0.400639;  398.000000 electrons
         Band energy:-0.101728E+04;  BLOECHL correction:   -0.027966
       DOS:  cpu time    0.0101: real time    0.0101
    --------------------------------------------
      LOOP:  cpu time    5.4207: real time    5.4221

 eigenvalue-minimisations  :  7260
 total energy-change (2. order) :-0.5414186E-04  (-0.5254983E-04)
 number of electron     398.0000147 magnetization 
 augmentation part      398.0000147 magnetization 

 Free energy of the ion-electron system (eV)
  ---------------------------------------------------
  alpha Z        PSCENC =       882.56031311
  Ewald energy   TEWEN  =    145825.32002989
  -Hartree energ DENC   =   -193056.12432693
  -exchange      EXHF   =         0.00000000
  -V(xc)+E(xc)   XCENC  =      1569.32262457
  PAW double counting   =     46568.51355818   -50319.05045284
  entropy T*S    EENTRO =         0.00000000
  eigenvalues    EBANDS =     -1017.28296988
  atomic energy  EATOM  =     49405.90664065
  Solvation  Ediel_sol  =         0.00000000
  ---------------------------------------------------
  free energy    TOTEN  =      -140.83458325 eV

  energy without entropy =     -140.83458325  energy(sigma->0) =     -140.83458325


--------------------------------------------------------------------------------------------------------




--------------------------------------- Iteration      1(  10)  ---------------------------------------


    EDDIAG:  cpu time    1.0606: real time    1.0642
  RMM-DIIS:  cpu time    2.4300: real time    2.4306
    ORTHCH:  cpu time    0.2081: real time    0.2084
 BZINTS: Fermi energy:    0.400639;  398.000000 electrons
         Band energy:-0.101728E+04;  BLOECHL correction:   -0.027966
       DOS:  cpu time    0.0095: real time    0.0095
    --------------------------------------------
      LOOP:  cpu time    3.7082: real time    3.7127

 eigenvalue-minimisations  :  3788
 total energy-change (2. order) :-0.3347668E-05  (-0.2893022E-05)
 number of electron     398.0000147 magnetization 
 augmentation part      398.0000147 magnetization 

 Free energy of the ion-electron system (eV)
  ---------------------------------------------------
  alpha Z        PSCENC =       882.56031311
  Ewald energy   TEWEN  =    145825.32002989
  -Hartree energ DENC   =   -193056.12432693
  -exchange      EXHF   =         0.00000000
  -V(xc)+E(xc)   XCENC  =      1569.32262457
  PAW double counting   =     46568.51355818   -50319.05045284
  entropy T*S    EENTRO =         0.00000000
  eigenvalues    EBANDS =     -1017.28297323
  atomic energy  EATOM  =     49405.90664065
  Solvation  Ediel_sol  =         0.00000000
  ---------------------------------------------------
  free energy    TOTEN  =      -140.83458660 eV

  energy without entropy =     -140.83458660  energy(sigma->0) =     -140.83458660


--------------------------------------------------------------------------------------------------------




 average (electrostatic) potential at core
  the test charge radii are     0.9430  1.1394  0.7215  0.5201
  (the norm of the test charge is              1.0000)
       1 -70.5976       2 -70.5836       3 -70.5836       4 -70.5836       5 -70.5927
       6 -70.5833       7 -70.5836       8 -70.5833       9 -70.5970      10 -70.8642
      11 -70.8317      12 -70.8642      13 -70.8317      14 -70.8314      15 -70.8492
      16 -70.8642      17 -70.8492      18 -70.8495      19 -70.8101      20 -70.9877
      21 -70.9879      22 -70.8250      23 -70.9879      24 -70.8248      25 -70.8105
      26 -70.8101      27 -70.8250      28 -70.5481      29 -70.6290      30 -70.6292
      31 -70.6290      32 -70.6289      33 -70.6292      34 -70.6289      35 -70.5461
      36 -48.9591      37 -76.7485      38 -41.0231
 
 
 
 E-fermi :   0.4006     XC(G=0):  -5.9600     alpha+bet : -5.3490

 Fermi energy:         0.4006392392

 k-point     1 :       0.0000    0.0000    0.0000
  band No.  band energies     occupation 
      1     -20.2292      2.00000
      2      -8.6934      2.00000
      3      -8.3470      2.00000
      4      -7.0617      2.00000
      5      -5.4760      2.00000
      6      -5.4284      2.00000
      7      -5.4284      2.00000
      8      -5.4070      2.00000
      9      -5.3990      2.00000
     10      -5.3990      2.00000
     11      -5.3406      2.00000
     12      -4.6678      2.00000
     13      -4.6677      2.00000
     14      -4.6642      2.00000
     15      -4.6369      2.00000
     16      -4.6345      2.00000
     17      -4.6345      2.00000
     18      -4.5119      2.00000
     19      -4.4482      2.00000
     20      -4.4481      2.00000
     21      -3.9636      2.00000
     22      -3.9636      2.00000
     23      -3.9427      2.00000
     24      -3.9059      2.00000
     25      -3.9059      2.00000
     26      -3.8752      2.00000
     27      -3.6891      2.00000
     28      -3.6679      2.00000
     29      -3.6678      2.00000
     30      -3.6441      2.00000
     31      -3.6440      2.00000
     32      -3.6404      2.00000
     33      -3.4875      2.00000
     34      -3.4875      2.00000
     35      -3.4864      2.00000
     36      -3.4864      2.00000
     37      -3.4809      2.00000
     38      -3.4787      2.00000
     39      -3.4317      2.00000
     40      -3.4198      2.00000
     41      -3.4169      2.00000
     42      -3.4169      2.00000
     43      -3.4023      2.00000
     44      -3.4023      2.00000
     45      -3.3435      2.00000
     46      -3.3435      2.00000
     47      -3.3369      2.00000
     48      -3.3369      2.00000
     49      -3.2222      2.00000
     50      -3.2209      2.00000
     51      -3.1512      2.00000
     52      -3.1345      2.00000
     53      -3.1302      2.00000
     54      -3.1302      2.00000
     55      -3.1034      2.00000
     56      -3.1033      2.00000
     57      -3.0930      2.00000
     58      -3.0909      2.00000
     59      -2.8050      2.00000
     60      -2.7988      2.00000
     61      -2.7988      2.00000
     62      -2.7979      2.00000
     63      -2.7575      2.00000
     64      -2.7575      2.00000
     65      -2.6969      2.00000
     66      -2.6968      2.00000
     67      -2.6966      2.00000
     68      -2.6713      2.00000
     69      -2.6712      2.00000
     70      -2.6507      2.00000
     71      -2.6506      2.00000
     72      -2.6371      2.00000
     73      -2.6371      2.00000
     74      -2.6365      2.00000
     75      -2.6279      2.00000
     76      -2.5641      2.00000
     77      -2.5582      2.00000
     78      -2.5582      2.00000
     79      -2.5069      2.00000
     80      -2.5069      2.00000
     81      -2.4586      2.00000
     82      -2.4586      2.00000
     83      -2.4495      2.00000
     84      -2.4370      2.00000
     85      -2.4370      2.00000
     86      -2.4319      2.00000
     87      -2.3848      2.00000
     88      -2.3815      2.00000
     89      -2.3815      2.00000
     90      -2.3457      2.00000
     91      -2.3456      2.00000
     92      -2.3373      2.00000
     93      -2.3230      2.00000
     94      -2.3230      2.00000
     95      -2.3125      2.00000
     96      -2.3125      2.00000
     97      -2.2751      2.00000
     98      -2.2751      2.00000
     99      -2.2726      2.00000
    100      -2.2571      2.00000
    101      -2.2571      2.00000
    102      -2.2403      2.00000
    103      -2.2403      2.00000
    104      -2.2077      2.00000
    105      -2.2077      2.00000
    106      -2.2076      2.00000
    107      -2.1306      2.00000
    108      -2.1152      2.00000
    109      -2.1152      2.00000
    110      -2.0966      2.00000
    111      -2.0966      2.00000
    112      -1.9695      2.00000
    113      -1.9629      2.00000
    114      -1.9500      2.00000
    115      -1.9500      2.00000
    116      -1.9422      2.00000
    117      -1.9422      2.00000
    118      -1.9376      2.00000
    119      -1.9175      2.00000
    120      -1.9174      2.00000
    121      -1.9173      2.00000
    122      -1.9053      2.00000
    123      -1.8913      2.00000
    124      -1.8662      2.00000
    125      -1.8661      2.00000
    126      -1.7638      2.00000
    127      -1.7638      2.00000
    128      -1.7338      2.00000
    129      -1.7319      2.00000
    130      -1.7319      2.00000
    131      -1.7127      2.00000
    132      -1.7127      2.00000
    133      -1.7058      2.00000
    134      -1.7057      2.00000
    135      -1.6585      2.00000
    136      -1.6439      2.00000
    137      -1.6439      2.00000
    138      -1.6427      2.00000
    139      -1.6324      2.00000
    140      -1.6324      2.00000
    141      -1.6281      2.00000
    142      -1.6099      2.00000
    143      -1.6099      2.00000
    144      -1.5559      2.00000
    145      -1.5559      2.00000
    146      -1.5157      2.00000
    147      -1.5157      2.00000
    148      -1.5003      2.00000
    149      -1.4978      2.00000
    150      -1.4819      2.00000
    151      -1.4819      2.00000
    152      -1.4726      2.00000
    153      -1.4726      2.00000
    154      -1.4622      2.00000
    155      -1.4476      2.00000
    156      -1.4476      2.00000
    157      -1.4339      2.00000
    158      -1.3956      2.00000
    159      -1.3750      2.00000
    160      -1.3656      2.00000
    161      -1.3599      2.00000
    162      -1.3599      2.00000
    163      -1.3512      2.00000
    164      -1.3512      2.00000
    165      -1.3485      2.00000
    166      -1.3336      2.00000
    167      -1.3336      2.00000
    168      -1.3238      2.00000
    169      -1.3117      2.00000
    170      -1.3063      2.00000
    171      -1.3063      2.00000
    172      -1.2935      2.00000
    173      -1.2935      2.00000
    174      -1.2871      2.00000
    175      -1.2759      2.00000
    176      -1.2759      2.00000
    177      -1.2758      2.00000
    178      -1.2724      2.00000
    179      -1.2724      2.00000
    180      -1.2690      2.00000
    181      -1.2689      2.00000
    182      -1.2687      2.00000
    183      -1.2640      2.00000
    184      -1.2633      2.00000
    185      -1.2633      2.00000
    186      -1.2590      2.00000
    187      -1.2053      2.00000
    188      -1.2052      2.00000
    189      -1.1640      2.00000
    190      -1.1639      2.00000
    191      -1.1600      2.00000
    192      -1.1462      2.00000
    193      -1.1462      2.00000
    194      -1.1452      2.00000
    195      -0.7674      2.00000
    196      -0.2976      2.00000
    197      -0.0238      2.00000
    198      -0.0238      2.00000
    199       0.0461      2.00000
    200       0.1421      2.00000
    201       0.1421      2.00000
    202       0.2310      2.00000
    203       0.4305      0.00000
    204       0.4305      0.00000
    205       0.7091      0.00000
    206       0.7091      0.00000
    207       1.2985      0.00000
    208       2.3565      0.00000
    209       2.3578      0.00000
    210       2.3578      0.00000
    211       2.5683      0.00000
    212       2.5683      0.00000
    213       3.3048      0.00000
    214       3.7884      0.00000
    215       3.8585      0.00000
    216       4.0560      0.00000
    217       4.0560      0.00000
    218       4.1651      0.00000
    219       4.1651      0.00000
    220       4.2318      0.00000
    221       4.5303      0.00000
    222       4.8210      0.00000
    223       4.8211      0.00000
    224       4.8390      0.00000
    225       4.8688      0.00000
    226       4.8688      0.00000
    227       4.9748      0.00000
    228       4.9748      0.00000
    229       5.1739      0.00000
    230       5.1740      0.00000
    231       5.2897      0.00000
    232       5.5531      0.00000
    233       5.7333      0.00000
    234       5.8509      0.00000
    235       6.1560      0.00000
    236       6.6867      0.00000
    237       6.6868      0.00000
    238       6.6974      0.00000
    239       6.8439      0.00000
    240       6.8439      0.00000
    241       6.9555      0.00000
    242       6.9556      0.00000
    243       7.0432      0.00000
    244       7.0432      0.00000
    245       7.0742      0.00000
    246       7.4248      0.00000
    247       7.5176      0.00000
    248       7.5201      0.00000
    249       7.6357      0.00000
    250       7.6376      0.00000
    251       7.6707      0.00000
    252       7.8744      0.00000

 k-point     2 :       0.1250   -0.0000    0.0000
  band No.  band energies     occupation 
      1     -20.2292      2.00000
      2      -8.6845      2.00000
      3      -8.3005      2.00000
      4      -7.0104      2.00000
      5      -5.9726      2.00000
      6      -5.6592      2.00000
      7      -5.6444      2.00000
      8      -5.3988      2.00000
      9      -5.1229      2.00000
     10      -5.1106      2.00000
     11      -4.9769      2.00000
     12      -4.9195      2.00000
[...]
  0.000   0.000   0.000   0.000   0.000   0.000   0.000   0.000   0.000   0.000   0.000   0.000   0.000   0.000   0.000   0.000
  0.000   0.000   0.000   0.000   0.000   0.000   0.000   0.000   0.000   0.000   0.000   0.000   0.000   0.000   0.000   0.000
  0.000   0.000   0.000   0.000   0.000   0.000   0.000   0.000   0.000   0.000   1.000   0.000   0.000   0.000   0.000   0.000
  0.000   0.000   0.000   0.000   0.000   0.000   0.000   0.000   0.000   0.000   0.000   0.000   0.000   0.000   0.000   0.000
  0.000   0.000   0.000   0.000   0.000   0.000   0.000   0.000   0.000   0.000   0.000   0.000   0.000   0.000   0.000   0.000
  0.000   0.000   0.000   0.000   0.000   0.000   0.000   0.000   0.000   0.000   0.000   0.000   0.000   0.000   0.000   0.000
  0.000   0.000   0.000   0.000   0.000   0.000   0.000   0.000   0.000   0.000   0.000   0.000   0.000   0.000   0.000   0.000
  0.000   0.000   0.000   0.000   0.000   0.000   0.000   0.000   0.000   0.000   0.000   0.000   0.000   0.000   0.000   0.000
  0.000   0.000   0.000   0.000   0.000   0.000   0.000   0.000   0.000   0.000   0.000   0.000   0.000   0.000   0.000   0.000
  0.000   0.000   0.000   0.000   0.000   0.000   0.000   0.000   0.000   0.000   0.000   0.000   0.000   0.000   0.000   0.000


------------------------ aborting loop because EDIFF is reached ----------------------------------------





 total charge

# of ion       s       p       d       tot
------------------------------------------
    1        0.449   0.283   9.189   9.921
    2        0.449   0.286   9.185   9.920
    3        0.449   0.286   9.185   9.920
    4        0.449   0.286   9.185   9.920
    5        0.449   0.286   9.183   9.918
    6        0.449   0.286   9.185   9.920
    7        0.449   0.286   9.185   9.920
    8        0.449   0.286   9.185   9.920
    9        0.446   0.286   9.187   9.919
   10        0.443   0.370   9.178   9.991
   11        0.441   0.368   9.182   9.991
   12        0.443   0.370   9.178   9.991
   13        0.441   0.368   9.182   9.991
   14        0.441   0.368   9.182   9.991
   15        0.438   0.369   9.179   9.987
   16        0.443   0.370   9.178   9.991
   17        0.438   0.369   9.179   9.987
   18        0.438   0.369   9.179   9.987
   19        0.441   0.366   9.183   9.990
   20        0.464   0.397   9.158  10.019
   21        0.464   0.397   9.158  10.019
   22        0.432   0.374   9.180   9.986
   23        0.464   0.397   9.158  10.019
   24        0.432   0.374   9.180   9.986
   25        0.441   0.366   9.183   9.990
   26        0.441   0.366   9.183   9.990
   27        0.432   0.374   9.180   9.986
   28        0.451   0.286   9.185   9.921
   29        0.455   0.299   9.183   9.937
   30        0.455   0.299   9.183   9.937
   31        0.455   0.299   9.183   9.937
   32        0.455   0.299   9.183   9.937
   33        0.455   0.299   9.183   9.937
   34        0.455   0.299   9.183   9.937
   35        0.443   0.290   9.185   9.918
   36        0.496   0.641   4.395   5.532
   37        1.560   3.523   0.000   5.083
   38        0.606   0.124   0.000   0.730
--------------------------------------------------
tot         18.299  15.964 325.706 359.969
 
    CHARGE:  cpu time    0.2120: real time    0.2121
    FORLOC:  cpu time    0.0080: real time    0.0080
    FORNL :  cpu time    1.1932: real time    1.1936
    STRESS:  cpu time    3.5405: real time    3.5417
    FORCOR:  cpu time    0.0281: real time    0.0282
    FORHAR:  cpu time    0.0124: real time    0.0125
    OFIELD:  cpu time    0.0001: real time    0.0001

  FORCE on cell =-STRESS in cart. coord.  units (eV):
  Direction    XX          YY          ZZ          XY          YZ          ZX
  --------------------------------------------------------------------------------------
  Alpha Z   882.56031   882.56031   882.56031
  Ewald  171591.18342171591.18302************     0.00039     0.00013     0.00018
  Hartree184784.13744184784.13743************     0.00004     0.00006     0.00007
  E(xc)   -2305.95675 -2305.95630 -2309.33193    -0.00039    -0.00003    -0.00006
  Local  ************************369408.81685     0.01876    -0.00062    -0.00099
  n-local  -797.71585  -783.85081  -801.21631     7.25208    -0.10899     0.33039
  augment  3344.69772  3344.71786  3356.59197    -0.01745     0.00025     0.00043
  Kinetic  3328.67630  3332.00725  3317.27682     3.36173     1.52024    -1.25152
  Fock        0.00000     0.00000     0.00000     0.00000     0.00000     0.00000
  -------------------------------------------------------------------------------------
  Total      -5.80453    -5.80453     0.39529     0.00000    -0.00000    -0.00000
  in kB      -8.51661    -8.51661     0.57999     0.00000    -0.00000    -0.00000
  external pressure =       -5.48 kB  Pullay stress =        0.00 kB


 VOLUME and BASIS-vectors are now :
 -----------------------------------------------------------------------------
  energy-cutoff  :      500.00
  volume of cell :     1091.97
      direct lattice vectors                 reciprocal lattice vectors
     7.696786404  0.000000000  0.000000000     0.129924354 -0.075011849  0.000000000
     3.848392758  6.665612809  0.000000000     0.000000000  0.150023716  0.000000000
     0.000000000  0.000000000 21.284399033     0.000000000  0.000000000  0.046982769

  length of vectors
     7.696786404  7.696786404 21.284399033     0.150023716  0.150023716  0.046982769


 FORCES acting on ions
    electron-ion (+dipol)            ewald-force                    non-local-force                 convergence-correction
 -----------------------------------------------------------------------------------------------
   -.417E-04 0.903E-07 0.348E+04   0.580E-04 -.436E-05 -.348E+04   -.436E-17 0.354E-17 -.261E+01   -.156E-03 -.570E-04 -.396E+00
   -.277E+00 -.379E+00 0.348E+04   0.259E+00 0.168E+00 -.348E+04   0.243E-01 0.177E+00 -.187E+01   -.448E-02 0.435E-01 -.372E+00
   0.277E+00 -.379E+00 0.348E+04   -.259E+00 0.168E+00 -.348E+04   -.243E-01 0.177E+00 -.187E+01   0.514E-02 0.461E-01 -.371E+00
   -.466E+00 -.502E-01 0.348E+04   0.275E+00 0.140E+00 -.348E+04   0.165E+00 -.674E-01 -.187E+01   0.355E-01 -.257E-01 -.372E+00
   -.659E-04 -.585E-05 0.348E+04   0.116E-03 -.101E-04 -.347E+04   0.360E-18 0.132E-17 -.172E+01   0.121E-01 0.739E-02 -.305E+00
   0.466E+00 -.501E-01 0.348E+04   -.275E+00 0.140E+00 -.348E+04   -.165E+00 -.674E-01 -.187E+01   -.371E-01 -.244E-01 -.371E+00
   -.190E+00 0.429E+00 0.348E+04   0.157E-01 -.308E+00 -.348E+04   0.141E+00 -.109E+00 -.187E+01   0.425E-01 -.186E-01 -.371E+00
   0.190E+00 0.429E+00 0.348E+04   -.160E-01 -.308E+00 -.348E+04   -.141E+00 -.109E+00 -.187E+01   -.389E-01 -.199E-01 -.371E+00
   -.144E-03 -.329E-04 0.348E+04   0.263E-03 0.205E-04 -.348E+04   -.230E-17 0.103E-17 -.224E+01   -.133E-01 -.686E-02 -.366E+00
   -.109E+01 -.627E+00 0.117E+04   0.162E+01 0.934E+00 -.117E+04   -.525E+00 -.303E+00 -.967E+00   -.529E-02 -.307E-02 -.378E+00
   -.906E-04 -.157E+01 0.117E+04   0.189E-03 0.131E+01 -.117E+04   -.157E-07 0.236E+00 -.433E+00   0.108E-01 -.112E-01 -.385E+00
   0.109E+01 -.627E+00 0.117E+04   -.162E+01 0.934E+00 -.117E+04   0.525E+00 -.303E+00 -.967E+00   0.472E-02 -.175E-02 -.380E+00
   -.136E+01 0.785E+00 0.117E+04   0.113E+01 -.653E+00 -.117E+04   0.205E+00 -.118E+00 -.433E+00   -.381E-02 0.157E-01 -.385E+00
   0.136E+01 0.785E+00 0.117E+04   -.113E+01 -.653E+00 -.117E+04   -.205E+00 -.118E+00 -.433E+00   0.275E-01 0.155E-01 -.386E+00
   -.142E-03 -.631E+00 0.117E+04   0.298E-03 0.466E+00 -.117E+04   -.557E-08 0.836E-01 -.929E+00   -.299E-02 0.603E-01 -.354E+00
   -.920E-04 0.125E+01 0.117E+04   0.186E-03 -.187E+01 -.117E+04   -.404E-07 0.606E+00 -.967E+00   -.880E-04 0.375E-02 -.380E+00
   -.546E+00 0.315E+00 0.117E+04   0.404E+00 -.233E+00 -.117E+04   0.724E-01 -.418E-01 -.929E+00   0.514E-01 -.327E-01 -.354E+00
   0.547E+00 0.315E+00 0.117E+04   -.404E+00 -.233E+00 -.117E+04   -.724E-01 -.418E-01 -.929E+00   -.511E-01 -.312E-01 -.355E+00
   -.618E-04 -.370E+01 -.115E+04   0.699E-04 0.365E+01 0.115E+04   -.424E-08 0.637E-01 0.101E+01   0.134E-01 -.211E-01 -.250E+00
   -.284E+02 -.164E+02 -.117E+04   0.296E+02 0.171E+02 0.117E+04   -.121E+01 -.701E+00 -.957E+00   -.662E-02 -.395E-02 -.385E+00
   0.284E+02 -.164E+02 -.117E+04   -.296E+02 0.171E+02 0.117E+04   0.121E+01 -.701E+00 -.957E+00   -.158E-01 -.155E-02 -.386E+00
   -.138E+02 0.797E+01 -.115E+04   0.136E+02 -.787E+01 0.115E+04   0.394E+00 -.228E+00 0.771E+00   -.162E+00 0.766E-01 -.360E+00
   -.809E-04 0.328E+02 -.117E+04   0.147E-03 -.342E+02 0.117E+04   -.933E-07 0.140E+01 -.957E+00   -.104E-01 -.142E-01 -.386E+00
   0.138E+02 0.797E+01 -.115E+04   -.136E+02 -.787E+01 0.115E+04   -.394E+00 -.228E+00 0.771E+00   0.141E+00 0.803E-01 -.360E+00
   0.320E+01 0.185E+01 -.115E+04   -.316E+01 -.183E+01 0.115E+04   -.552E-01 -.318E-01 0.101E+01   0.366E-01 0.212E-01 -.251E+00
   -.320E+01 0.185E+01 -.115E+04   0.316E+01 -.183E+01 0.115E+04   0.552E-01 -.318E-01 0.101E+01   -.112E-01 0.223E-01 -.250E+00
   -.124E-03 -.159E+02 -.115E+04   0.240E-03 0.157E+02 0.115E+04   -.303E-07 0.455E+00 0.771E+00   -.146E-01 -.179E+00 -.360E+00
   -.341E-04 0.172E-04 -.342E+04   0.367E-04 -.336E-04 0.342E+04   -.578E-17 0.185E-18 0.167E+01   0.807E-03 0.517E-03 0.767E-01
   -.754E+01 -.154E+02 -.340E+04   0.753E+01 0.150E+02 0.339E+04   -.878E-01 0.346E+00 0.260E+01   -.528E-01 -.115E+00 0.180E+00
   0.754E+01 -.154E+02 -.340E+04   -.753E+01 0.150E+02 0.339E+04   0.878E-01 0.346E+00 0.260E+01   0.524E-01 -.113E+00 0.182E+00
   -.171E+02 0.119E+01 -.340E+04   0.167E+02 -.959E+00 0.339E+04   0.256E+00 -.249E+00 0.260E+01   -.126E+00 0.118E-01 0.180E+00
   0.171E+02 0.119E+01 -.340E+04   -.167E+02 -.959E+00 0.339E+04   -.256E+00 -.249E+00 0.260E+01   0.126E+00 0.139E-01 0.182E+00
   -.961E+01 0.142E+02 -.340E+04   0.919E+01 -.140E+02 0.339E+04   0.343E+00 -.969E-01 0.260E+01   -.717E-01 0.102E+00 0.182E+00
   0.961E+01 0.142E+02 -.340E+04   -.919E+01 -.140E+02 0.339E+04   -.343E+00 -.969E-01 0.260E+01   0.757E-01 0.102E+00 0.182E+00
   -.129E-03 -.168E-04 -.343E+04   0.254E-03 0.506E-05 0.342E+04   -.596E-17 -.348E-17 0.212E+01   -.134E-01 -.690E-02 0.214E+00
   -.472E-04 -.141E-04 -.168E+04   0.773E-04 0.145E-04 0.168E+04   0.213E-17 0.346E-17 0.124E+01   0.126E-02 0.767E-03 0.100E+00
   0.187E-03 -.782E-04 -.211E+04   0.185E-04 0.857E-05 0.209E+04   -.639E-18 -.109E-17 0.206E+02   0.312E-02 0.190E-02 0.241E+00
   0.505E-05 -.130E-04 -.392E+03   0.711E-06 0.583E-06 0.401E+03   0.583E-19 0.546E-19 -.846E+01   0.168E-03 0.102E-03 -.214E-02
 -----------------------------------------------------------------------------------------------
   -.116E-03 -.119E-03 -.255E+01   0.192E-12 0.314E-12 -.375E-11   -.441E-17 -.292E-15 0.105E+02   -.216E-02 -.422E-02 -.792E+01
 
 
 POSITION                                       TOTAL-FORCE (eV/Angst)
 -----------------------------------------------------------------------------------
      0.00000      0.00000      5.37156        -0.000000      0.000000     -0.007545
      2.56560      0.00000      5.37156         0.002762      0.010732      0.064780
      5.13119      0.00000      5.37156        -0.002762      0.010732      0.064780
      1.28280      2.22187      5.37156         0.010675     -0.002974      0.064780
      3.84839      2.22187      5.37156        -0.000000      0.000000      0.051727
      6.41399      2.22187      5.37156        -0.010675     -0.002974      0.064780
      2.56560      4.44374      5.37156         0.007913     -0.007758      0.064780
      5.13119      4.44374      5.37156        -0.007913     -0.007758      0.064780
      7.69679      4.44374      5.37156        -0.000000      0.000000      0.020798
      1.28280      0.74062      7.46636         0.001542      0.000890     -0.064799
      3.84839      0.74062      7.46636         0.000000     -0.045266     -0.081662
      6.41399      0.74062      7.46636        -0.001542      0.000890     -0.064799
      2.56560      2.96249      7.46636        -0.039202      0.022633     -0.081662
      5.13119      2.96249      7.46636         0.039202      0.022633     -0.081662
      7.69679      2.96249      7.46636         0.000000     -0.020591     -0.015454
      3.84839      5.18437      7.46636         0.000000     -0.001781     -0.064799
      6.41399      5.18437      7.46636        -0.017832      0.010296     -0.015454
      8.97958      5.18437      7.46636         0.017832      0.010296     -0.015454
      7.69679      1.48113      9.55176         0.000000     -0.010500      0.038699
      2.56610      1.48154      9.54462        -0.027674     -0.015978     -0.099317
      5.13069      1.48154      9.54462         0.027674     -0.015978     -0.099317
      8.97635      3.70498      9.55922         0.079247     -0.045753      0.017462
      3.84839      3.70254      9.54462        -0.000000      0.031955     -0.099317
      6.41722      3.70498      9.55922        -0.079247     -0.045753      0.017462
     10.26248      5.92505      9.55176         0.009093      0.005250      0.038699
      5.13109      5.92505      9.55176        -0.009093      0.005250      0.038699
      7.69679      5.92126      9.55922        -0.000000      0.091507      0.017462
      0.00000      0.00000     11.63975        -0.000000      0.000000     -0.029305
      2.57267      0.01383     11.65039        -0.146413     -0.251424     -0.231098
      5.12411      0.01383     11.65039         0.146413     -0.251424     -0.231098
      1.29831      2.22109     11.65039        -0.290946     -0.001086     -0.231098
      6.39847      2.22109     11.65039         0.290946     -0.001086     -0.231098
      2.57403      4.43070     11.65039        -0.144533      0.252510     -0.231098
      5.12275      4.43070     11.65039         0.144533      0.252510     -0.231098
      7.69679      4.44374     11.64501        -0.000000      0.000000      0.026925
      3.84839      2.22187     11.55740        -0.000000      0.000000      1.616356
      3.84839      2.22187     13.30998        -0.000000      0.000000     -0.081360
      3.84839      2.22187     14.27768        -0.000000      0.000000      0.015524
 -----------------------------------------------------------------------------------
    total drift:                               -0.002281     -0.004337      0.031730


--------------------------------------------------------------------------------------------------------



  FREE ENERGIE OF THE ION-ELECTRON SYSTEM (eV)
  ---------------------------------------------------
  free  energy   TOTEN  =      -140.83458660 eV

  energy  without entropy=     -140.83458660  energy(sigma->0) =     -140.83458660
 


--------------------------------------------------------------------------------------------------------


    POTLOK:  cpu time    0.0291: real time    0.0291


--------------------------------------------------------------------------------------------------------


 stress matrix after NEB project (eV)
     -5.80453      0.00000     -0.00000
      0.00000     -5.80453      0.00000
     -0.00000     -0.00000      0.39529
  FORCES: max atom, RMS     0.081360    0.013436
  FORCE total and by dimension    0.082828    0.081360
  Stress total and by dimension    8.218355    5.804529
     LOOP+:  cpu time   61.1812: real time   61.2093
 -----------------------------------------------------------------------------
|                                                                             |
|           W    W    AA    RRRRR   N    N  II  N    N   GGGG   !!!           |
|           W    W   A  A   R    R  NN   N  II  NN   N  G    G  !!!           |
|           W    W  A    A  R    R  N N  N  II  N N  N  G       !!!           |
|           W WW W  AAAAAA  RRRRR   N  N N  II  N  N N  G  GGG   !            |
|           WW  WW  A    A  R   R   N   NN  II  N   NN  G    G                |
|           W    W  A    A  R    R  N    N  II  N    N   GGGG   !!!           |
|                                                                             |
|     Tetrahedron method does not include variations of the Fermi             |
|     occupations, so forces and stress will be inaccurate. We suggest        |
|     using a different smearing scheme ISMEAR = 1 or 2 for metals in         |
|     relaxations.                                                            |
|                                                                             |
 -----------------------------------------------------------------------------

    4ORBIT:  cpu time    0.0000: real time    0.0000



 total charge

# of ion       s       p       d       tot
------------------------------------------
    1        0.449   0.283   9.189   9.921
    2        0.449   0.286   9.185   9.920
    3        0.449   0.286   9.185   9.920
    4        0.449   0.286   9.185   9.920
    5        0.449   0.286   9.183   9.918
    6        0.449   0.286   9.185   9.920
    7        0.449   0.286   9.185   9.920
    8        0.449   0.286   9.185   9.920
    9        0.446   0.286   9.187   9.919
   10        0.443   0.370   9.178   9.991
   11        0.441   0.368   9.182   9.991
   12        0.443   0.370   9.178   9.991
   13        0.441   0.368   9.182   9.991
   14        0.441   0.368   9.182   9.991
   15        0.438   0.369   9.179   9.987
   16        0.443   0.370   9.178   9.991
   17        0.438   0.369   9.179   9.987
   18        0.438   0.369   9.179   9.987
   19        0.441   0.366   9.183   9.990
   20        0.464   0.397   9.158  10.019
   21        0.464   0.397   9.158  10.019
   22        0.432   0.374   9.180   9.986
   23        0.464   0.397   9.158  10.019
   24        0.432   0.374   9.180   9.986
   25        0.441   0.366   9.183   9.990
   26        0.441   0.366   9.183   9.990
   27        0.432   0.374   9.180   9.986
   28        0.451   0.286   9.185   9.921
   29        0.455   0.299   9.183   9.937
   30        0.455   0.299   9.183   9.937
   31        0.455   0.299   9.183   9.937
   32        0.455   0.299   9.183   9.937
   33        0.455   0.299   9.183   9.937
   34        0.455   0.299   9.183   9.937
   35        0.443   0.290   9.185   9.918
   36        0.496   0.641   4.395   5.532
   37        1.560   3.523   0.000   5.083
   38        0.606   0.124   0.000   0.730
--------------------------------------------------
tot         18.299  15.964 325.706 359.969
 
 BZINTS: Fermi energy:    0.400639;  398.000000 electrons
         Band energy:-0.101728E+04;  BLOECHL correction:   -0.027966

 total amount of memory used by VASP MPI-rank0   105043. kBytes
=======================================================================

   base      :      30000. kBytes
   nonlr-proj:      17654. kBytes
   fftplans  :       2916. kBytes
   grid      :      12878. kBytes
   one-center:        590. kBytes
   wavefun   :      41005. kBytes
 
  
  
 General timing and accounting informations for this job:
 ========================================================
  
                  Total CPU time used (sec):       67.163
                            User time (sec):       64.391
                          System time (sec):        2.771
                         Elapsed time (sec):       67.621
  
                   Maximum memory used (kb):      344840.
                   Average memory used (kb):          N/A
  
                          Minor page faults:        68031
                          Major page faults:            0
                 Voluntary context switches:         4859
