PROCAR new format
# of k-points:   10         # of bands:  252         # of ions:   38

 k-point     1 :    0.00000000 0.00000000 0.00000000     weight = 0.01562500

band     1 # energy  -20.22916796 # occ.  2.00000000
 
ion      s      p      d    tot
    1  0.000  0.000  0.000  0.000
    2  0.000  0.000  0.000  0.000
    3  0.000  0.000  0.000  0.000
    4  0.000  0.000  0.000  0.000
    5  0.000  0.000  0.000  0.000
    6  0.000  0.000  0.000  0.000
    7  0.000  0.000  0.000  0.000
    8  0.000  0.000  0.000  0.000
    9  0.000  0.000  0.000  0.000
   10  0.000  0.000  0.000  0.000
   11  0.000  0.000  0.000  0.000
   12  0.000  0.000  0.000  0.000
   13  0.000  0.000  0.000  0.000
   14  0.000  0.000  0.000  0.000
   15  0.000  0.000  0.000  0.000
   16  0.000  0.000  0.000  0.000
   17  0.000  0.000  0.000  0.000
   18  0.000  0.000  0.000  0.000
   19  0.000  0.000  0.000  0.000
   20  0.000  0.000  0.000  0.000
   21  0.000  0.000  0.000  0.000
   22  0.000  0.000  0.000  0.000
   23  0.000  0.000  0.000  0.000
   24  0.000  0.000  0.000  0.000
   25  0.000  0.000  0.000  0.000
   26  0.000  0.000  0.000  0.000
   27  0.000  0.000  0.000  0.000
   28  0.000  0.000  0.000  0.000
   29  0.000  0.000  0.000  0.000
   30  0.000  0.000  0.000  0.000
   31  0.000  0.000  0.000  0.000
   32  0.000  0.000  0.000  0.000
   33  0.000  0.000  0.000  0.000
   34  0.000  0.000  0.000  0.000
   35  0.000  0.000  0.000  0.000
   36  0.014  0.020  0.021  0.055
   37  0.744  0.016  0.000  0.760
   38  0.116  0.024  0.000  0.140
tot    0.874  0.060  0.021  0.956
 
band     2 # energy   -8.69344267 # occ.  2.00000000
 
ion      s      p      d    tot
    1  0.001  0.000  0.000  0.001
    2  0.001  0.000  0.000  0.001
    3  0.001  0.000  0.000  0.001
    4  0.001  0.000  0.000  0.001
    5  0.001  0.000  0.000  0.001
    6  0.001  0.000  0.000  0.001
    7  0.001  0.000  0.000  0.001
    8  0.001  0.000  0.000  0.001
    9  0.001  0.000  0.000  0.001
   10  0.003  0.000  0.000  0.003
   11  0.003  0.000  0.000  0.003
   12  0.003  0.000  0.000  0.003
   13  0.003  0.000  0.000  0.003
   14  0.003  0.000  0.000  0.003
   15  0.003  0.000  0.000  0.003
   16  0.003  0.000  0.000  0.003
   17  0.003  0.000  0.000  0.003
   18  0.003  0.000  0.000  0.003
   19  0.004  0.000  0.000  0.004
   20  0.007  0.000  0.000  0.008
   21  0.007  0.000  0.000  0.008
   22  0.004  0.000  0.000  0.004
   23  0.007  0.000  0.000  0.008
   24  0.004  0.000  0.000  0.004
   25  0.004  0.000  0.000  0.004
   26  0.004  0.000  0.000  0.004
   27  0.004  0.000  0.000  0.004
   28  0.002  0.000  0.000  0.002
   29  0.003  0.000  0.000  0.003
   30  0.003  0.000  0.000  0.003
   31  0.003  0.000  0.000  0.003
   32  0.003  0.000  0.000  0.003
   33  0.003  0.000  0.000  0.003
   34  0.003  0.000  0.000  0.003
   35  0.002  0.000  0.000  0.002
   36  0.075  0.038  0.100  0.213
   37  0.021  0.444  0.000  0.465
   38  0.148  0.015  0.000  0.163
tot    0.342  0.501  0.102  0.945
 
band     3 # energy   -8.34695553 # occ.  2.00000000
 
ion      s      p      d    tot
    1  0.007  0.001  0.000  0.008
    2  0.007  0.001  0.000  0.007
    3  0.007  0.001  0.000  0.007
    4  0.007  0.001  0.000  0.007
    5  0.007  0.001  0.000  0.007
    6  0.007  0.001  0.000  0.007
    7  0.007  0.001  0.000  0.007
    8  0.007  0.001  0.000  0.007
    9  0.007  0.001  0.000  0.007
   10  0.023  0.000  0.000  0.023
   11  0.023  0.000  0.000  0.023
   12  0.023  0.000  0.000  0.023
   13  0.023  0.000  0.000  0.023
   14  0.023  0.000  0.000  0.023
   15  0.023  0.000  0.000  0.023
   16  0.023  0.000  0.000  0.023
   17  0.023  0.000  0.000  0.023
   18  0.023  0.000  0.000  0.023
   19  0.020  0.000  0.000  0.020
   20  0.017  0.000  0.000  0.018
   21  0.017  0.000  0.000  0.018
   22  0.020  0.000  0.000  0.020
   23  0.017  0.000  0.000  0.018
   24  0.020  0.000  0.000  0.020
   25  0.020  0.000  0.000  0.020
   26  0.020  0.000  0.000  0.020
   27  0.020  0.000  0.000  0.020
   28  0.005  0.001  0.000  0.005
   29  0.003  0.001  0.000  0.004
   30  0.003  0.001  0.000  0.004
   31  0.003  0.001  0.000  0.004
   32  0.003  0.001  0.000  0.004
   33  0.003  0.001  0.000  0.004
   34  0.003  0.001  0.000  0.004
   35  0.005  0.001  0.000  0.005
   36  0.001  0.017  0.023  0.042
   37  0.006  0.089  0.000  0.095
   38  0.029  0.003  0.000  0.032
tot    0.505  0.124  0.025  0.654
 
band     4 # energy   -7.06167812 # occ.  2.00000000
 
ion      s      p      d    tot
    1  0.018  0.001  0.001  0.019
    2  0.018  0.001  0.001  0.019
    3  0.018  0.001  0.001  0.019
    4  0.018  0.001  0.001  0.019
    5  0.018  0.001  0.001  0.019
    6  0.018  0.001  0.001  0.019
    7  0.018  0.001  0.001  0.019
    8  0.018  0.001  0.001  0.019
    9  0.018  0.001  0.001  0.019
   10  0.009  0.002  0.001  0.012
   11  0.009  0.002  0.000  0.012
   12  0.009  0.002  0.001  0.012
   13  0.009  0.002  0.000  0.012
   14  0.009  0.002  0.000  0.012
   15  0.008  0.002  0.001  0.011
   16  0.009  0.002  0.001  0.012
   17  0.008  0.002  0.001  0.011
   18  0.008  0.002  0.001  0.011
   19  0.013  0.002  0.001  0.015
   20  0.010  0.002  0.001  0.013
   21  0.010  0.002  0.001  0.013
   22  0.012  0.002  0.001  0.015
   23  0.010  0.002  0.001  0.013
   24  0.012  0.002  0.001  0.015
   25  0.013  0.002  0.001  0.015
   26  0.013  0.002  0.001  0.015
   27  0.012  0.002  0.001  0.015
   28  0.019  0.001  0.000  0.020
   29  0.017  0.001  0.000  0.018
   30  0.017  0.001  0.000  0.018
   31  0.017  0.001  0.000  0.018
   32  0.017  0.001  0.000  0.018
   33  0.017  0.001  0.000  0.018
   34  0.017  0.001  0.000  0.018
   35  0.019  0.001  0.000  0.020
   36  0.008  0.005  0.008  0.021
   37  0.001  0.008  0.000  0.009
   38  0.002  0.000  0.000  0.002
tot    0.497  0.067  0.027  0.591
 
band     5 # energy   -5.47603553 # occ.  2.00000000
 
ion      s      p      d    tot
    1  0.015  0.000  0.005  0.021
    2  0.013  0.000  0.006  0.019
    3  0.013  0.000  0.006  0.019
    4  0.013  0.000  0.006  0.019
    5  0.003  0.001  0.007  0.011
    6  0.013  0.000  0.006  0.019
    7  0.013  0.000  0.006  0.019
    8  0.013  0.000  0.006  0.019
    9  0.027  0.000  0.003  0.030
   10  0.003  0.003  0.004  0.010
   11  0.016  0.005  0.001  0.023
   12  0.003  0.003  0.004  0.010
   13  0.016  0.005  0.001  0.023
   14  0.016  0.005  0.001  0.023
   15  0.000  0.002  0.005  0.008
   16  0.003  0.003  0.004  0.010
   17  0.000  0.002  0.005  0.008
   18  0.000  0.002  0.005  0.008
   19  0.000  0.003  0.005  0.008
   20  0.021  0.005  0.002  0.028
   21  0.021  0.005  0.002  0.028
   22  0.000  0.004  0.003  0.008
   23  0.021  0.005  0.002  0.028
   24  0.000  0.004  0.003  0.008
   25  0.000  0.003  0.005  0.008
   26  0.000  0.003  0.005  0.008
   27  0.000  0.004  0.003  0.008
   28  0.020  0.000  0.004  0.024
   29  0.014  0.000  0.006  0.021
   30  0.014  0.000  0.006  0.021
   31  0.014  0.000  0.006  0.021
   32  0.014  0.000  0.006  0.021
   33  0.014  0.000  0.006  0.021
   34  0.014  0.000  0.006  0.021
   35  0.027  0.000  0.004  0.031
   36  0.001  0.002  0.012  0.015
   37  0.000  0.000  0.000  0.000
   38  0.000  0.000  0.000  0.000
tot    0.379  0.076  0.173  0.627
 
band     6 # energy   -5.42843214 # occ.  2.00000000
 
ion      s      p      d    tot
    1  0.000  0.002  0.005  0.008
    2  0.001  0.001  0.002  0.004
    3  0.009  0.002  0.002  0.014
    4  0.000  0.001  0.002  0.003
    5  0.000  0.003  0.004  0.007
    6  0.005  0.002  0.002  0.009
    7  0.009  0.002  0.002  0.014
    8  0.005  0.002  0.002  0.009
    9  0.000  0.000  0.002  0.002
   10  0.000  0.001  0.017  0.017
   11  0.027  0.004  0.006  0.037
   12  0.041  0.004  0.006  0.051
   13  0.027  0.004  0.006  0.037
   14  0.000  0.012  0.004  0.017
   15  0.001  0.003  0.005  0.009
   16  0.042  0.004  0.006  0.052
   17  0.001  0.003  0.005  0.009
   18  0.000  0.007  0.007  0.014
   19  0.014  0.003  0.005  0.023
   20  0.000  0.003  0.016  0.019
   21  0.049  0.004  0.008  0.060
   22  0.010  0.004  0.005  0.018
   23  0.050  0.004  0.008  0.061
   24  0.000  0.004  0.012  0.015
   25  0.000  0.014  0.002  0.015
   26  0.014  0.004  0.005  0.023
   27  0.010  0.004  0.005  0.018
   28  0.000  0.002  0.003  0.005
   29  0.000  0.001  0.002  0.003
   30  0.009  0.002  0.003  0.013
   31  0.000  0.001  0.002  0.003
   32  0.007  0.002  0.003  0.012
   33  0.009  0.002  0.003  0.014
   34  0.007  0.002  0.003  0.012
   35  0.000  0.000  0.003  0.003
   36  0.000  0.006  0.006  0.012
   37  0.000  0.000  0.000  0.000
   38  0.000  0.000  0.000  0.000
tot    0.346  0.117  0.179  0.643
 
band     7 # energy   -5.42835429 # occ.  2.00000000
 
ion      s      p      d    tot
    1  0.000  0.002  0.005  0.008
    2  0.009  0.002  0.002  0.014
    3  0.001  0.001  0.002  0.004
    4  0.009  0.002  0.002  0.014
    5  0.000  0.003  0.004  0.007
    6  0.005  0.002  0.002  0.009
    7  0.001  0.001  0.002  0.004
    8  0.004  0.002  0.002  0.008
    9  0.000  0.000  0.002  0.002
   10  0.055  0.005  0.003  0.063
   11  0.009  0.010  0.005  0.023
   12  0.014  0.002  0.013  0.029
   13  0.009  0.009  0.005  0.024
   14  0.036  0.001  0.007  0.043
   15  0.000  0.006  0.006  0.013
   16  0.013  0.002  0.013  0.028
   17  0.001  0.006  0.006  0.013
   18  0.002  0.002  0.004  0.008
   19  0.004  0.010  0.003  0.018
   20  0.066  0.004  0.005  0.074
   21  0.017  0.004  0.013  0.033
   22  0.003  0.004  0.009  0.016
   23  0.016  0.004  0.013  0.033
   24  0.013  0.003  0.003  0.019
   25  0.019  0.000  0.007  0.025
   26  0.005  0.010  0.003  0.018
   27  0.003  0.004  0.009  0.016
   28  0.000  0.002  0.003  0.005
   29  0.010  0.003  0.003  0.016
   30  0.002  0.001  0.002  0.006
   31  0.010  0.003  0.003  0.016
   32  0.003  0.001  0.002  0.007
   33  0.002  0.001  0.002  0.005
   34  0.003  0.001  0.002  0.007
   35  0.000  0.000  0.003  0.003
   36  0.000  0.006  0.006  0.012
   37  0.000  0.000  0.000  0.000
   38  0.000  0.000  0.000  0.000
tot    0.346  0.117  0.179  0.643
 
band     8 # energy   -5.40704664 # occ.  2.00000000
 
ion      s      p      d    tot
    1  0.022  0.003  0.001  0.026
    2  0.000  0.002  0.004  0.006
    3  0.000  0.002  0.004  0.006
    4  0.000  0.002  0.004  0.006
    5  0.001  0.000  0.000  0.002
    6  0.000  0.002  0.004  0.006
    7  0.000  0.002  0.004  0.006
    8  0.000  0.002  0.004  0.006
    9  0.009  0.002  0.000  0.011
   10  0.031  0.006  0.006  0.042
   11  0.006  0.000  0.012  0.018
   12  0.030  0.006  0.006  0.042
   13  0.006  0.000  0.012  0.018
   14  0.006  0.000  0.012  0.018
   15  0.012  0.008  0.003  0.023
   16  0.030  0.006  0.006  0.042
   17  0.012  0.008  0.003  0.023
   18  0.012  0.008  0.003  0.024
   19  0.022  0.009  0.002  0.034
   20  0.000  0.003  0.011  0.013
   21  0.000  0.003  0.010  0.013
   22  0.024  0.002  0.009  0.035
   23  0.000  0.003  0.010  0.013
   24  0.024  0.002  0.009  0.035
   25  0.022  0.009  0.002  0.033
   26  0.022  0.009  0.002  0.034
   27  0.024  0.002  0.009  0.035
   28  0.018  0.003  0.000  0.021
   29  0.000  0.002  0.004  0.006
   30  0.000  0.002  0.004  0.006
   31  0.000  0.002  0.004  0.006
   32  0.000  0.002  0.004  0.006
   33  0.000  0.002  0.004  0.006
   34  0.000  0.002  0.004  0.006
   35  0.011  0.002  0.001  0.015
   36  0.000  0.000  0.000  0.000
   37  0.000  0.000  0.000  0.000
   38  0.000  0.000  0.000  0.000
tot    0.345  0.114  0.180  0.639
 
band     9 # energy   -5.39904109 # occ.  2.00000000
 
ion      s      p      d    tot
    1  0.000  0.001  0.003  0.004
    2  0.001  0.001  0.002  0.004
    3  0.010  0.002  0.003  0.015
    4  0.001  0.001  0.002  0.004
    5  0.000  0.001  0.004  0.005
    6  0.006  0.002  0.002  0.010
    7  0.010  0.002  0.003  0.015
    8  0.006  0.002  0.002  0.010
    9  0.000  0.003  0.006  0.009
   10  0.007  0.000  0.006  0.014
   11  0.006  0.002  0.012  0.020
   12  0.002  0.010  0.003  0.015
   13  0.007  0.002  0.012  0.020
   14  0.026  0.004  0.002  0.033
   15  0.015  0.005  0.010  0.031
   16  0.002  0.010  0.003  0.015
   17  0.016  0.005  0.010  0.031
   18  0.061  0.003  0.005  0.069
   19  0.011  0.001  0.013  0.025
   20  0.000  0.001  0.005  0.007
   21  0.000  0.008  0.005  0.013
   22  0.012  0.008  0.007  0.027
   23  0.000  0.008  0.005  0.013
   24  0.050  0.002  0.006  0.058
   25  0.044  0.005  0.002  0.051
   26  0.011  0.001  0.013  0.025
   27  0.012  0.008  0.007  0.027
   28  0.000  0.001  0.005  0.006
   29  0.000  0.001  0.002  0.003
   30  0.008  0.002  0.002  0.012
   31  0.000  0.001  0.002  0.003
   32  0.007  0.002  0.003  0.012
   33  0.008  0.002  0.002  0.012
   34  0.007  0.002  0.003  0.012
   35  0.000  0.003  0.005  0.008
   36  0.000  0.001  0.002  0.003
   37  0.000  0.000  0.000  0.000
   38  0.000  0.000  0.000  0.000
tot    0.344  0.116  0.178  0.638
 
band    10 # energy   -5.39895753 # occ.  2.00000000
 
ion      s      p      d    tot
    1  0.000  0.001  0.003  0.004
    2  0.010  0.002  0.002  0.015
    3  0.001  0.001  0.002  0.004
    4  0.010  0.002  0.002  0.015
    5  0.000  0.001  0.004  0.005
    6  0.005  0.002  0.002  0.009
    7  0.001  0.001  0.002  0.004
    8  0.005  0.002  0.002  0.009
    9  0.000  0.003  0.006  0.009
   10  0.000  0.013  0.002  0.015
   11  0.020  0.004  0.005  0.029
   12  0.006  0.004  0.005  0.014
   13  0.020  0.004  0.005  0.028
   14  0.000  0.001  0.015  0.016
   15  0.046  0.004  0.007  0.057
   16  0.006  0.003  0.005  0.014
   17  0.046  0.004  0.007  0.056
   18  0.000  0.006  0.012  0.018
   19  0.033  0.004  0.006  0.042
   20  0.000  0.011  0.004  0.015
   21  0.000  0.003  0.005  0.009
   22  0.037  0.004  0.006  0.047
   23  0.000  0.003  0.005  0.009
   24  0.000  0.010  0.007  0.017
   25  0.000  0.000  0.017  0.017
   26  0.033  0.004  0.006  0.042
   27  0.037  0.004  0.006  0.047
   28  0.000  0.001  0.005  0.006
   29  0.010  0.002  0.003  0.015
   30  0.002  0.001  0.002  0.006
   31  0.010  0.002  0.003  0.015
   32  0.003  0.001  0.002  0.006
   33  0.002  0.001  0.002  0.006
   34  0.003  0.001  0.002  0.006
   35  0.000  0.003  0.005  0.008
   36  0.000  0.001  0.002  0.003
   37  0.000  0.000  0.000  0.000
   38  0.000  0.000  0.000  0.000
tot    0.344  0.116  0.178  0.638
 
band    11 # energy   -5.34063102 # occ.  2.00000000
 
ion      s      p      d    tot
    1  0.000  0.000  0.002  0.002
    2  0.004  0.002  0.006  0.011
    3  0.004  0.002  0.006  0.011
    4  0.004  0.002  0.006  0.011
    5  0.040  0.003  0.000  0.043
    6  0.004  0.002  0.006  0.011
    7  0.004  0.002  0.006  0.011
    8  0.004  0.002  0.006  0.011
    9  0.002  0.002  0.005  0.009
   10  0.004  0.004  0.008  0.016
   11  0.015  0.008  0.004  0.028
   12  0.004  0.004  0.008  0.016
   13  0.015  0.008  0.004  0.028
   14  0.015  0.008  0.004  0.028
   15  0.028  0.002  0.010  0.040
   16  0.004  0.004  0.008  0.016
   17  0.028  0.002  0.010  0.040
   18  0.028  0.002  0.010  0.040
   19  0.009  0.002  0.008  0.019
   20  0.015  0.004  0.006  0.026
   21  0.015  0.004  0.006  0.026
   22  0.009  0.007  0.004  0.019
   23  0.015  0.004  0.006  0.026
   24  0.009  0.007  0.004  0.019
   25  0.009  0.002  0.008  0.019
   26  0.009  0.002  0.008  0.019
   27  0.009  0.007  0.004  0.019
   28  0.001  0.000  0.003  0.005
   29  0.004  0.001  0.004  0.009
   30  0.004  0.001  0.004  0.009
   31  0.004  0.001  0.004  0.009
   32  0.004  0.001  0.004  0.009
   33  0.004  0.001  0.004  0.009
   34  0.004  0.001  0.004  0.009
   35  0.000  0.001  0.002  0.003
   36  0.017  0.006  0.004  0.026
   37  0.001  0.002  0.000  0.003
   38  0.001  0.000  0.000  0.001
tot    0.348  0.110  0.195  0.653
 
band    12 # energy   -4.66776526 # occ.  2.00000000
 
ion      s      p      d    tot
    1  0.000  0.002  0.008  0.010
    2  0.004  0.002  0.005  0.010
    3  0.018  0.003  0.005  0.026
    4  0.003  0.002  0.005  0.010
    5  0.000  0.005  0.008  0.013
    6  0.006  0.002  0.004  0.012
    7  0.018  0.003  0.005  0.026
    8  0.006  0.002  0.004  0.012
    9  0.000  0.001  0.010  0.011
   10  0.000  0.000  0.015  0.015
   11  0.014  0.003  0.008  0.026
   12  0.009  0.003  0.009  0.021
   13  0.014  0.003  0.009  0.026
   14  0.000  0.001  0.022  0.024
   15  0.001  0.001  0.009  0.010
   16  0.009  0.003  0.009  0.021
   17  0.001  0.001  0.009  0.011
   18  0.000  0.004  0.015  0.019
   19  0.001  0.001  0.010  0.012
   20  0.000  0.001  0.026  0.027
   21  0.012  0.004  0.011  0.027
   22  0.006  0.003  0.010  0.018
   23  0.012  0.004  0.011  0.027
   24  0.000  0.001  0.011  0.012
   25  0.000  0.003  0.021  0.024
   26  0.001  0.001  0.010  0.012
   27  0.006  0.003  0.010  0.019
   28  0.000  0.002  0.013  0.015
   29  0.006  0.002  0.005  0.014
   30  0.026  0.004  0.003  0.033
   31  0.006  0.002  0.005  0.013
   32  0.007  0.002  0.005  0.014
   33  0.026  0.004  0.003  0.033
   34  0.007  0.002  0.005  0.015
   35  0.000  0.001  0.011  0.012
   36  0.000  0.018  0.001  0.019
   37  0.000  0.049  0.000  0.049
   38  0.000  0.001  0.000  0.001
tot    0.220  0.148  0.329  0.697
 
band    13 # energy   -4.66770284 # occ.  2.00000000
 
ion      s      p      d    tot
    1  0.000  0.002  0.008  0.010
    2  0.015  0.003  0.004  0.022
    3  0.000  0.001  0.004  0.006
    4  0.015  0.003  0.005  0.023
    5  0.000  0.005  0.008  0.013
    6  0.013  0.003  0.005  0.020
    7  0.000  0.001  0.004  0.006
    8  0.012  0.003  0.005  0.020
    9  0.000  0.001  0.010  0.011
   10  0.012  0.003  0.007  0.022
   11  0.004  0.002  0.018  0.024
   12  0.003  0.001  0.013  0.017
   13  0.005  0.002  0.017  0.024
   14  0.019  0.003  0.004  0.026
   15  0.000  0.003  0.013  0.016
   16  0.003  0.001  0.013  0.017
   17  0.000  0.003  0.013  0.016
   18  0.001  0.000  0.007  0.008
   19  0.000  0.002  0.018  0.020
   20  0.016  0.005  0.006  0.026
   21  0.004  0.002  0.021  0.027
   22  0.002  0.001  0.011  0.014
   23  0.004  0.002  0.021  0.027
   24  0.008  0.004  0.009  0.021
   25  0.002  0.000  0.006  0.008
   26  0.000  0.002  0.017  0.020
   27  0.002  0.001  0.011  0.014
   28  0.000  0.002  0.013  0.015
   29  0.020  0.003  0.004  0.027
   30  0.000  0.002  0.006  0.008
   31  0.021  0.003  0.004  0.028
   32  0.019  0.003  0.004  0.026
   33  0.000  0.002  0.006  0.008
   34  0.019  0.003  0.004  0.026
   35  0.000  0.001  0.011  0.012
   36  0.000  0.018  0.001  0.019
   37  0.000  0.050  0.000  0.050
   38  0.000  0.001  0.000  0.001
tot    0.220  0.148  0.329  0.697
 
band    14 # energy   -4.66416215 # occ.  2.00000000
 
ion      s      p      d    tot
    1  0.004  0.000  0.009  0.013
    2  0.004  0.001  0.009  0.014
    3  0.004  0.001  0.009  0.014
    4  0.004  0.001  0.009  0.014
    5  0.000  0.001  0.009  0.010
    6  0.005  0.001  0.009  0.014
    7  0.004  0.001  0.009  0.014
    8  0.004  0.001  0.009  0.014
    9  0.015  0.000  0.006  0.022
   10  0.007  0.000  0.024  0.032
   11  0.010  0.000  0.021  0.032
   12  0.007  0.000  0.025  0.032
   13  0.010  0.000  0.021  0.032
   14  0.010  0.000  0.021  0.031
   15  0.002  0.000  0.021  0.023
   16  0.007  0.000  0.025  0.032
   17  0.002  0.000  0.021  0.023
   18  0.002  0.000  0.021  0.023
   19  0.005  0.000  0.020  0.025
   20  0.011  0.001  0.028  0.039
   21  0.011  0.001  0.028  0.039
   22  0.003  0.000  0.022  0.024
   23  0.011  0.001  0.028  0.039
   24  0.002  0.000  0.022  0.024
   25  0.005  0.000  0.020  0.025
   26  0.005  0.000  0.020  0.025
   27  0.003  0.000  0.022  0.024
   28  0.003  0.000  0.007  0.010
   29  0.004  0.001  0.008  0.013
   30  0.004  0.001  0.008  0.013
   31  0.004  0.001  0.008  0.013
   32  0.004  0.001  0.008  0.013
   33  0.004  0.001  0.008  0.013
   34  0.004  0.001  0.008  0.013
   35  0.013  0.000  0.006  0.019
   36  0.000  0.003  0.009  0.012
   37  0.000  0.000  0.000  0.000
   38  0.000  0.000  0.000  0.000
tot    0.201  0.018  0.558  0.776
 
band    15 # energy   -4.63688204 # occ.  2.00000000
 
ion      s      p      d    tot
    1  0.036  0.003  0.000  0.039
    2  0.000  0.003  0.010  0.013
    3  0.000  0.003  0.010  0.013
    4  0.000  0.003  0.010  0.013
    5  0.000  0.000  0.001  0.001
    6  0.000  0.003  0.010  0.013
    7  0.000  0.003  0.010  0.013
    8  0.000  0.003  0.010  0.013
    9  0.027  0.004  0.001  0.031
   10  0.007  0.004  0.011  0.022
   11  0.002  0.000  0.015  0.017
   12  0.007  0.004  0.011  0.022
   13  0.002  0.000  0.015  0.017
   14  0.002  0.000  0.015  0.017
   15  0.007  0.003  0.018  0.028
   16  0.007  0.004  0.011  0.022
   17  0.007  0.003  0.018  0.028
   18  0.007  0.003  0.018  0.028
   19  0.005  0.004  0.017  0.025
   20  0.000  0.000  0.017  0.017
   21  0.000  0.000  0.016  0.017
   22  0.013  0.003  0.010  0.026
   23  0.000  0.000  0.016  0.017
   24  0.012  0.003  0.011  0.026
   25  0.004  0.004  0.017  0.025
   26  0.005  0.004  0.017  0.025
   27  0.013  0.003  0.010  0.026
   28  0.038  0.003  0.000  0.041
   29  0.000  0.003  0.010  0.013
   30  0.000  0.003  0.010  0.013
   31  0.000  0.003  0.010  0.013
   32  0.000  0.003  0.010  0.013
   33  0.000  0.003  0.010  0.013
   34  0.000  0.003  0.010  0.013
   35  0.024  0.004  0.002  0.029
   36  0.000  0.000  0.000  0.000
   37  0.000  0.000  0.000  0.000
   38  0.000  0.000  0.000  0.000
tot    0.225  0.090  0.392  0.706
 
band    16 # energy   -4.63454487 # occ.  2.00000000
 
ion      s      p      d    tot
    1  0.000  0.004  0.011  0.015
    2  0.003  0.002  0.005  0.011
    3  0.021  0.004  0.005  0.030
    4  0.003  0.002  0.005  0.011
    5  0.000  0.000  0.012  0.012
    6  0.007  0.002  0.005  0.015
    7  0.021  0.004  0.005  0.030
    8  0.007  0.002  0.005  0.015
    9  0.000  0.005  0.008  0.013
   10  0.008  0.001  0.006  0.015
   11  0.001  0.002  0.013  0.016
   12  0.002  0.003  0.021  0.026
   13  0.001  0.002  0.013  0.015
   14  0.003  0.001  0.010  0.014
   15  0.005  0.002  0.018  0.025
   16  0.002  0.003  0.021  0.026
   17  0.005  0.002  0.018  0.025
   18  0.020  0.006  0.007  0.033
   19  0.005  0.001  0.017  0.024
   20  0.001  0.001  0.011  0.013
   21  0.000  0.002  0.015  0.018
   22  0.003  0.003  0.021  0.027
   23  0.000  0.002  0.015  0.018
   24  0.013  0.002  0.005  0.020
   25  0.020  0.005  0.006  0.032
   26  0.005  0.001  0.017  0.024
   27  0.003  0.003  0.021  0.027
   28  0.000  0.004  0.008  0.012
   29  0.005  0.002  0.006  0.013
   30  0.022  0.004  0.005  0.031
   31  0.005  0.002  0.006  0.013
   32  0.006  0.002  0.006  0.014
   33  0.022  0.004  0.005  0.031
   34  0.006  0.002  0.006  0.014
   35  0.000  0.005  0.010  0.015
   36  0.000  0.000  0.010  0.010
   37  0.000  0.000  0.000  0.000
   38  0.000  0.000  0.000  0.000
tot    0.226  0.094  0.382  0.702
 
band    17 # energy   -4.63446480 # occ.  2.00000000
 
ion      s      p      d    tot
    1  0.000  0.004  0.011  0.015
    2  0.018  0.003  0.005  0.026
    3  0.000  0.002  0.005  0.007
    4  0.018  0.003  0.005  0.026
    5  0.000  0.000  0.012  0.012
    6  0.014  0.003  0.005  0.022
    7  0.000  0.002  0.005  0.007
    8  0.014  0.003  0.005  0.022
    9  0.000  0.005  0.008  0.013
   10  0.000  0.003  0.026  0.030
   11  0.002  0.002  0.011  0.014
   12  0.006  0.002  0.011  0.019
   13  0.002  0.002  0.011  0.014
   14  0.000  0.002  0.014  0.016
   15  0.015  0.004  0.010  0.030
   16  0.006  0.002  0.011  0.019
   17  0.015  0.004  0.010  0.030
   18  0.000  0.000  0.022  0.023
   19  0.015  0.004  0.010  0.029
   20  0.000  0.003  0.017  0.020
   21  0.001  0.001  0.013  0.015
   22  0.009  0.002  0.010  0.022
   23  0.001  0.001  0.012  0.015
   24  0.000  0.003  0.026  0.029
   25  0.000  0.000  0.021  0.021
   26  0.015  0.004  0.010  0.029
   27  0.009  0.002  0.010  0.022
   28  0.000  0.004  0.008  0.012
   29  0.017  0.003  0.006  0.026
   30  0.000  0.002  0.006  0.008
   31  0.017  0.003  0.006  0.026
   32  0.016  0.003  0.006  0.025
   33  0.000  0.002  0.006  0.008
   34  0.016  0.003  0.006  0.025
   35  0.000  0.005  0.010  0.015
   36  0.000  0.000  0.010  0.010
   37  0.000  0.000  0.000  0.000
   38  0.000  0.000  0.000  0.000
tot    0.226  0.094  0.382  0.702
 
band    18 # energy   -4.51188317 # occ.  2.00000000
 
ion      s      p      d    tot
    1  0.011  0.001  0.000  0.013
    2  0.000  0.003  0.011  0.014
    3  0.000  0.003  0.011  0.014
    4  0.000  0.003  0.011  0.014
    5  0.045  0.003  0.000  0.049
    6  0.000  0.003  0.011  0.014
    7  0.000  0.003  0.011  0.014
    8  0.000  0.003  0.011  0.014
    9  0.006  0.001  0.001  0.008
   10  0.001  0.001  0.025  0.027
   11  0.004  0.004  0.020  0.028
   12  0.001  0.001  0.025  0.027
   13  0.004  0.004  0.020  0.028
   14  0.004  0.004  0.020  0.028
   15  0.004  0.002  0.009  0.015
   16  0.001  0.001  0.025  0.027
   17  0.004  0.002  0.009  0.015
   18  0.004  0.002  0.009  0.015
   19  0.010  0.001  0.021  0.032
   20  0.010  0.004  0.010  0.024
   21  0.010  0.004  0.010  0.024
   22  0.003  0.002  0.018  0.023
   23  0.010  0.004  0.010  0.024
   24  0.003  0.002  0.018  0.023
   25  0.010  0.001  0.021  0.032
   26  0.010  0.001  0.021  0.032
   27  0.003  0.002  0.018  0.023
   28  0.002  0.002  0.005  0.008
   29  0.001  0.002  0.011  0.014
   30  0.001  0.002  0.011  0.014
   31  0.001  0.002  0.011  0.014
   32  0.001  0.002  0.011  0.014
   33  0.001  0.002  0.011  0.014
   34  0.001  0.002  0.011  0.014
   35  0.004  0.002  0.002  0.007
   36  0.032  0.011  0.004  0.047
   37  0.001  0.002  0.000  0.003
   38  0.001  0.000  0.000  0.001
tot    0.207  0.090  0.450  0.747
 
band    19 # energy   -4.44820659 # occ.  2.00000000
 
ion      s      p      d    tot
    1  0.000  0.001  0.001  0.002
    2  0.004  0.001  0.001  0.006
    3  0.001  0.000  0.001  0.002
    4  0.004  0.001  0.001  0.006
    5  0.000  0.001  0.002  0.003
    6  0.001  0.000  0.001  0.003
    7  0.001  0.000  0.001  0.002
    8  0.001  0.000  0.001  0.003
    9  0.000  0.000  0.004  0.004
   10  0.001  0.002  0.004  0.007
   11  0.000  0.000  0.008  0.008
   12  0.000  0.000  0.003  0.004
   13  0.000  0.000  0.008  0.008
   14  0.001  0.001  0.001  0.003
   15  0.000  0.000  0.004  0.004
   16  0.000  0.000  0.003  0.004
   17  0.000  0.000  0.004  0.004
   18  0.000  0.000  0.002  0.003
   19  0.000  0.000  0.001  0.001
   20  0.006  0.000  0.003  0.009
   21  0.002  0.000  0.009  0.011
   22  0.000  0.000  0.004  0.005
   23  0.002  0.000  0.009  0.011
   24  0.002  0.000  0.001  0.003
   25  0.000  0.000  0.002  0.003
   26  0.000  0.000  0.001  0.001
   27  0.000  0.000  0.004  0.005
   28  0.000  0.000  0.001  0.001
   29  0.002  0.002  0.010  0.014
   30  0.000  0.000  0.004  0.004
   31  0.002  0.002  0.010  0.014
   32  0.001  0.002  0.010  0.013
   33  0.000  0.000  0.004  0.004
   34  0.001  0.002  0.010  0.013
   35  0.000  0.000  0.002  0.002
   36  0.000  0.010  0.122  0.132
   37  0.000  0.400  0.000  0.400
   38  0.000  0.006  0.000  0.006
tot    0.036  0.434  0.259  0.729
 
band    20 # energy   -4.44813074 # occ.  2.00000000
 
ion      s      p      d    tot
    1  0.000  0.001  0.001  0.002
    2  0.000  0.000  0.001  0.002
    3  0.004  0.001  0.001  0.006
    4  0.000  0.000  0.001  0.002
    5  0.000  0.001  0.002  0.003
    6  0.003  0.001  0.001  0.005
    7  0.004  0.001  0.001  0.006
    8  0.003  0.001  0.001  0.005
    9  0.000  0.000  0.004  0.004
   10  0.000  0.000  0.003  0.003
   11  0.001  0.001  0.003  0.004
   12  0.001  0.001  0.003  0.006
   13  0.001  0.001  0.003  0.004
   14  0.000  0.000  0.010  0.010
   15  0.000  0.000  0.003  0.003
   16  0.001  0.001  0.003  0.006
   17  0.000  0.000  0.003  0.003
   18  0.000  0.000  0.005  0.005
   19  0.000  0.000  0.002  0.002
   20  0.000  0.000  0.011  0.012
   21  0.005  0.000  0.005  0.010
   22  0.001  0.000  0.002  0.004
   23  0.005  0.000  0.005  0.010
   24  0.000  0.000  0.005  0.005
   25  0.000  0.000  0.000  0.000
   26  0.000  0.000  0.002  0.002
   27  0.001  0.000  0.002  0.004
   28  0.000  0.000  0.001  0.001
   29  0.000  0.001  0.006  0.007
   30  0.002  0.002  0.012  0.017
   31  0.000  0.001  0.006  0.007
   32  0.001  0.001  0.006  0.007
   33  0.002  0.002  0.012  0.017
   34  0.001  0.001  0.006  0.007
   35  0.000  0.000  0.002  0.002
   36  0.000  0.010  0.122  0.132
   37  0.000  0.400  0.000  0.400
   38  0.000  0.006  0.000  0.006
tot    0.036  0.434  0.259  0.729
 
band    21 # energy   -3.96358794 # occ.  2.00000000
 
ion      s      p      d    tot
    1  0.000  0.000  0.037  0.037
    2  0.005  0.001  0.009  0.015
    3  0.005  0.001  0.010  0.016
    4  0.003  0.001  0.009  0.014
    5  0.000  0.002  0.007  0.008
    6  0.016  0.001  0.010  0.027
    7  0.003  0.001  0.010  0.014
    8  0.016  0.001  0.010  0.027
    9  0.000  0.003  0.013  0.015
   10  0.000  0.000  0.009  0.010
   11  0.000  0.002  0.011  0.014
   12  0.000  0.000  0.044  0.044
   13  0.000  0.001  0.010  0.011
   14  0.001  0.007  0.021  0.028
   15  0.000  0.001  0.032  0.033
   16  0.000  0.000  0.039  0.040