PROCAR new format
# of k-points:   10         # of bands:  252         # of ions:   37

 k-point     1 :    0.00000000 0.00000000 0.00000000     weight = 0.01562500

band     1 # energy   -8.48823940 # occ.  2.00000000
 
ion      s      p      d    tot
    1  0.000  0.000  0.000  0.000
    2  0.000  0.000  0.000  0.000
    3  0.000  0.000  0.000  0.000
    4  0.000  0.000  0.000  0.000
    5  0.000  0.000  0.000  0.000
    6  0.000  0.000  0.000  0.000
    7  0.000  0.000  0.000  0.000
    8  0.000  0.000  0.000  0.000
    9  0.000  0.000  0.000  0.000
   10  0.000  0.000  0.000  0.000
   11  0.000  0.000  0.000  0.000
   12  0.000  0.000  0.000  0.000
   13  0.000  0.000  0.000  0.000
   14  0.000  0.000  0.000  0.000
   15  0.000  0.000  0.000  0.000
   16  0.000  0.000  0.000  0.000
   17  0.000  0.000  0.000  0.000
   18  0.000  0.000  0.000  0.000
   19  0.000  0.000  0.000  0.000
   20  0.003  0.001  0.004  0.009
   21  0.003  0.001  0.004  0.009
   22  0.000  0.000  0.000  0.000
   23  0.003  0.001  0.004  0.009
   24  0.000  0.000  0.000  0.000
   25  0.000  0.000  0.000  0.000
   26  0.000  0.000  0.000  0.000
   27  0.000  0.000  0.000  0.000
   28  0.000  0.000  0.000  0.000
   29  0.002  0.000  0.001  0.004
   30  0.002  0.000  0.001  0.004
   31  0.002  0.000  0.001  0.004
   32  0.002  0.000  0.001  0.004
   33  0.002  0.000  0.001  0.004
   34  0.002  0.000  0.001  0.004
   35  0.000  0.000  0.000  0.000
   36  0.148  0.044  0.153  0.345
   37  0.396  0.018  0.000  0.415
tot    0.570  0.069  0.175  0.813
 
band     2 # energy   -6.84970474 # occ.  2.00000000
 
ion      s      p      d    tot
    1  0.006  0.001  0.000  0.007
    2  0.006  0.001  0.000  0.007
    3  0.006  0.001  0.000  0.007
    4  0.006  0.001  0.000  0.007
    5  0.006  0.001  0.000  0.007
    6  0.006  0.001  0.000  0.007
    7  0.006  0.001  0.000  0.007
    8  0.006  0.001  0.000  0.007
    9  0.006  0.001  0.000  0.007
   10  0.023  0.000  0.000  0.024
   11  0.025  0.000  0.000  0.025
   12  0.023  0.000  0.000  0.024
   13  0.025  0.000  0.000  0.025
   14  0.025  0.000  0.000  0.025
   15  0.023  0.000  0.000  0.023
   16  0.023  0.000  0.000  0.024
   17  0.023  0.000  0.000  0.023
   18  0.023  0.000  0.000  0.023
   19  0.021  0.000  0.001  0.022
   20  0.024  0.000  0.000  0.024
   21  0.024  0.000  0.000  0.024
   22  0.022  0.000  0.000  0.023
   23  0.024  0.000  0.000  0.024
   24  0.022  0.000  0.000  0.023
   25  0.021  0.000  0.000  0.022
   26  0.021  0.000  0.001  0.022
   27  0.022  0.000  0.000  0.023
   28  0.005  0.001  0.000  0.005
   29  0.004  0.001  0.000  0.005
   30  0.004  0.001  0.000  0.005
   31  0.004  0.001  0.000  0.005
   32  0.004  0.001  0.000  0.005
   33  0.004  0.001  0.000  0.005
   34  0.004  0.001  0.000  0.005
   35  0.005  0.001  0.000  0.005
   36  0.002  0.006  0.007  0.014
   37  0.014  0.000  0.000  0.014
tot    0.518  0.019  0.015  0.552
 
band     3 # energy   -6.00057958 # occ.  2.00000000
 
ion      s      p      d    tot
    1  0.008  0.000  0.000  0.009
    2  0.008  0.000  0.000  0.008
    3  0.008  0.000  0.000  0.008
    4  0.008  0.000  0.000  0.008
    5  0.007  0.000  0.000  0.008
    6  0.008  0.000  0.000  0.008
    7  0.008  0.000  0.000  0.008
    8  0.008  0.000  0.000  0.008
    9  0.008  0.000  0.000  0.008
   10  0.012  0.001  0.015  0.027
   11  0.010  0.001  0.016  0.028
   12  0.012  0.001  0.015  0.027
   13  0.010  0.001  0.016  0.028
   14  0.010  0.001  0.016  0.028
   15  0.010  0.001  0.013  0.024
   16  0.012  0.001  0.015  0.027
   17  0.010  0.001  0.013  0.024
   18  0.010  0.001  0.013  0.024
   19  0.011  0.001  0.017  0.028
   20  0.013  0.001  0.022  0.036
   21  0.013  0.001  0.022  0.036
   22  0.012  0.001  0.017  0.029
   23  0.013  0.001  0.022  0.036
   24  0.012  0.001  0.017  0.029
   25  0.011  0.001  0.017  0.028
   26  0.011  0.001  0.017  0.028
   27  0.012  0.001  0.017  0.029
   28  0.006  0.000  0.000  0.007
   29  0.006  0.000  0.000  0.007
   30  0.006  0.000  0.000  0.007
   31  0.006  0.000  0.000  0.007
   32  0.006  0.000  0.000  0.007
   33  0.006  0.000  0.000  0.007
   34  0.006  0.000  0.000  0.007
   35  0.006  0.000  0.000  0.006
   36  0.004  0.004  0.004  0.012
   37  0.007  0.000  0.000  0.007
tot    0.330  0.027  0.307  0.665
 
band     4 # energy   -5.77137024 # occ.  2.00000000
 
ion      s      p      d    tot
    1  0.007  0.000  0.014  0.021
    2  0.007  0.000  0.009  0.017
    3  0.007  0.000  0.009  0.017
    4  0.007  0.000  0.009  0.017
    5  0.006  0.000  0.007  0.013
    6  0.007  0.000  0.009  0.017
    7  0.007  0.000  0.009  0.017
    8  0.007  0.000  0.009  0.017
    9  0.009  0.000  0.007  0.016
   10  0.000  0.000  0.019  0.020
   11  0.000  0.000  0.010  0.010
   12  0.000  0.000  0.019  0.020
   13  0.000  0.000  0.010  0.010
   14  0.000  0.000  0.010  0.010
   15  0.000  0.000  0.006  0.007
   16  0.000  0.000  0.019  0.020
   17  0.000  0.000  0.006  0.007
   18  0.000  0.000  0.006  0.007
   19  0.002  0.000  0.012  0.013
   20  0.000  0.001  0.057  0.058
   21  0.000  0.001  0.057  0.058
   22  0.000  0.000  0.009  0.010
   23  0.000  0.001  0.057  0.058
   24  0.000  0.000  0.009  0.010
   25  0.002  0.000  0.011  0.013
   26  0.002  0.000  0.012  0.013
   27  0.000  0.000  0.009  0.010
   28  0.006  0.000  0.011  0.017
   29  0.012  0.000  0.020  0.032
   30  0.012  0.000  0.020  0.032
   31  0.012  0.000  0.020  0.032
   32  0.012  0.000  0.020  0.032
   33  0.012  0.000  0.020  0.032
   34  0.012  0.000  0.020  0.032
   35  0.010  0.000  0.010  0.020
   36  0.019  0.001  0.033  0.053
   37  0.005  0.000  0.000  0.005
tot    0.180  0.009  0.598  0.787
 
band     5 # energy   -5.65106405 # occ.  2.00000000
 
ion      s      p      d    tot
    1  0.000  0.000  0.007  0.007
    2  0.002  0.000  0.007  0.009
    3  0.002  0.000  0.007  0.009
    4  0.002  0.000  0.007  0.009
    5  0.006  0.000  0.003  0.009
    6  0.002  0.000  0.007  0.009
    7  0.002  0.000  0.007  0.009
    8  0.002  0.000  0.007  0.009
    9  0.004  0.000  0.002  0.005
   10  0.004  0.000  0.014  0.018
   11  0.001  0.001  0.024  0.025
   12  0.004  0.000  0.014  0.018
   13  0.001  0.001  0.024  0.025
   14  0.001  0.001  0.024  0.025
   15  0.002  0.000  0.012  0.014
   16  0.004  0.000  0.014  0.018
   17  0.002  0.000  0.012  0.014
   18  0.002  0.000  0.012  0.014
   19  0.001  0.001  0.034  0.035
   20  0.008  0.000  0.110  0.119
   21  0.008  0.000  0.110  0.118
   22  0.012  0.001  0.010  0.022
   23  0.008  0.000  0.110  0.118
   24  0.012  0.001  0.010  0.023
   25  0.001  0.001  0.033  0.035
   26  0.001  0.001  0.034  0.035
   27  0.012  0.001  0.010  0.022
   28  0.000  0.000  0.001  0.001
   29  0.000  0.000  0.003  0.004
   30  0.000  0.000  0.003  0.004
   31  0.000  0.000  0.003  0.004
   32  0.000  0.000  0.003  0.004
   33  0.000  0.000  0.003  0.004
   34  0.000  0.000  0.003  0.004
   35  0.003  0.001  0.003  0.007
   36  0.001  0.007  0.002  0.010
   37  0.006  0.000  0.000  0.006
tot    0.113  0.018  0.687  0.818
 
band     6 # energy   -5.63819539 # occ.  2.00000000
 
ion      s      p      d    tot
    1  0.000  0.000  0.007  0.007
    2  0.001  0.000  0.002  0.003
    3  0.001  0.000  0.002  0.003
    4  0.001  0.000  0.002  0.003
    5  0.000  0.000  0.005  0.005
    6  0.000  0.000  0.002  0.002
    7  0.001  0.000  0.002  0.003
    8  0.000  0.000  0.002  0.002
    9  0.000  0.000  0.001  0.001
   10  0.000  0.000  0.018  0.018
   11  0.001  0.000  0.023  0.025
   12  0.005  0.001  0.014  0.020
   13  0.001  0.000  0.023  0.025
   14  0.000  0.001  0.023  0.024
   15  0.002  0.000  0.009  0.011
   16  0.005  0.001  0.014  0.020
   17  0.002  0.000  0.009  0.011
   18  0.000  0.000  0.008  0.008
   19  0.014  0.001  0.036  0.050
   20  0.000  0.000  0.181  0.181
   21  0.023  0.000  0.051  0.074
   22  0.001  0.001  0.036  0.037
   23  0.023  0.000  0.049  0.073
   24  0.000  0.001  0.054  0.055
   25  0.000  0.001  0.015  0.016
   26  0.014  0.001  0.035  0.049
   27  0.001  0.001  0.035  0.037
   28  0.000  0.000  0.004  0.004
   29  0.000  0.000  0.007  0.007
   30  0.001  0.000  0.004  0.005
   31  0.000  0.000  0.007  0.007
   32  0.001  0.001  0.006  0.007
   33  0.001  0.000  0.004  0.005
   34  0.001  0.001  0.006  0.007
   35  0.000  0.000  0.001  0.001
   36  0.000  0.002  0.009  0.010
   37  0.000  0.000  0.000  0.000
tot    0.097  0.015  0.706  0.818
 
band     7 # energy   -5.63812564 # occ.  2.00000000
 
ion      s      p      d    tot
    1  0.000  0.000  0.007  0.007
    2  0.000  0.000  0.002  0.002
    3  0.000  0.000  0.002  0.003
    4  0.000  0.000  0.002  0.002
    5  0.000  0.000  0.005  0.005
    6  0.001  0.000  0.002  0.003
    7  0.000  0.000  0.002  0.003
    8  0.001  0.000  0.002  0.003
    9  0.000  0.000  0.001  0.001
   10  0.007  0.001  0.013  0.021
   11  0.000  0.001  0.023  0.024
   12  0.002  0.001  0.016  0.019
   13  0.000  0.001  0.023  0.024
   14  0.002  0.000  0.023  0.025
   15  0.001  0.000  0.008  0.009
   16  0.002  0.001  0.017  0.019
   17  0.001  0.000  0.008  0.009
   18  0.002  0.000  0.009  0.011
   19  0.004  0.001  0.021  0.027
   20  0.031  0.000  0.006  0.037
   21  0.008  0.000  0.136  0.145
   22  0.000  0.001  0.048  0.049
   23  0.008  0.000  0.138  0.146
   24  0.001  0.000  0.029  0.030
   25  0.018  0.000  0.043  0.061
   26  0.005  0.001  0.022  0.027
   27  0.000  0.001  0.048  0.049
   28  0.000  0.000  0.004  0.004
   29  0.001  0.001  0.004  0.006
   30  0.000  0.000  0.007  0.008
   31  0.001  0.001  0.004  0.006
   32  0.000  0.000  0.006  0.006
   33  0.000  0.000  0.007  0.008
   34  0.000  0.000  0.006  0.006
   35  0.000  0.000  0.001  0.001
   36  0.000  0.002  0.009  0.010
   37  0.000  0.000  0.000  0.000
tot    0.098  0.015  0.706  0.818
 
band     8 # energy   -5.62220805 # occ.  2.00000000
 
ion      s      p      d    tot
    1  0.016  0.001  0.001  0.018
    2  0.006  0.000  0.016  0.022
    3  0.006  0.000  0.016  0.022
    4  0.006  0.000  0.016  0.022
    5  0.007  0.000  0.027  0.034
    6  0.006  0.000  0.016  0.022
    7  0.006  0.000  0.016  0.022
    8  0.006  0.000  0.016  0.022
    9  0.001  0.001  0.019  0.020
   10  0.001  0.000  0.042  0.043
   11  0.000  0.000  0.041  0.042
   12  0.001  0.000  0.042  0.043
   13  0.000  0.000  0.042  0.042
   14  0.000  0.000  0.041  0.042
   15  0.010  0.000  0.012  0.022
   16  0.001  0.000  0.042  0.043
   17  0.010  0.000  0.012  0.022
   18  0.010  0.000  0.012  0.022
   19  0.004  0.000  0.007  0.010
   20  0.002  0.000  0.029  0.031
   21  0.002  0.000  0.029  0.031
   22  0.001  0.000  0.010  0.011
   23  0.002  0.000  0.029  0.031
   24  0.001  0.000  0.010  0.012
   25  0.003  0.000  0.007  0.010
   26  0.003  0.000  0.007  0.010
   27  0.001  0.000  0.010  0.011
   28  0.002  0.001  0.002  0.004
   29  0.000  0.000  0.015  0.015
   30  0.000  0.000  0.015  0.015
   31  0.000  0.000  0.015  0.015
   32  0.000  0.000  0.015  0.015
   33  0.000  0.000  0.015  0.015
   34  0.000  0.000  0.015  0.015
   35  0.000  0.000  0.000  0.000
   36  0.014  0.004  0.007  0.026
   37  0.005  0.000  0.000  0.005
tot    0.135  0.014  0.663  0.812
 
band     9 # energy   -5.60697668 # occ.  2.00000000
 
ion      s      p      d    tot
    1  0.000  0.000  0.004  0.004
    2  0.001  0.001  0.006  0.008
    3  0.001  0.000  0.003  0.004
    4  0.001  0.001  0.007  0.009
    5  0.000  0.000  0.009  0.009
    6  0.000  0.000  0.005  0.005
    7  0.000  0.000  0.002  0.003
    8  0.000  0.000  0.003  0.004
    9  0.000  0.000  0.001  0.001
   10  0.000  0.000  0.088  0.089
   11  0.027  0.001  0.026  0.053
   12  0.004  0.001  0.045  0.049
   13  0.019  0.001  0.045  0.065
   14  0.001  0.001  0.095  0.096
   15  0.007  0.000  0.032  0.040
   16  0.005  0.001  0.029  0.034
   17  0.005  0.001  0.025  0.031
   18  0.000  0.002  0.005  0.007
   19  0.001  0.000  0.014  0.016
   20  0.000  0.001  0.033  0.034
   21  0.005  0.001  0.041  0.047
   22  0.007  0.001  0.015  0.022
   23  0.008  0.001  0.044  0.052
   24  0.000  0.000  0.023  0.023
   25  0.000  0.000  0.027  0.027
   26  0.001  0.000  0.018  0.019
   27  0.009  0.001  0.012  0.022
   28  0.000  0.000  0.001  0.001
   29  0.000  0.000  0.003  0.003
   30  0.001  0.000  0.004  0.004
   31  0.000  0.000  0.003  0.003
   32  0.001  0.000  0.004  0.006
   33  0.001  0.000  0.004  0.005
   34  0.001  0.000  0.005  0.007
   35  0.000  0.000  0.006  0.006
   36  0.000  0.000  0.005  0.005
   37  0.000  0.000  0.000  0.000
tot    0.108  0.015  0.690  0.813
 
band    10 # energy   -5.60697539 # occ.  2.00000000
 
ion      s      p      d    tot
    1  0.000  0.000  0.004  0.004
    2  0.000  0.000  0.002  0.003
    3  0.001  0.000  0.006  0.007
    4  0.000  0.000  0.002  0.002
    5  0.000  0.000  0.009  0.009
    6  0.001  0.001  0.004  0.006
    7  0.001  0.000  0.007  0.008
    8  0.001  0.001  0.005  0.007
    9  0.000  0.000  0.001  0.001
   10  0.006  0.001  0.020  0.026
   11  0.004  0.001  0.085  0.090
   12  0.002  0.001  0.063  0.066
   13  0.012  0.001  0.065  0.078
   14  0.031  0.001  0.015  0.047
   15  0.001  0.001  0.009  0.012
   16  0.001  0.000  0.079  0.081
   17  0.003  0.001  0.017  0.021
   18  0.009  0.000  0.036  0.045
   19  0.000  0.000  0.025  0.025
   20  0.009  0.000  0.046  0.055
   21  0.003  0.001  0.038  0.042
   22  0.004  0.000  0.018  0.023
   23  0.001  0.001  0.035  0.037
   24  0.011  0.001  0.010  0.022
   25  0.001  0.000  0.013  0.014
   26  0.000  0.000  0.021  0.022
   27  0.002  0.000  0.021  0.023
   28  0.000  0.000  0.001  0.001
   29  0.001  0.000  0.005  0.007
   30  0.001  0.000  0.004  0.005
   31  0.001  0.000  0.005  0.006
   32  0.000  0.000  0.003  0.003
   33  0.001  0.000  0.003  0.004
   34  0.000  0.000  0.003  0.003
   35  0.000  0.000  0.006  0.006
   36  0.000  0.000  0.005  0.005
   37  0.000  0.000  0.000  0.000
tot    0.108  0.015  0.690  0.813
 
band    11 # energy   -5.58791942 # occ.  2.00000000
 
ion      s      p      d    tot
    1  0.000  0.000  0.002  0.003
    2  0.000  0.000  0.006  0.007
    3  0.000  0.000  0.006  0.006
    4  0.000  0.000  0.006  0.007
    5  0.005  0.001  0.003  0.008
    6  0.000  0.000  0.006  0.006
    7  0.000  0.000  0.006  0.006
    8  0.000  0.000  0.006  0.006
    9  0.000  0.000  0.004  0.004
   10  0.009  0.001  0.003  0.013
   11  0.013  0.001  0.048  0.062
   12  0.009  0.001  0.003  0.013
   13  0.013  0.001  0.048  0.062
   14  0.013  0.001  0.048  0.062
   15  0.000  0.000  0.043  0.044
   16  0.009  0.001  0.003  0.013
   17  0.000  0.000  0.043  0.044
   18  0.000  0.000  0.043  0.043
   19  0.012  0.001  0.028  0.041
   20  0.004  0.001  0.025  0.031
   21  0.004  0.001  0.025  0.030
   22  0.000  0.000  0.048  0.048
   23  0.004  0.001  0.025  0.030
   24  0.000  0.000  0.048  0.048
   25  0.012  0.001  0.028  0.041
   26  0.012  0.001  0.028  0.041
   27  0.000  0.000  0.048  0.048
   28  0.003  0.001  0.004  0.008
   29  0.000  0.000  0.003  0.003
   30  0.000  0.000  0.003  0.003
   31  0.000  0.000  0.003  0.003
   32  0.000  0.000  0.003  0.003
   33  0.000  0.000  0.003  0.003
   34  0.000  0.000  0.003  0.003
   35  0.001  0.000  0.003  0.005
   36  0.000  0.000  0.000  0.000
   37  0.000  0.000  0.000  0.000
tot    0.128  0.018  0.653  0.798
 
band    12 # energy   -5.56286511 # occ.  2.00000000
 
ion      s      p      d    tot
    1  0.001  0.000  0.017  0.018
    2  0.004  0.000  0.013  0.017
    3  0.004  0.000  0.013  0.017
    4  0.004  0.000  0.013  0.017
    5  0.001  0.000  0.004  0.005
    6  0.004  0.000  0.013  0.017
    7  0.004  0.000  0.013  0.017
    8  0.004  0.000  0.013  0.017
    9  0.011  0.000  0.014  0.025
   10  0.004  0.000  0.015  0.019
   11  0.001  0.000  0.015  0.015
   12  0.004  0.000  0.014  0.018
   13  0.001  0.000  0.015  0.015
   14  0.001  0.000  0.014  0.015
   15  0.000  0.000  0.021  0.022
   16  0.004  0.000  0.014  0.018
   17  0.000  0.000  0.021  0.022
   18  0.000  0.000  0.021  0.021
   19  0.001  0.001  0.007  0.009
   20  0.003  0.000  0.027  0.030
   21  0.003  0.000  0.026  0.029
   22  0.002  0.000  0.045  0.047
   23  0.003  0.000  0.026  0.029
   24  0.002  0.000  0.045  0.047
   25  0.001  0.001  0.007  0.009
   26  0.001  0.001  0.007  0.009
   27  0.002  0.000  0.045  0.047
   28  0.015  0.000  0.005  0.020
   29  0.007  0.000  0.019  0.026
   30  0.007  0.000  0.019  0.026
   31  0.007  0.000  0.019  0.026
   32  0.007  0.000  0.019  0.026
   33  0.007  0.000  0.019  0.026
   34  0.007  0.000  0.019  0.026
   35  0.007  0.000  0.037  0.044
   36  0.000  0.000  0.006  0.006
   37  0.000  0.000  0.000  0.000
tot    0.133  0.008  0.660  0.801
 
band    13 # energy   -5.55327012 # occ.  2.00000000
 
ion      s      p      d    tot
    1  0.000  0.001  0.009  0.010
    2  0.004  0.001  0.007  0.012
    3  0.002  0.000  0.005  0.008
    4  0.004  0.001  0.007  0.012
    5  0.000  0.000  0.009  0.009
    6  0.000  0.000  0.008  0.008
    7  0.003  0.001  0.005  0.009
    8  0.000  0.000  0.008  0.009
    9  0.000  0.000  0.012  0.012
   10  0.020  0.000  0.013  0.034
   11  0.000  0.000  0.017  0.017
   12  0.004  0.000  0.040  0.044
   13  0.000  0.000  0.014  0.015
   14  0.001  0.000  0.029  0.030
   15  0.004  0.000  0.051  0.055
   16  0.007  0.000  0.036  0.043
   17  0.002  0.000  0.059  0.061
   18  0.013  0.000  0.012  0.025
   19  0.003  0.000  0.050  0.052
   20  0.001  0.000  0.038  0.039
   21  0.000  0.000  0.021  0.021
   22  0.003  0.000  0.042  0.045
   23  0.000  0.000  0.024  0.024
   24  0.017  0.000  0.012  0.029
   25  0.008  0.000  0.010  0.019
   26  0.002  0.000  0.057  0.059
   27  0.005  0.000  0.037  0.043
   28  0.000  0.000  0.010  0.010
   29  0.001  0.000  0.008  0.009
   30  0.002  0.000  0.003  0.005
   31  0.000  0.000  0.007  0.008
   32  0.004  0.001  0.006  0.011
   33  0.001  0.000  0.003  0.004
   34  0.004  0.001  0.007  0.012
   35  0.000  0.000  0.005  0.005
   36  0.000  0.000  0.003  0.003
   37  0.000  0.000  0.000  0.000
tot    0.117  0.014  0.680  0.810
 
band    14 # energy   -5.55323642 # occ.  2.00000000
 
ion      s      p      d    tot
    1  0.000  0.001  0.009  0.010
    2  0.001  0.000  0.006  0.007
    3  0.002  0.001  0.008  0.011
    4  0.000  0.000  0.006  0.007
    5  0.000  0.000  0.009  0.009
    6  0.005  0.001  0.005  0.011
    7  0.002  0.001  0.008  0.010
    8  0.005  0.001  0.005  0.010
    9  0.000  0.000  0.012  0.012
   10  0.000  0.000  0.046  0.047
   11  0.000  0.000  0.023  0.024
   12  0.017  0.000  0.019  0.036
   13  0.001  0.000  0.025  0.026
   14  0.000  0.000  0.011  0.012
   15  0.009  0.000  0.030  0.039
   16  0.014  0.000  0.024  0.038
   17  0.011  0.000  0.022  0.033
   18  0.000  0.000  0.070  0.070
   19  0.006  0.000  0.028  0.034
   20  0.000  0.000  0.017  0.017
   21  0.001  0.000  0.034  0.035
   22  0.014  0.000  0.019  0.033
   23  0.001  0.000  0.031  0.032
   24  0.000  0.000  0.048  0.049
   25  0.000  0.000  0.068  0.068
   26  0.007  0.000  0.020  0.028
   27  0.011  0.000  0.024  0.035
   28  0.000  0.000  0.010  0.010
   29  0.003  0.001  0.004  0.007
   30  0.002  0.001  0.008  0.011
   31  0.004  0.001  0.004  0.009
   32  0.000  0.000  0.005  0.005
   33  0.003  0.001  0.008  0.012
   34  0.000  0.000  0.004  0.004
   35  0.000  0.000  0.005  0.005
   36  0.000  0.000  0.003  0.003
   37  0.000  0.000  0.000  0.000
tot    0.117  0.014  0.680  0.810
 
band    15 # energy   -5.54643965 # occ.  2.00000000
 
ion      s      p      d    tot
    1  0.003  0.000  0.011  0.014
    2  0.000  0.000  0.008  0.009
    3  0.000  0.000  0.008  0.009
    4  0.000  0.000  0.008  0.009
    5  0.001  0.000  0.001  0.003
    6  0.000  0.000  0.009  0.009
    7  0.000  0.000  0.008  0.009
    8  0.000  0.000  0.009  0.009
    9  0.001  0.000  0.004  0.005
   10  0.000  0.000  0.069  0.069
   11  0.006  0.001  0.004  0.011
   12  0.000  0.000  0.067  0.068
   13  0.006  0.001  0.004  0.011
   14  0.006  0.001  0.004  0.011
   15  0.005  0.000  0.049  0.054
   16  0.000  0.000  0.068  0.068
   17  0.005  0.000  0.049  0.054
   18  0.005  0.000  0.049  0.054
   19  0.001  0.000  0.045  0.046
   20  0.000  0.001  0.013  0.013
   21  0.000  0.001  0.012  0.013
   22  0.000  0.000  0.032  0.032
   23  0.000  0.001  0.012  0.013
   24  0.000  0.000  0.032  0.033
   25  0.001  0.000  0.044  0.046
   26  0.001  0.000  0.045  0.047
   27  0.000  0.000  0.032  0.032
   28  0.003  0.000  0.015  0.018
   29  0.001  0.000  0.010  0.011
   30  0.001  0.000  0.010  0.011
   31  0.001  0.000  0.010  0.011
   32  0.001  0.000  0.011  0.011
   33  0.001  0.000  0.010  0.011
   34  0.001  0.000  0.011  0.011
   35  0.000  0.000  0.001  0.001
   36  0.002  0.002  0.000  0.005
   37  0.002  0.000  0.000  0.002
tot    0.057  0.009  0.777  0.844
 
band    16 # energy   -5.54381163 # occ.  2.00000000
 
ion      s      p      d    tot
    1  0.000  0.000  0.009  0.009
    2  0.000  0.000  0.009  0.009
    3  0.001  0.000  0.006  0.007
    4  0.000  0.000  0.009  0.009
    5  0.000  0.000  0.002  0.002
    6  0.001  0.000  0.005  0.006
    7  0.001  0.000  0.007  0.007
    8  0.001  0.000  0.005  0.006
    9  0.000  0.000  0.015  0.015
   10  0.003  0.000  0.045  0.048
   11  0.000  0.000  0.047  0.048
   12  0.001  0.000  0.019  0.019
   13  0.000  0.000  0.049  0.049
   14  0.002  0.000  0.018  0.020
   15  0.002  0.000  0.072  0.075
   16  0.001  0.000  0.020  0.021
   17  0.002  0.000  0.075  0.077
   18  0.009  0.000  0.020  0.029
   19  0.001  0.000  0.059  0.060
   20  0.000  0.000  0.041  0.041
   21  0.000  0.000  0.019  0.019
   22  0.001  0.000  0.040  0.041
   23  0.000  0.000  0.020  0.020
   24  0.004  0.000  0.035  0.039
   25  0.004  0.000  0.009  0.013
   26  0.001  0.000  0.061  0.062
   27  0.001  0.000  0.040  0.041
   28  0.000  0.000  0.008  0.008
   29  0.001  0.000  0.006  0.008
   30  0.001  0.000  0.004  0.004
   31  0.001  0.000  0.006  0.008
   32  0.000  0.000  0.007  0.007
   33  0.001  0.000  0.003  0.004
   34  0.000  0.000  0.007  0.007
   35  0.000  0.000  0.012  0.012
   36  0.000  0.000  0.001  0.001
   37  0.000  0.000  0.000  0.000
tot    0.040  0.006  0.806  0.852
 
band    17 # energy   -5.54373177 # occ.  2.00000000
 
ion      s      p      d    tot
    1  0.000  0.000  0.009  0.009
    2  0.001  0.000  0.004  0.006
    3  0.001  0.000  0.007  0.008
    4  0.001  0.000  0.004  0.006
    5  0.000  0.000  0.002  0.002
    6  0.000  0.000  0.009  0.009
    7  0.001  0.000  0.007  0.008
    8  0.000  0.000  0.009  0.009
    9  0.000  0.000  0.015  0.015
   10  0.000  0.000  0.010  0.010
   11  0.001  0.000  0.028  0.030
   12  0.002  0.000  0.037  0.040
   13  0.001  0.000  0.027  0.029
   14  0.000  0.000  0.058  0.058
   15  0.006  0.000  0.039  0.045
   16  0.002  0.000  0.036  0.038
   17  0.007  0.000  0.037  0.043
   18  0.000  0.000  0.092  0.092
   19  0.003  0.000  0.027  0.030
   20  0.000  0.000  0.012  0.012
   21  0.000  0.000  0.034  0.034
   22  0.003  0.000  0.037  0.040
   23  0.000  0.000  0.033  0.033
   24  0.000  0.000  0.041  0.041
   25  0.000  0.000  0.078  0.078
   26  0.003  0.000  0.025  0.028
   27  0.003  0.000  0.037  0.040
   28  0.000  0.000  0.008  0.008
   29  0.000  0.000  0.005  0.005
   30  0.001  0.000  0.008  0.008
   31  0.000  0.000  0.005  0.005
   32  0.001  0.000  0.004  0.006
   33  0.001  0.000  0.008  0.008
   34  0.001  0.000  0.004  0.006
   35  0.000  0.000  0.012  0.012
   36  0.000  0.000  0.001  0.001
   37  0.000  0.000  0.000  0.000
tot    0.040  0.006  0.806  0.852
 
band    18 # energy   -5.43282475 # occ.  2.00000000
 
ion      s      p      d    tot
    1  0.000  0.000  0.001  0.001
    2  0.001  0.000  0.006  0.006
    3  0.001  0.001  0.006  0.008
    4  0.001  0.000  0.006  0.006
    5  0.000  0.001  0.016  0.017
    6  0.000  0.000  0.007  0.008
    7  0.001  0.001  0.006  0.008
    8  0.000  0.000  0.007  0.008
    9  0.000  0.000  0.009  0.009
   10  0.000  0.000  0.012  0.012
   11  0.002  0.000  0.053  0.056
   12  0.000  0.001  0.020  0.022
   13  0.002  0.000  0.055  0.057
   14  0.000  0.000  0.077  0.078
   15  0.002  0.000  0.020  0.023
   16  0.001  0.001  0.021  0.022
   17  0.002  0.000  0.020  0.022
   18  0.000  0.000  0.009  0.010
   19  0.001  0.001  0.019  0.020
   20  0.000  0.000  0.118  0.118
   21  0.002  0.000  0.090  0.092
   22  0.000  0.001  0.025  0.026
   23  0.002  0.000  0.088  0.090
   24  0.000  0.000  0.036  0.036
   25  0.000  0.000  0.000  0.000
   26  0.001  0.001  0.018  0.019
   27  0.000  0.001  0.025  0.026
   28  0.000  0.000  0.003  0.003
   29  0.001  0.001  0.009  0.010
   30  0.001  0.001  0.007  0.009
   31  0.001  0.001  0.009  0.010
   32  0.000  0.000  0.007  0.007
   33  0.001  0.001  0.007  0.009
   34  0.000  0.000  0.007  0.007
   35  0.000  0.000  0.000  0.000
   36  0.000  0.002  0.010  0.013
   37  0.000  0.000  0.000  0.000
tot    0.024  0.016  0.830  0.869
 
band    19 # energy   -5.43279508 # occ.  2.00000000
 
ion      s      p      d    tot
    1  0.000  0.000  0.001  0.001
    2  0.001  0.001  0.007  0.008
    3  0.000  0.000  0.007  0.007
    4  0.001  0.001  0.007  0.008
    5  0.000  0.001  0.016  0.017
    6  0.001  0.000  0.005  0.007
    7  0.000  0.000  0.007  0.007
    8  0.001  0.000  0.005  0.007
    9  0.000  0.000  0.009  0.009
   10  0.001  0.001  0.024  0.026
   11  0.001  0.000  0.070  0.071
   12  0.000  0.000  0.015  0.015
   13  0.001  0.000  0.069  0.070
   14  0.003  0.000  0.046  0.050
   15  0.001  0.000  0.013  0.013
   16  0.000  0.000  0.014  0.015
   17  0.001  0.000  0.013  0.014
   18  0.003  0.000  0.023  0.026
   19  0.000  0.000  0.006  0.006
   20  0.003  0.000  0.080  0.082
   21  0.001  0.000  0.108  0.108
   22  0.000  0.000  0.032  0.032
   23  0.001  0.000  0.109  0.110
   24  0.000  0.001  0.021  0.022
   25  0.001  0.001  0.024  0.026
   26  0.000  0.000  0.007  0.007
   27  0.000  0.000  0.033  0.033
   28  0.000  0.000  0.003  0.003
   29  0.000  0.000  0.007  0.007
   30  0.000  0.000  0.008  0.009
   31  0.000  0.000  0.007  0.007
   32  0.001  0.001  0.008  0.010
   33  0.000  0.000  0.008  0.009
   34  0.001  0.001  0.008  0.010
   35  0.000  0.000  0.000  0.000
   36  0.000  0.002  0.010  0.013
   37  0.000  0.000  0.000  0.000
tot    0.024  0.016  0.830  0.869
 
band    20 # energy   -5.41151513 # occ.  2.00000000
 
ion      s      p      d    tot
    1  0.000  0.000  0.000  0.000
    2  0.000  0.000  0.004  0.004
    3  0.000  0.000  0.004  0.004
    4  0.000  0.000  0.004  0.004
    5  0.001  0.000  0.015  0.017
    6  0.000  0.000  0.004  0.004
    7  0.000  0.000  0.004  0.004
    8  0.000  0.000  0.004  0.004
    9  0.001  0.001  0.009  0.010
   10  0.000  0.000  0.013  0.013
   11  0.000  0.001  0.079  0.080
   12  0.000  0.000  0.012  0.013
   13  0.000  0.001  0.079  0.080
   14  0.000  0.001  0.079  0.079
   15  0.000  0.001  0.040  0.041
   16  0.000  0.000  0.012  0.013
   17  0.000  0.001  0.040  0.041
   18  0.000  0.001  0.040  0.041
   19  0.000  0.000  0.015  0.015
   20  0.001  0.001  0.068  0.069
   21  0.001  0.001  0.068  0.069
   22  0.003  0.000  0.022  0.025
   23  0.001  0.001  0.068  0.069
   24  0.003  0.000  0.022  0.025
   25  0.000  0.000  0.015  0.015
   26  0.000  0.000  0.015  0.015
   27  0.003  0.000  0.022  0.025
   28  0.003  0.001  0.000  0.004
   29  0.000  0.000  0.012  0.012
   30  0.000  0.000  0.012  0.012
   31  0.000  0.000  0.012  0.012
   32  0.000  0.000  0.012  0.012
   33  0.000  0.000  0.012  0.012
   34  0.000  0.000  0.012  0.012
   35  0.004  0.000  0.002  0.006
   36  0.001  0.002  0.001  0.004
   37  0.002  0.000  0.000  0.002
tot    0.024  0.015  0.830  0.869
 
band    21 # energy   -5.38656871 # occ.  2.00000000
 
ion      s      p      d    tot
    1  0.000  0.000  0.002  0.002
    2  0.000  0.001  0.015  0.015
    3  0.000  0.001  0.015  0.015
    4  0.000  0.001  0.015  0.015
    5  0.005  0.001  0.000  0.006
    6  0.000  0.001  0.015  0.015
    7  0.000  0.001  0.015  0.015
    8  0.000  0.001  0.015  0.015
    9  0.003  0.000  0.002  0.006
   10  0.003  0.001  0.036  0.039
   11  0.000  0.000  0.028  0.029
   12  0.003  0.001  0.036  0.039
   13  0.000  0.000  0.028  0.029
   14  0.000  0.000  0.028  0.029
   15  0.005  0.000  0.017  0.022
   16  0.003  0.001  0.036  0.039
   17  0.005  0.000  0.017  0.022
   18  0.005  0.000  0.017  0.022
   19  0.001  0.000  0.054  0.055
   20  0.000  0.000  0.010  0.011
   21  0.000  0.000  0.010  0.011
   22  0.000  0.001  0.041  0.042
   23  0.000  0.000  0.010  0.011
   24  0.000  0.001  0.041  0.043
   25  0.001  0.000  0.054  0.055
   26  0.001  0.000  0.054  0.055
   27  0.000  0.001  0.041  0.042
   28  0.002  0.000  0.027  0.029
   29  0.001  0.000  0.015  0.016
   30  0.001  0.000  0.015  0.016
   31  0.001  0.000  0.015  0.016
   32  0.001  0.000  0.015  0.016
   33  0.001  0.000  0.015  0.016
   34  0.001  0.000  0.015  0.016
   35  0.007  0.001  0.000  0.008
   36  0.003  0.001  0.000  0.004