 vasp.6.2.0 18Jan21 (build Jun 12 2021 23:27:24) complex                        
  
 executed on             LinuxIFC date 2022.05.30  17:27:28
 running on   28 total cores
 distrk:  each k-point on   28 cores,    1 groups
 distr:  one band on NCORE=   1 cores,   28 groups


--------------------------------------------------------------------------------------------------------


 INCAR:
   ISMEAR = -5
   SIGMA = 0.1
   ISPIN = 1
   EDIFF = 1.d-5
   EDIFFG = -0.01
   NSW = 0
   NELM = 150
   ENCUT = 500
   ISIF = 2
   IBRION = 2
   LREAL = Auto
   ALGO = Fast
   ICHARG = 11
   LORBIT = 10
   LCHARG = .F.
   LWAVE = .F.

 POTCAR:    PAW_PBE Ag 02Apr2005                  
 POTCAR:    PAW_PBE Pd 04Jan2005                  
 POTCAR:    PAW_PBE C 08Apr2002                   
 -----------------------------------------------------------------------------
|                                                                             |
|           W    W    AA    RRRRR   N    N  II  N    N   GGGG   !!!           |
|           W    W   A  A   R    R  NN   N  II  NN   N  G    G  !!!           |
|           W    W  A    A  R    R  N N  N  II  N N  N  G       !!!           |
|           W WW W  AAAAAA  RRRRR   N  N N  II  N  N N  G  GGG   !            |
|           WW  WW  A    A  R   R   N   NN  II  N   NN  G    G                |
|           W    W  A    A  R    R  N    N  II  N    N   GGGG   !!!           |
|                                                                             |
|     For optimal performance we recommend to set                             |
|       NCORE = 2 up to number-of-cores-per-socket                            |
|     NCORE specifies how many cores store one orbital (NPAR=cpu/NCORE).      |
|     This setting can greatly improve the performance of VASP for DFT.       |
|     The default, NCORE=1 might be grossly inefficient on modern             |
|     multi-core architectures or massively parallel machines. Do your        |
|     own testing! More info at https://www.vasp.at/wiki/index.php/NCORE      |
|     Unfortunately you need to use the default for GW and RPA                |
|     calculations (for HF NCORE is supported but not extensively tested      |
|     yet).                                                                   |
|                                                                             |
 -----------------------------------------------------------------------------

 POTCAR:    PAW_PBE Ag 02Apr2005                  
   VRHFIN =Ag : s1 d10                                                                              
   LEXCH  = PE                                                                                      
   EATOM  =  1037.2675 eV,   76.2370 Ry                                                             
                                                                                                    
   TITEL  = PAW_PBE Ag 02Apr2005                                                                    
   LULTRA =        F    use ultrasoft PP ?                                                          
   IUNSCR =        1    unscreen: 0-lin 1-nonlin 2-no                                               
   RPACOR =    2.000    partial core radius                                                         
   POMASS =  107.868; ZVAL   =   11.000    mass and valenz                                          
   RCORE  =    2.500    outmost cutoff radius                                                       
   RWIGS  =    2.840; RWIGS  =    1.503    wigner-seitz radius (au A)                               
   ENMAX  =  249.844; ENMIN  =  187.383 eV                                                          
   ICORE  =        3    local potential                                                             
   LCOR   =        T    correct aug charges                                                         
   LPAW   =        T    paw PP                                                                      
   EAUG   =  412.496                                                                                
   DEXC   =    0.000                                                                                
   RMAX   =    2.560    core radius for proj-oper                                                   
   RAUG   =    1.300    factor for augmentation sphere                                              
   RDEP   =    2.576    radius for radial grids                                                     
   RDEPT  =    2.072    core radius for aug-charge                                                  
                                                                                                    
   Atomic configuration                                                                             
   12 entries                                                                                       
     n  l   j            E        occ.                                                              
     1  0  0.50    -25324.9161   2.0000                                                             
     2  0  0.50     -3728.5341   2.0000                                                             
     2  1  1.50     -3344.0404   6.0000                                                             
     3  0  0.50      -683.5581   2.0000                                                             
     3  1  1.50      -557.3225   6.0000                                                             
     3  2  2.50      -358.3853  10.0000                                                             
     4  0  0.50       -95.0341   2.0000                                                             
     4  1  1.50       -58.5511   6.0000                                                             
     4  2  2.50        -7.4440  10.0000                                                             
     5  0  0.50        -4.4045   1.0000                                                             
     5  1  0.50        -1.3606   0.0000                                                             
     4  3  2.50        -1.3606   0.0000                                                             
   Description                                                                                      
     l       E           TYP  RCUT    TYP  RCUT                                                     
     2     -7.4439781     23  2.400                                                                 
     2     -8.8045607     23  2.400                                                                 
     0     -4.4044681     23  2.400                                                                 
     0      1.9520038     23  2.400                                                                 
     1     -1.3605826     23  2.500                                                                 
     1     27.2116520     23  2.500                                                                 
     3     -4.0817478     23  2.400                                                                 
  local pseudopotential read in
  partial core-charges read in
  partial kinetic energy density read in
  atomic valenz-charges read in
  non local Contribution for L=           2  read in
    real space projection operators read in
  non local Contribution for L=           2  read in
    real space projection operators read in
  non local Contribution for L=           0  read in
    real space projection operators read in
  non local Contribution for L=           0  read in
    real space projection operators read in
  non local Contribution for L=           1  read in
    real space projection operators read in
  non local Contribution for L=           1  read in
    real space projection operators read in
    PAW grid and wavefunctions read in
 
   number of l-projection  operators is LMAX  =           6
   number of lm-projection operators is LMMAX =          18
 
 POTCAR:    PAW_PBE Pd 04Jan2005                  
   VRHFIN =Pd : s1 d9                                                                               
   LEXCH  = PE                                                                                      
   EATOM  =   809.7530 eV,   59.5152 Ry                                                             
                                                                                                    
   TITEL  = PAW_PBE Pd 04Jan2005                                                                    
   LULTRA =        F    use ultrasoft PP ?                                                          
   IUNSCR =        1    unscreen: 0-lin 1-nonlin 2-no                                               
   RPACOR =    2.000    partial core radius                                                         
   POMASS =  106.420; ZVAL   =   10.000    mass and valenz                                          
   RCORE  =    2.600    outmost cutoff radius                                                       
   RWIGS  =    2.710; RWIGS  =    1.434    wigner-seitz radius (au A)                               
   ENMAX  =  250.925; ENMIN  =  188.194 eV                                                          
   ICORE  =        3    local potential                                                             
   LCOR   =        T    correct aug charges                                                         
   LPAW   =        T    paw PP                                                                      
   EAUG   =  416.230                                                                                
   DEXC   =    0.000                                                                                
   RMAX   =    2.653    core radius for proj-oper                                                   
   RAUG   =    1.300    factor for augmentation sphere                                              
   RDEP   =    2.734    radius for radial grids                                                     
   RDEPT  =    2.103    core radius for aug-charge                                                  
                                                                                                    
   Atomic configuration                                                                             
   12 entries                                                                                       
     n  l   j            E        occ.                                                              
     1  0  0.50    -24164.6631   2.0000                                                             
     2  0  0.50     -3530.9218   2.0000                                                             
     2  1  1.50     -3165.6822   6.0000                                                             
     3  0  0.50      -639.4577   2.0000                                                             
     3  1  1.50      -519.4532   6.0000                                                             
     3  2  2.50      -328.9757  10.0000                                                             
     4  0  0.50       -88.7014   2.0000                                                             
     4  1  1.50       -54.4540   6.0000                                                             
     4  2  2.50        -6.6878   9.0000                                                             
     5  0  0.50        -4.3543   1.0000                                                             
     5  1  0.50        -1.3606   0.0000                                                             
     4  3  2.50        -1.3606   0.0000                                                             
   Description                                                                                      
     l       E           TYP  RCUT    TYP  RCUT                                                     
     2     -6.6878251     23  2.400                                                                 
     2     -8.0484077     23  2.400                                                                 
     0     -4.3542939     23  2.400                                                                 
     0      4.3406793     23  2.400                                                                 
     1     -4.0817478     23  2.600                                                                 
     1     15.8380318     23  2.600                                                                 
     3     -4.0817478     23  2.400                                                                 
  local pseudopotential read in
  partial core-charges read in
  partial kinetic energy density read in
  atomic valenz-charges read in
  non local Contribution for L=           2  read in
    real space projection operators read in
  non local Contribution for L=           2  read in
    real space projection operators read in
  non local Contribution for L=           0  read in
    real space projection operators read in
  non local Contribution for L=           0  read in
    real space projection operators read in
  non local Contribution for L=           1  read in
    real space projection operators read in
  non local Contribution for L=           1  read in
    real space projection operators read in
    PAW grid and wavefunctions read in
 
   number of l-projection  operators is LMAX  =           6
   number of lm-projection operators is LMMAX =          18
 
 POTCAR:    PAW_PBE C 08Apr2002                   
   VRHFIN =C: s2p2                                                                                  
   LEXCH  = PE                                                                                      
   EATOM  =   147.1560 eV,   10.8157 Ry                                                             
                                                                                                    
   TITEL  = PAW_PBE C 08Apr2002                                                                     
   LULTRA =        F    use ultrasoft PP ?                                                          
   IUNSCR =        1    unscreen: 0-lin 1-nonlin 2-no                                               
   RPACOR =    1.200    partial core radius                                                         
   POMASS =   12.011; ZVAL   =    4.000    mass and valenz                                          
   RCORE  =    1.500    outmost cutoff radius                                                       
   RWIGS  =    1.630; RWIGS  =    0.863    wigner-seitz radius (au A)                               
   ENMAX  =  400.000; ENMIN  =  300.000 eV                                                          
   ICORE  =        2    local potential                                                             
   LCOR   =        T    correct aug charges                                                         
   LPAW   =        T    paw PP                                                                      
   EAUG   =  644.873                                                                                
   DEXC   =    0.000                                                                                
   RMAX   =    1.529    core radius for proj-oper                                                   
   RAUG   =    1.300    factor for augmentation sphere                                              
   RDEP   =    1.501    radius for radial grids                                                     
   RDEPT  =    1.300    core radius for aug-charge                                                  
                                                                                                    
   Atomic configuration                                                                             
    4 entries                                                                                       
     n  l   j            E        occ.                                                              
     1  0  0.50      -273.3789   2.0000                                                             
     2  0  0.50       -13.7508   2.0000                                                             
     2  1  0.50        -5.2854   2.0000                                                             
     3  2  1.50        -5.4423   0.0000                                                             
   Description                                                                                      
     l       E           TYP  RCUT    TYP  RCUT                                                     
     0    -13.7508458     23  1.200                                                                 
     0     -8.2022199     23  1.200                                                                 
     1     -5.2854383     23  1.500                                                                 
     1     34.0145650     23  1.500                                                                 
     2     -5.4423304      7  1.500                                                                 
  local pseudopotential read in
  partial core-charges read in
  partial kinetic energy density read in
  atomic valenz-charges read in
  non local Contribution for L=           0  read in
    real space projection operators read in
  non local Contribution for L=           0  read in
    real space projection operators read in
  non local Contribution for L=           1  read in
    real space projection operators read in
  non local Contribution for L=           1  read in
    real space projection operators read in
    PAW grid and wavefunctions read in
 
   number of l-projection  operators is LMAX  =           4
   number of lm-projection operators is LMMAX =           8
 
 Optimization of the real space projectors (new method)

 maximal supplied QI-value         = 15.12
 optimisation between [QCUT,QGAM] = [ 11.34, 22.83] = [ 36.00,145.93] Ry 
 Optimized for a Real-space Cutoff    1.43 Angstroem

   l    n(q)    QCUT    max X(q) W(low)/X(q) W(high)/X(q)  e(spline) 
   2      9    11.338    53.897    0.16E-03    0.20E-03    0.28E-06
   2      9    11.338    52.416    0.16E-03    0.20E-03    0.29E-06
   0     10    11.338   122.045    0.31E-04    0.76E-04    0.15E-06
   0     10    11.338    73.629    0.30E-04    0.72E-04    0.15E-06
   1      9    11.338    15.255    0.20E-03    0.19E-04    0.17E-06
   1      9    11.338     9.562    0.16E-03    0.15E-04    0.14E-06
 Optimization of the real space projectors (new method)

 maximal supplied QI-value         = 14.36
 optimisation between [QCUT,QGAM] = [ 11.35, 22.84] = [ 36.05,146.02] Ry 
 Optimized for a Real-space Cutoff    1.47 Angstroem

   l    n(q)    QCUT    max X(q) W(low)/X(q) W(high)/X(q)  e(spline) 
   2      9    11.346    59.108    0.74E-04    0.81E-04    0.26E-06
   2      9    11.346    58.101    0.74E-04    0.83E-04    0.27E-06
   0     10    11.346   102.235    0.26E-04    0.31E-04    0.16E-06
   0     10    11.346    58.388    0.23E-04    0.29E-04    0.15E-06
   1     10    11.346    22.191    0.23E-03    0.26E-03    0.14E-06
   1     10    11.346    15.590    0.19E-03    0.22E-03    0.12E-06
 Optimization of the real space projectors (new method)

 maximal supplied QI-value         = 25.13
 optimisation between [QCUT,QGAM] = [ 11.31, 22.87] = [ 35.82,146.48] Ry 
 Optimized for a Real-space Cutoff    1.00 Angstroem

   l    n(q)    QCUT    max X(q) W(low)/X(q) W(high)/X(q)  e(spline) 
   0      7    11.310   115.676    0.43E-03    0.13E-02    0.19E-06
   0      7    11.310    87.132    0.43E-03    0.13E-02    0.18E-06
   1      6    11.310     4.429    0.42E-03    0.74E-03    0.11E-06
   1      6    11.310     2.733    0.34E-03    0.55E-03    0.92E-07
  PAW_PBE Ag 02Apr2005                  :
 energy of atom  1       EATOM=-1037.2675
 kinetic energy error for atom=    0.0052 (will be added to EATOM!!)
  PAW_PBE Pd 04Jan2005                  :
 energy of atom  2       EATOM= -809.7530
 kinetic energy error for atom=    0.0049 (will be added to EATOM!!)
  PAW_PBE C 08Apr2002                   :
 energy of atom  3       EATOM= -147.1560
 kinetic energy error for atom=    0.0076 (will be added to EATOM!!)
 
 
 POSCAR: Ag-Pd-C
  positions in direct lattice
  velocities in cartesian coordinates
 exchange correlation table for  LEXCH =        8
   RHO(1)=    0.500       N(1)  =     2000
   RHO(2)=  100.500       N(2)  =     4000

 VTST: version 3.2, (02/03/18)

 CHAIN: initializing optimizer
 
 OPT: Using VASP Conjugate-Gradient optimizer
 CHAIN: Read ICHAIN            0
 
 POSCAR: Ag-Pd-C
  positions in direct lattice
  velocities in cartesian coordinates
 


--------------------------------------------------------------------------------------------------------


 ion  position               nearest neighbor table
   1  0.000  0.000  0.217-   2 2.93   8 2.93   7 2.93   6 2.93   4 2.93  12 2.93  16 2.93  10 2.93
                             3 2.93
   2  0.333  0.000  0.217-   1 2.93   8 2.93   9 2.93   3 2.93   4 2.93   5 2.93  10 2.93  17 2.93
                            11 2.93
   3  0.667  0.000  0.217-   9 2.93   2 2.93   5 2.93  11 2.93   7 2.93  18 2.93   1 2.93   6 2.93
                            12 2.93
   4  0.000  0.333  0.217-   5 2.93   6 2.93   2 2.93   1 2.93   7 2.93  13 2.93  15 2.93   9 2.93
                            10 2.93
   5  0.333  0.333  0.217-   4 2.93   3 2.93   7 2.93   2 2.93   8 2.93  14 2.93  13 2.93  11 2.93
                             6 2.93
   6  0.667  0.333  0.217-   4 2.93   9 2.93   1 2.93  15 2.93   8 2.93  12 2.93   3 2.93   5 2.93
                            14 2.93
   7  0.000  0.667  0.217-   8 2.93   1 2.93   5 2.93   3 2.93   4 2.93  16 2.93  18 2.93  13 2.93
                             9 2.93
   8  0.333  0.667  0.217-   7 2.93   1 2.93   2 2.93   9 2.93   5 2.93  16 2.93   6 2.93  17 2.93
                            14 2.93
   9  0.667  0.667  0.217-   3 2.93   2 2.93   8 2.93   6 2.93  17 2.93   4 2.93  15 2.93   7 2.93
                            18 2.93
  10  0.111  0.111  0.315-  20 2.91  19 2.92  26 2.92  12 2.93  16 2.93  15 2.93  17 2.93  13 2.93
                            11 2.93   2 2.93   1 2.93   4 2.93
  11  0.444  0.111  0.315-  21 2.91  20 2.91  27 2.91  14 2.93  17 2.93  18 2.93   3 2.93  12 2.93
                            13 2.93  10 2.93   5 2.93   2 2.93
  12  0.778  0.111  0.315-  21 2.91  25 2.92  19 2.92  10 2.93  16 2.93  18 2.93  15 2.93  11 2.93
                             1 2.93  14 2.93   6 2.93   3 2.93
  13  0.111  0.444  0.315-  20 2.91  23 2.91  22 2.91  15 2.93  14 2.93  18 2.93  10 2.93  11 2.93
                            16 2.93   4 2.93   5 2.93   7 2.93
  14  0.444  0.444  0.315-  23 2.91  21 2.91  24 2.91  13 2.93  11 2.93  16 2.93   5 2.93  12 2.93
                            17 2.93   8 2.93  15 2.93   6 2.93
  15  0.778  0.444  0.315-  24 2.91  22 2.91  19 2.92  13 2.93  10 2.93  12 2.93  17 2.93  18 2.93
                             4 2.93   6 2.93   9 2.93  14 2.93
  16  0.111  0.778  0.315-  23 2.91  26 2.92  25 2.92  18 2.93  12 2.93  10 2.93  14 2.93  17 2.93
                            13 2.93   7 2.93   8 2.93   1 2.93
  17  0.444  0.778  0.315-  27 2.91  24 2.91  26 2.92  11 2.93  10 2.93   9 2.93  18 2.93  15 2.93
                            16 2.93   2 2.93  14 2.93   8 2.93
  18  0.778  0.778  0.315-  22 2.91  27 2.91  25 2.92  16 2.93  12 2.93  13 2.93  11 2.93  17 2.93
                            15 2.93   7 2.93   3 2.93   9 2.93
  19  0.889  0.223  0.413-  28 2.91  15 2.92  10 2.92  12 2.92  32 2.92  31 2.92  20 2.93  21 2.93
                            24 2.93  22 2.93  26 2.93  25 2.93
  20  0.222  0.222  0.412-  36 2.81  10 2.91  13 2.91  11 2.91  31 2.91  29 2.91  19 2.93  26 2.93
                            27 2.93  22 2.93  21 2.94  23 2.94
  21  0.556  0.222  0.412-  36 2.81  12 2.91  11 2.91  14 2.91  30 2.91  32 2.91  25 2.93  19 2.93
                            27 2.93  24 2.93  20 2.94  23 2.94
  22  0.889  0.556  0.412-  35 2.91  18 2.91  15 2.91  13 2.91  33 2.92  31 2.92  25 2.93  19 2.93
                            24 2.93  27 2.93  23 2.93  20 2.93
  23  0.222  0.556  0.412-  36 2.81  16 2.91  14 2.91  13 2.91  34 2.91  33 2.91  26 2.93  25 2.93
                            22 2.93  24 2.93  21 2.94  20 2.94
  24  0.556  0.556  0.412-  35 2.91  15 2.91  17 2.91  14 2.91  32 2.92  34 2.92  19 2.93  26 2.93
                            27 2.93  22 2.93  23 2.93  21 2.93
  25  0.889  0.889  0.413-  28 2.91  18 2.92  16 2.92  12 2.92  33 2.92  30 2.92  23 2.93  21 2.93
                            22 2.93  27 2.93  26 2.93  19 2.93
  26  0.223  0.889  0.413-  28 2.91  17 2.92  16 2.92  10 2.92  34 2.92  29 2.92  23 2.93  20 2.93
                            27 2.93  24 2.93  25 2.93  19 2.93
  27  0.556  0.889  0.412-  35 2.91  17 2.91  18 2.91  11 2.91  29 2.92  30 2.92  26 2.93  25 2.93
                            24 2.93  22 2.93  20 2.93  21 2.93
  28  0.000  0.000  0.510-  26 2.91  25 2.91  19 2.91  29 2.94  34 2.94  33 2.94  32 2.94  31 2.94
                            30 2.94
  29  0.333  0.003  0.510-  30 2.91  31 2.91  36 2.91  20 2.91  27 2.92  26 2.92  35 2.94  28 2.94
                            34 2.98
  30  0.664  0.003  0.510-  29 2.91  32 2.91  36 2.91  21 2.91  27 2.92  25 2.92  35 2.94  28 2.94
                            33 2.98
  31  0.003  0.333  0.510-  33 2.91  29 2.91  36 2.91  20 2.91  22 2.92  19 2.92  35 2.94  28 2.94
                            32 2.98
  32  0.664  0.333  0.510-  34 2.91  30 2.91  36 2.91  21 2.91  24 2.92  19 2.92  35 2.94  28 2.94
                            31 2.98
  33  0.003  0.664  0.510-  31 2.91  34 2.91  36 2.91  23 2.91  22 2.92  25 2.92  35 2.94  28 2.94
                            30 2.98
  34  0.333  0.664  0.510-  32 2.91  33 2.91  36 2.91  23 2.91  24 2.92  26 2.92  35 2.94  28 2.94
                            29 2.98
  35  0.667  0.667  0.510-  24 2.91  27 2.91  22 2.91  30 2.94  29 2.94  32 2.94  34 2.94  31 2.94
                            33 2.94
  36  0.333  0.333  0.504-  37 1.75  21 2.81  20 2.81  23 2.81  31 2.91  33 2.91  30 2.91  29 2.91
                            34 2.91  32 2.91
  37  0.333  0.333  0.576-  36 1.75
 
  LATTYP: Found a hexagonal cell.
 ALAT       =     8.7913665772
 C/A-ratio  =     2.7711238095
  
  Lattice vectors:
  
 A1 = (  -4.3956832886,  -7.6135467898,   0.0000000000)
 A2 = (   8.7913665771,   0.0000000000,   0.0000000000)
 A3 = (   0.0000000000,   0.0000000000,  24.3619652401)


Analysis of symmetry for initial positions (statically):
=====================================================================
 Subroutine PRICEL returns:
 Original cell was already a primitive cell.
 

 Routine SETGRP: Setting up the symmetry group for a 
 hexagonal supercell.


 Subroutine GETGRP returns: Found  6 space group operations
 (whereof  6 operations were pure point group operations)
 out of a pool of 24 trial point group operations.


The static configuration has the point symmetry C_3v.


Analysis of symmetry for dynamics (positions and initial velocities):
=====================================================================
 Subroutine PRICEL returns:
 Original cell was already a primitive cell.
 

 Routine SETGRP: Setting up the symmetry group for a 
 hexagonal supercell.


 Subroutine GETGRP returns: Found  6 space group operations
 (whereof  6 operations were pure point group operations)
 out of a pool of 24 trial point group operations.


The dynamic configuration has the point symmetry C_3v.


Analysis of constrained symmetry for selective dynamics:
=====================================================================
 Subroutine PRICEL returns:
 Original cell was already a primitive cell.
 

 Routine SETGRP: Setting up the symmetry group for a 
 hexagonal supercell.


 Subroutine GETGRP returns: Found  6 space group operations
 (whereof  6 operations were pure point group operations)
 out of a pool of 24 trial point group operations.


The constrained configuration has the point symmetry C_3v.


 Subroutine INISYM returns: Found  6 space group operations
 (whereof  6 operations are pure point group operations),
 and found     1 'primitive' translations


----------------------------------------------------------------------------------------

                                     Primitive cell                                     

  volume of cell :    1630.6311

  direct lattice vectors                    reciprocal lattice vectors
     8.791366577  0.000000000  0.000000000     0.113747958 -0.065672414  0.000000000
     4.395683289  7.613546790  0.000000000     0.000000000  0.131344829  0.000000000
     0.000000000  0.000000000 24.361965240     0.000000000  0.000000000  0.041047592

  length of vectors
     8.791366577  8.791366577 24.361965240     0.131344829  0.131344829  0.041047592

  position of ions in fractional coordinates (direct lattice)
     0.000000000  0.000000000  0.216821102
     0.333333313  0.000000000  0.216821102
     0.666666627  0.000000000  0.216821102
     1.000000000  0.333333343  0.216821102
     0.333333313  0.333333343  0.216821102
     0.666666687  0.333333343  0.216821102
     1.000000000  0.666666687  0.216821102
     0.333333313  0.666666687  0.216821102
     0.666666627  0.666666687  0.216821102
     0.111111104  0.111111112  0.315035970
     0.444444448  0.111111112  0.315035970
     0.777777791  0.111111112  0.315035970
     0.111111097  0.444444448  0.315035970
     0.444444418  0.444444448  0.315035970
     0.777777791  0.444444448  0.315035970
     0.111111104  0.777777791  0.315035970
     0.444444448  0.777777791  0.315035970
     0.777777791  0.777777791  0.315035970
     0.888730138  0.222539741  0.412626065
     0.222037629  0.222037644  0.412117645
     0.555924683  0.222037644  0.412117645
     0.888854260  0.555572900  0.412408857
     0.222037644  0.555924743  0.412117645
     0.555572900  0.555572900  0.412408857
     0.888730138  0.888730138  0.412626065
     0.222539711  0.888730138  0.412626065
     0.555572840  0.888854260  0.412408857
     0.000000000  0.000000000  0.509914950
     0.333447199  0.002501109  0.509993866
     0.664051631  0.002501109  0.509993866
     0.002501109  0.333447229  0.509993866
     0.664051691  0.333447229  0.509993866
     0.002501109  0.664051691  0.509993866
     0.333447199  0.664051691  0.509993866
     0.666666627  0.666666687  0.509731762
     0.333333313  0.333333343  0.504324055
     0.333333313  0.333333343  0.576351515

  ion indices of the primitive-cell ions
   primitive index   ion index
                 1           1
                 2           2
                 3           3
                 4           4
                 5           5
                 6           6
                 7           7
                 8           8
                 9           9
                10          10
                11          11
                12          12
                13          13
                14          14
                15          15
                16          16
                17          17
                18          18
                19          19
                20          20
                21          21
                22          22
                23          23
                24          24
                25          25
                26          26
                27          27
                28          28
                29          29
                30          30
                31          31
                32          32
                33          33
                34          34
                35          35
                36          36
                37          37

----------------------------------------------------------------------------------------

 
 
 KPOINTS: Automatic mesh                          

Automatic generation of k-mesh.
 Grid dimensions read from file:
 generate k-points for:    8    8    1

 Generating k-lattice:

  Cartesian coordinates                     Fractional coordinates (reciprocal lattice)
     0.014218495 -0.008209052  0.000000000     0.125000000 -0.000000000  0.000000000
     0.000000000  0.016418104  0.000000000     0.000000000  0.125000000  0.000000000
     0.000000000  0.000000000  0.041047592     0.000000000  0.000000000  1.000000000

  Length of vectors
     0.016418104  0.016418104  0.041047592

  Shift w.r.t. Gamma in fractional coordinates (k-lattice)
     0.000000000  0.000000000  0.000000000

 TETIRR: Found     36 inequivalent tetrahedra from      384
 
 Subroutine IBZKPT returns following result:
 ===========================================
 
 Found     10 irreducible k-points:
 
 Following reciprocal coordinates:
            Coordinates               Weight
  0.000000  0.000000  0.000000      1.000000
  0.125000  0.000000  0.000000      6.000000
  0.250000  0.000000  0.000000      6.000000
  0.375000 -0.000000  0.000000      6.000000
  0.500000  0.000000  0.000000      3.000000
  0.250000  0.125000  0.000000      6.000000
  0.375000  0.125000  0.000000     12.000000
  0.500000  0.125000  0.000000     12.000000
  0.500000  0.250000  0.000000      6.000000
 -0.375000  0.250000  0.000000      6.000000
 
 Following cartesian coordinates:
            Coordinates               Weight
  0.000000  0.000000  0.000000      1.000000
  0.014218 -0.008209  0.000000      6.000000
  0.028437 -0.016418  0.000000      6.000000
  0.042655 -0.024627  0.000000      6.000000
  0.056874 -0.032836  0.000000      3.000000
  0.028437 -0.000000  0.000000      6.000000
  0.042655 -0.008209  0.000000     12.000000
  0.056874 -0.016418  0.000000     12.000000
  0.056874 -0.000000  0.000000      6.000000
 -0.042655  0.057463  0.000000      6.000000
 


--------------------------------------------------------------------------------------------------------




 Dimension of arrays:
   k-points           NKPTS =     10   k-points in BZ     NKDIM =     10   number of bands    NBANDS=    252
   number of dos      NEDOS =    301   number of ions     NIONS =     37
   non local maximal  LDIM  =      6   non local SUM 2l+1 LMDIM =     18
   total plane-waves  NPLWV = 322560
   max r-space proj   IRMAX =   2705   max aug-charges    IRDMAX=   9925
   dimension x,y,z NGX =    48 NGY =   48 NGZ =  140
   dimension x,y,z NGXF=    96 NGYF=   96 NGZF=  280
   support grid    NGXF=    96 NGYF=   96 NGZF=  280
   ions per type =              35   1   1
   NGX,Y,Z   is equivalent  to a cutoff of   9.08,  9.08,  9.55 a.u.
   NGXF,Y,Z  is equivalent  to a cutoff of  18.15, 18.15, 19.11 a.u.

 SYSTEM =  unknown system                          
 POSCAR =  Ag-Pd-C                                 

 Startparameter for this run:
   NWRITE =      2    write-flag & timer
   PREC   = normal    normal or accurate (medium, high low for compatibility)
   ISTART =      0    job   : 0-new  1-cont  2-samecut
   ICHARG =     11    charge: 1-file 2-atom 10-const
   ISPIN  =      1    spin polarized calculation?
   LNONCOLLINEAR =      F non collinear calculations
   LSORBIT =      F    spin-orbit coupling
   INIWAV =      1    electr: 0-lowe 1-rand  2-diag
   LASPH  =      F    aspherical Exc in radial PAW
   METAGGA=      F    non-selfconsistent MetaGGA calc.

 Electronic Relaxation 1
   ENCUT  =  500.0 eV  36.75 Ry    6.06 a.u.  16.03 16.03 44.42*2*pi/ulx,y,z
   ENINI  =  500.0     initial cutoff
   ENAUG  =  644.9 eV  augmentation charge cutoff
   NELM   =    150;   NELMIN=  2; NELMDL= -5     # of ELM steps 
   EDIFF  = 0.1E-04   stopping-criterion for ELM
   LREAL  =      T    real-space projection
   NLSPLINE    = F    spline interpolate recip. space projectors
   LCOMPAT=      F    compatible to vasp.4.4
   GGA_COMPAT  = T    GGA compatible to vasp.4.4-vasp.4.6
   LMAXPAW     = -100 max onsite density
   LMAXMIX     =    2 max onsite mixed and CHGCAR
   VOSKOWN=      0    Vosko Wilk Nusair interpolation
   ROPT   =   -0.00050  -0.00050  -0.00050
 Ionic relaxation
   EDIFFG = -.1E-01   stopping-criterion for IOM
   NSW    =      0    number of steps for IOM
   NBLOCK =      1;   KBLOCK =      1    inner block; outer block 
   IBRION =     -1    ionic relax: 0-MD 1-quasi-New 2-CG
   NFREE  =      1    steps in history (QN), initial steepest desc. (CG)
   ISIF   =      2    stress and relaxation
   IWAVPR =     10    prediction:  0-non 1-charg 2-wave 3-comb
   ISYM   =      2    0-nonsym 1-usesym 2-fastsym
   LCORR  =      T    Harris-Foulkes like correction to forces

   POTIM  = 0.5000    time-step for ionic-motion
   TEIN   =    0.0    initial temperature
   TEBEG  =    0.0;   TEEND  =   0.0 temperature during run
   SMASS  =  -3.00    Nose mass-parameter (am)
   estimated Nose-frequenzy (Omega)   =  0.10E-29 period in steps = 0.13E+47 mass=  -0.177E-26a.u.
   SCALEE = 1.0000    scale energy and forces
   NPACO  =    256;   APACO  = 16.0  distance and # of slots for P.C.
   PSTRESS=    0.0 pullay stress

  Mass of Ions in am
   POMASS = 107.87106.42 12.01
  Ionic Valenz
   ZVAL   =  11.00 10.00  4.00
  Atomic Wigner-Seitz radii
   RWIGS  =  -1.00 -1.00 -1.00
  virtual crystal weights 
   VCA    =   1.00  1.00  1.00
   NELECT =     399.0000    total number of electrons
   NUPDOWN=      -1.0000    fix difference up-down

 DOS related values:
   EMIN   =  10.00;   EMAX   =-10.00  energy-range for DOS
   EFERMI =   0.00
   ISMEAR =    -5;   SIGMA  =   0.10  broadening in eV -4-tet -1-fermi 0-gaus

 Electronic relaxation 2 (details)
   IALGO  =     68    algorithm
   LDIAG  =      T    sub-space diagonalisation (order eigenvalues)
   LSUBROT=      F    optimize rotation matrix (better conditioning)
   TURBO    =      0    0=normal 1=particle mesh
   IRESTART =      0    0=no restart 2=restart with 2 vectors
   NREBOOT  =      0    no. of reboots
   NMIN     =      0    reboot dimension
   EREF     =   0.00    reference energy to select bands
   IMIX   =      4    mixing-type and parameters
     AMIX     =   0.40;   BMIX     =  1.00
     AMIX_MAG =   1.60;   BMIX_MAG =  1.00
     AMIN     =   0.10
     WC   =   100.;   INIMIX=   1;  MIXPRE=   1;  MAXMIX= -45

 Intra band minimization:
   WEIMIN = 0.0000     energy-eigenvalue tresh-hold
   EBREAK =  0.99E-08  absolut break condition
   DEPER  =   0.30     relativ break condition  

   TIME   =   0.40     timestep for ELM

  volume/ion in A,a.u.               =      44.07       297.41
  Fermi-wavevector in a.u.,A,eV,Ry     =   1.023954  1.934993 14.265468  1.048482
  Thomas-Fermi vector in A             =   2.157715
 
 Write flags
   LWAVE        =      F    write WAVECAR
   LDOWNSAMPLE  =      F    k-point downsampling of WAVECAR
   LCHARG       =      F    write CHGCAR
   LVTOT        =      F    write LOCPOT, total local potential
   LVHAR        =      F    write LOCPOT, Hartree potential only
   LELF         =      F    write electronic localiz. function (ELF)
   LORBIT       =     10    0 simple, 1 ext, 2 COOP (PROOUT), +10 PAW based schemes


 Dipole corrections
   LMONO  =      F    monopole corrections only (constant potential shift)
   LDIPOL =      F    correct potential (dipole corrections)
   IDIPOL =      0    1-x, 2-y, 3-z, 4-all directions 
   EPSILON=  1.0000000 bulk dielectric constant

 Exchange correlation treatment:
   GGA     =    --    GGA type
   LEXCH   =     8    internal setting for exchange type
   VOSKOWN=      0    Vosko Wilk Nusair interpolation
   LHFCALC =     F    Hartree Fock is set to
   LHFONE  =     F    Hartree Fock one center treatment
   AEXX    =    0.0000 exact exchange contribution

 Linear response parameters
   LEPSILON=     F    determine dielectric tensor
   LRPA    =     F    only Hartree local field effects (RPA)
   LNABLA  =     F    use nabla operator in PAW spheres
   LVEL    =     F    velocity operator in full k-point grid
   LINTERFAST=   F  fast interpolation
   KINTER  =     0    interpolate to denser k-point grid
   CSHIFT  =0.1000    complex shift for real part using Kramers Kronig
   OMEGAMAX=  -1.0    maximum frequency
   DEG_THRESHOLD= 0.2000000E-02 threshold for treating states as degnerate
   RTIME   =   -0.100 relaxation time in fs
  (WPLASMAI=    0.000 imaginary part of plasma frequency in eV, 0.658/RTIME)
   DFIELD  = 0.0000000 0.0000000 0.0000000 field for delta impulse in time
 
 Orbital magnetization related:
   ORBITALMAG=     F  switch on orbital magnetization
   LCHIMAG   =     F  perturbation theory with respect to B field
   DQ        =  0.001000  dq finite difference perturbation B field
   LLRAUG    =     F  two centre corrections for induced B field



--------------------------------------------------------------------------------------------------------


 Static calculation
 charge density and potential remain constant during run
 non-spin polarized calculation
 RMM-DIIS sequential band-by-band and
  variant of blocked Davidson during initial phase
 perform sub-space diagonalisation
    before iterative eigenvector-optimisation
 no mixing
 using additional bands           52
 real space projection scheme for non local part
 use partial core corrections
 calculate Harris-corrections to forces 
   (improved forces if not selfconsistent)
 use gradient corrections 
 WARNING: stress and forces are not correct
  (second derivative of E(xc) not defined)
 use of overlap-Matrix (Vanderbilt PP)
 Fermi weights with tetrahedron method with Bloechl corrections


--------------------------------------------------------------------------------------------------------


  energy-cutoff  :      500.00
  volume of cell :     1630.63
      direct lattice vectors                 reciprocal lattice vectors
     8.791366577  0.000000000  0.000000000     0.113747958 -0.065672414  0.000000000
     4.395683289  7.613546790  0.000000000     0.000000000  0.131344829  0.000000000
     0.000000000  0.000000000 24.361965240     0.000000000  0.000000000  0.041047592

  length of vectors
     8.791366577  8.791366577 24.361965240     0.131344829  0.131344829  0.041047592


 
 k-points in units of 2pi/SCALE and weight: Automatic mesh                          
   0.00000000  0.00000000  0.00000000       0.016
   0.01421849 -0.00820905  0.00000000       0.094
   0.02843699 -0.01641810  0.00000000       0.094
   0.04265548 -0.02462716  0.00000000       0.094
   0.05687398 -0.03283621  0.00000000       0.047
   0.02843699 -0.00000000  0.00000000       0.094
   0.04265548 -0.00820905  0.00000000       0.188
   0.05687398 -0.01641810  0.00000000       0.188
   0.05687398 -0.00000000  0.00000000       0.094
  -0.04265548  0.05746336  0.00000000       0.094
 
 k-points in reciprocal lattice and weights: Automatic mesh                          
   0.00000000  0.00000000  0.00000000       0.016
   0.12500000  0.00000000  0.00000000       0.094
   0.25000000  0.00000000  0.00000000       0.094
   0.37500000 -0.00000000  0.00000000       0.094
   0.50000000  0.00000000  0.00000000       0.047
   0.25000000  0.12500000  0.00000000       0.094
   0.37500000  0.12500000  0.00000000       0.188
   0.50000000  0.12500000  0.00000000       0.188
   0.50000000  0.25000000  0.00000000       0.094
  -0.37500000  0.25000000  0.00000000       0.094
 
 position of ions in fractional coordinates (direct lattice) 
   0.00000000  0.00000000  0.21682110
   0.33333331  0.00000000  0.21682110
   0.66666663  0.00000000  0.21682110
   0.00000000  0.33333334  0.21682110
   0.33333331  0.33333334  0.21682110
   0.66666669  0.33333334  0.21682110
   0.00000000  0.66666669  0.21682110
   0.33333331  0.66666669  0.21682110
   0.66666663  0.66666669  0.21682110
   0.11111110  0.11111111  0.31503597
   0.44444445  0.11111111  0.31503597
   0.77777779  0.11111111  0.31503597
   0.11111110  0.44444445  0.31503597
   0.44444442  0.44444445  0.31503597
   0.77777779  0.44444445  0.31503597
   0.11111110  0.77777779  0.31503597
   0.44444445  0.77777779  0.31503597
   0.77777779  0.77777779  0.31503597
   0.88873014  0.22253974  0.41262607
   0.22203763  0.22203764  0.41211764
   0.55592468  0.22203764  0.41211764
   0.88885426  0.55557290  0.41240886
   0.22203764  0.55592474  0.41211764
   0.55557290  0.55557290  0.41240886
   0.88873014  0.88873014  0.41262607
   0.22253971  0.88873014  0.41262607
   0.55557284  0.88885426  0.41240886
   0.00000000  0.00000000  0.50991495
   0.33344720  0.00250111  0.50999387
   0.66405163  0.00250111  0.50999387
   0.00250111  0.33344723  0.50999387
   0.66405169  0.33344723  0.50999387
   0.00250111  0.66405169  0.50999387
   0.33344720  0.66405169  0.50999387
   0.66666663  0.66666669  0.50973176
   0.33333331  0.33333334  0.50432406
   0.33333331  0.33333334  0.57635151
 
 position of ions in cartesian coordinates  (Angst):
   0.00000000  0.00000000  5.28218814
   2.93045535  0.00000000  5.28218814
   5.86091070  0.00000000  5.28218814
   1.46522781  2.53784900  5.28218814
   4.39568315  2.53784900  5.28218814
   7.32613904  2.53784900  5.28218814
   2.93045562  5.07569801  5.28218814
   5.86091096  5.07569801  5.28218814
   8.79136632  5.07569801  5.28218814
   1.46522770  0.84594965  7.67489535
   4.39568332  0.84594965  7.67489535
   7.32613893  0.84594965  7.67489535
   2.93045542  3.38379860  7.67489535
   5.86091083  3.38379860  7.67489535
   8.79136671  3.38379860  7.67489535
   4.39568328  5.92164760  7.67489535
   7.32613890  5.92164760  7.67489535
  10.25659451  5.92164760  7.67489535
   8.79136665  1.69431673 10.05238186
   2.92802135  1.69049399 10.03999574
   5.86334483  1.69049399 10.03999574
  10.25636615  4.22988027 10.04709024
   4.39568342  4.23255904 10.03999574
   7.32636753  4.22988027 10.04709024
  11.71972864  6.76638849 10.05238186
   5.86300439  6.76638849 10.05238186
   8.79136631  6.76733350 10.04709024
   0.00000000  0.00000000 12.42253028
   2.94245065  0.01904231 12.42445283
   5.84891540  0.01904231 12.42445283
   1.48771658  2.53871608 12.42445283
   7.30365026  2.53871608 12.42445283
   2.94094909  5.05578862 12.42445283
   5.85041749  5.05578862 12.42445283
   8.79136632  5.07569801 12.41806747
   4.39568315  2.53784900 12.28632511
   4.39568315  2.53784900 14.04105556
 


--------------------------------------------------------------------------------------------------------


 k-point   1 :   0.0000 0.0000 0.0000  plane waves:   41267
 k-point   2 :   0.1250 0.0000 0.0000  plane waves:   41346
 k-point   3 :   0.2500 0.0000 0.0000  plane waves:   41360
 k-point   4 :   0.3750-0.0000 0.0000  plane waves:   41412
 k-point   5 :   0.5000 0.0000 0.0000  plane waves:   41412
 k-point   6 :   0.2500 0.1250 0.0000  plane waves:   41336
 k-point   7 :   0.3750 0.1250 0.0000  plane waves:   41420
 k-point   8 :   0.5000 0.1250 0.0000  plane waves:   41406
 k-point   9 :   0.5000 0.2500 0.0000  plane waves:   41444
 k-point  10 :  -0.3750 0.2500 0.0000  plane waves:   41438

 maximum and minimum number of plane-waves per node :     41444    41267

 maximum number of plane-waves:     41444
 maximum index in each direction: 
   IXMAX=   16   IYMAX=   16   IZMAX=   44
   IXMIN=  -16   IYMIN=  -16   IZMIN=  -44


 serial   3D FFT for wavefunctions
 parallel 3D FFT for charge:
    minimum data exchange during FFTs selected (reduces bandwidth)


 total amount of memory used by VASP MPI-rank0   131177. kBytes
=======================================================================

   base      :      30000. kBytes
   nonlr-proj:      15256. kBytes
   fftplans  :       4808. kBytes
   grid      :      19857. kBytes
   one-center:        575. kBytes
   wavefun   :      60681. kBytes
 
     INWAV:  cpu time    0.0000: real time    0.0000
 initial charge density was supplied:
 number of electron     399.0000158 magnetization 
 keeping initial charge density in first step


--------------------------------------------------------------------------------------------------------


 Maximum index for non-local projection operator         2578
 Maximum index for augmentation-charges          715 (set IRDMAX)


--------------------------------------------------------------------------------------------------------


 First call to EWALD:  gamma=   0.151
 Maximum number of real-space cells 4x 4x 2
 Maximum number of reciprocal cells 2x 2x 5

    FEWALD:  cpu time    0.0013: real time    0.0013


--------------------------------------- Iteration      1(   1)  ---------------------------------------


    POTLOK:  cpu time    0.0498: real time    0.0502
    SETDIJ:  cpu time    0.0047: real time    0.0047
     EDDAV:  cpu time    7.8149: real time    7.8164
 BZINTS: Fermi energy:    8.872098;  399.000000 electrons
         Band energy: 0.101361E+04;  BLOECHL correction:   -0.009531
       DOS:  cpu time    0.0108: real time    0.0108
    --------------------------------------------
      LOOP:  cpu time    7.8801: real time    7.8822

 eigenvalue-minimisations  :  5040
 total energy-change (2. order) : 0.2415224E+04  (-0.1814672E+05)
 number of electron     399.0000158 magnetization 
 augmentation part      399.0000158 magnetization 

 Free energy of the ion-electron system (eV)
  ---------------------------------------------------
  alpha Z        PSCENC =       683.19962065
  Ewald energy   TEWEN  =    131847.65592232
  -Hartree energ DENC   =   -169578.15824139
  -exchange      EXHF   =         0.00000000
  -V(xc)+E(xc)   XCENC  =      -406.75459896
  PAW double counting   =     39493.68617675   -37899.09373877
  entropy T*S    EENTRO =         0.00000000
  eigenvalues    EBANDS =      1013.61149732
  atomic energy  EATOM  =     37261.07734920
  Solvation  Ediel_sol  =         0.00000000
  ---------------------------------------------------
  free energy    TOTEN  =      2415.22398713 eV

  energy without entropy =     2415.22398713  energy(sigma->0) =     2415.22398713


--------------------------------------------------------------------------------------------------------




--------------------------------------- Iteration      1(   2)  ---------------------------------------


     EDDAV:  cpu time    8.1284: real time    8.1375
 BZINTS: Fermi energy:    0.889751;  399.000000 electrons
         Band energy:-0.141669E+04;  BLOECHL correction:   -0.058467
       DOS:  cpu time    0.0096: real time    0.0096
    --------------------------------------------
      LOOP:  cpu time    8.1380: real time    8.1472

 eigenvalue-minimisations  :  5320
 total energy-change (2. order) :-0.2430306E+04  (-0.2311520E+04)
 number of electron     399.0000158 magnetization 
 augmentation part      399.0000158 magnetization 

 Free energy of the ion-electron system (eV)
  ---------------------------------------------------
  alpha Z        PSCENC =       683.19962065
  Ewald energy   TEWEN  =    131847.65592232
  -Hartree energ DENC   =   -169578.15824139
  -exchange      EXHF   =         0.00000000
  -V(xc)+E(xc)   XCENC  =      -406.75459896
  PAW double counting   =     39493.68617675   -37899.09373877
  entropy T*S    EENTRO =         0.00000000
  eigenvalues    EBANDS =     -1416.69485735
  atomic energy  EATOM  =     37261.07734920
  Solvation  Ediel_sol  =         0.00000000
  ---------------------------------------------------
  free energy    TOTEN  =       -15.08236754 eV

  energy without entropy =      -15.08236754  energy(sigma->0) =      -15.08236754


--------------------------------------------------------------------------------------------------------




--------------------------------------- Iteration      1(   3)  ---------------------------------------


     EDDAV:  cpu time    8.8406: real time    8.8408
 BZINTS: Fermi energy:    0.375907;  399.000000 electrons
         Band energy:-0.149967E+04;  BLOECHL correction:   -0.074651
       DOS:  cpu time    0.0101: real time    0.0101
    --------------------------------------------
      LOOP:  cpu time    8.8506: real time    8.8509

 eigenvalue-minimisations  :  5880
 total energy-change (2. order) :-0.8297577E+02  (-0.8124008E+02)
 number of electron     399.0000158 magnetization 
 augmentation part      399.0000158 magnetization 

 Free energy of the ion-electron system (eV)
  ---------------------------------------------------
  alpha Z        PSCENC =       683.19962065
  Ewald energy   TEWEN  =    131847.65592232
  -Hartree energ DENC   =   -169578.15824139
  -exchange      EXHF   =         0.00000000
  -V(xc)+E(xc)   XCENC  =      -406.75459896
  PAW double counting   =     39493.68617675   -37899.09373877
  entropy T*S    EENTRO =         0.00000000
  eigenvalues    EBANDS =     -1499.67062642
  atomic energy  EATOM  =     37261.07734920
  Solvation  Ediel_sol  =         0.00000000
  ---------------------------------------------------
  free energy    TOTEN  =       -98.05813661 eV

  energy without entropy =      -98.05813661  energy(sigma->0) =      -98.05813661


--------------------------------------------------------------------------------------------------------




--------------------------------------- Iteration      1(   4)  ---------------------------------------


     EDDAV:  cpu time    8.3062: real time    8.3064
 BZINTS: Fermi energy:    0.360837;  399.000000 electrons
         Band energy:-0.150093E+04;  BLOECHL correction:   -0.073034
       DOS:  cpu time    0.0101: real time    0.0101
    --------------------------------------------
      LOOP:  cpu time    8.3163: real time    8.3165

 eigenvalue-minimisations  :  5460
 total energy-change (2. order) :-0.1257495E+01  (-0.1254879E+01)
 number of electron     399.0000158 magnetization 
 augmentation part      399.0000158 magnetization 

 Free energy of the ion-electron system (eV)
  ---------------------------------------------------
  alpha Z        PSCENC =       683.19962065
  Ewald energy   TEWEN  =    131847.65592232
  -Hartree energ DENC   =   -169578.15824139
  -exchange      EXHF   =         0.00000000
  -V(xc)+E(xc)   XCENC  =      -406.75459896
  PAW double counting   =     39493.68617675   -37899.09373877
  entropy T*S    EENTRO =         0.00000000
  eigenvalues    EBANDS =     -1500.92812115
  atomic energy  EATOM  =     37261.07734920
  Solvation  Ediel_sol  =         0.00000000
  ---------------------------------------------------
  free energy    TOTEN  =       -99.31563134 eV

  energy without entropy =      -99.31563134  energy(sigma->0) =      -99.31563134


--------------------------------------------------------------------------------------------------------




--------------------------------------- Iteration      1(   5)  ---------------------------------------


     EDDAV:  cpu time    9.3515: real time    9.3518
 BZINTS: Fermi energy:    0.360607;  399.000000 electrons
         Band energy:-0.150097E+04;  BLOECHL correction:   -0.073013
       DOS:  cpu time    0.0099: real time    0.0099
    --------------------------------------------
      LOOP:  cpu time    9.3614: real time    9.3617

 eigenvalue-minimisations  :  6300
 total energy-change (2. order) :-0.3885523E-01  (-0.3885789E-01)
 number of electron     399.0000158 magnetization 
 augmentation part      399.0000158 magnetization 

 Free energy of the ion-electron system (eV)
  ---------------------------------------------------
  alpha Z        PSCENC =       683.19962065
  Ewald energy   TEWEN  =    131847.65592232
  -Hartree energ DENC   =   -169578.15824139
  -exchange      EXHF   =         0.00000000
  -V(xc)+E(xc)   XCENC  =      -406.75459896
  PAW double counting   =     39493.68617675   -37899.09373877
  entropy T*S    EENTRO =         0.00000000
  eigenvalues    EBANDS =     -1500.96697637
  atomic energy  EATOM  =     37261.07734920
  Solvation  Ediel_sol  =         0.00000000
  ---------------------------------------------------
  free energy    TOTEN  =       -99.35448656 eV

  energy without entropy =      -99.35448656  energy(sigma->0) =      -99.35448656


--------------------------------------------------------------------------------------------------------




--------------------------------------- Iteration      1(   6)  ---------------------------------------


    EDDIAG:  cpu time    1.5309: real time    1.5312
  RMM-DIIS:  cpu time    4.4314: real time    4.4315
    ORTHCH:  cpu time    0.2789: real time    0.2789
 BZINTS: Fermi energy:    0.360604;  399.000000 electrons
         Band energy:-0.150097E+04;  BLOECHL correction:   -0.073013
       DOS:  cpu time    0.0101: real time    0.0101
    --------------------------------------------
      LOOP:  cpu time    6.2513: real time    6.2517

 eigenvalue-minimisations  :  5108
 total energy-change (2. order) :-0.8355775E-03  (-0.8356436E-03)
 number of electron     399.0000158 magnetization 
 augmentation part      399.0000158 magnetization 

 Free energy of the ion-electron system (eV)
  ---------------------------------------------------
  alpha Z        PSCENC =       683.19962065
  Ewald energy   TEWEN  =    131847.65592232
  -Hartree energ DENC   =   -169578.15824139
  -exchange      EXHF   =         0.00000000
  -V(xc)+E(xc)   XCENC  =      -406.75459896
  PAW double counting   =     39493.68617675   -37899.09373877
  entropy T*S    EENTRO =         0.00000000
  eigenvalues    EBANDS =     -1500.96781195
  atomic energy  EATOM  =     37261.07734920
  Solvation  Ediel_sol  =         0.00000000
  ---------------------------------------------------
  free energy    TOTEN  =       -99.35532214 eV

  energy without entropy =      -99.35532214  energy(sigma->0) =      -99.35532214


--------------------------------------------------------------------------------------------------------




--------------------------------------- Iteration      1(   7)  ---------------------------------------


    EDDIAG:  cpu time    1.5428: real time    1.5430
  RMM-DIIS:  cpu time    6.2150: real time    6.2150
    ORTHCH:  cpu time    0.2794: real time    0.2794
 BZINTS: Fermi energy:    0.360603;  399.000000 electrons
         Band energy:-0.150097E+04;  BLOECHL correction:   -0.073013
       DOS:  cpu time    0.0099: real time    0.0099
    --------------------------------------------
      LOOP:  cpu time    8.0470: real time    8.0472

 eigenvalue-minimisations  :  7174
 total energy-change (2. order) :-0.3124735E-03  (-0.3115170E-03)
 number of electron     399.0000158 magnetization 
 augmentation part      399.0000158 magnetization 

 Free energy of the ion-electron system (eV)
  ---------------------------------------------------
  alpha Z        PSCENC =       683.19962065
  Ewald energy   TEWEN  =    131847.65592232
  -Hartree energ DENC   =   -169578.15824139
  -exchange      EXHF   =         0.00000000
  -V(xc)+E(xc)   XCENC  =      -406.75459896
  PAW double counting   =     39493.68617675   -37899.09373877
  entropy T*S    EENTRO =         0.00000000
  eigenvalues    EBANDS =     -1500.96812443
  atomic energy  EATOM  =     37261.07734920
  Solvation  Ediel_sol  =         0.00000000
  ---------------------------------------------------
  free energy    TOTEN  =       -99.35563461 eV

  energy without entropy =      -99.35563461  energy(sigma->0) =      -99.35563461


--------------------------------------------------------------------------------------------------------




--------------------------------------- Iteration      1(   8)  ---------------------------------------


    EDDIAG:  cpu time    1.5318: real time    1.5319
  RMM-DIIS:  cpu time    4.5252: real time    4.5252
    ORTHCH:  cpu time    0.2795: real time    0.2795
 BZINTS: Fermi energy:    0.360603;  399.000000 electrons
         Band energy:-0.150097E+04;  BLOECHL correction:   -0.073013
       DOS:  cpu time    0.0099: real time    0.0099
    --------------------------------------------
      LOOP:  cpu time    6.3464: real time    6.3465

 eigenvalue-minimisations  :  4893
 total energy-change (2. order) :-0.1680563E-04  (-0.1643187E-04)
 number of electron     399.0000158 magnetization 
 augmentation part      399.0000158 magnetization 

 Free energy of the ion-electron system (eV)
  ---------------------------------------------------
  alpha Z        PSCENC =       683.19962065
  Ewald energy   TEWEN  =    131847.65592232
  -Hartree energ DENC   =   -169578.15824139
  -exchange      EXHF   =         0.00000000
  -V(xc)+E(xc)   XCENC  =      -406.75459896
  PAW double counting   =     39493.68617675   -37899.09373877
  entropy T*S    EENTRO =         0.00000000
  eigenvalues    EBANDS =     -1500.96814123
  atomic energy  EATOM  =     37261.07734920
  Solvation  Ediel_sol  =         0.00000000
  ---------------------------------------------------
  free energy    TOTEN  =       -99.35565142 eV

  energy without entropy =      -99.35565142  energy(sigma->0) =      -99.35565142


--------------------------------------------------------------------------------------------------------




--------------------------------------- Iteration      1(   9)  ---------------------------------------


    EDDIAG:  cpu time    1.5328: real time    1.5328
  RMM-DIIS:  cpu time    3.5500: real time    3.5500
    ORTHCH:  cpu time    0.2795: real time    0.2796
 BZINTS: Fermi energy:    0.360603;  399.000000 electrons
         Band energy:-0.150097E+04;  BLOECHL correction:   -0.073013
       DOS:  cpu time    0.0096: real time    0.0096
    --------------------------------------------
      LOOP:  cpu time    5.3719: real time    5.3720

 eigenvalue-minimisations  :  3357
 total energy-change (2. order) :-0.3126595E-05  (-0.3111767E-05)
 number of electron     399.0000158 magnetization 
 augmentation part      399.0000158 magnetization 

 Free energy of the ion-electron system (eV)
  ---------------------------------------------------
  alpha Z        PSCENC =       683.19962065
  Ewald energy   TEWEN  =    131847.65592232
  -Hartree energ DENC   =   -169578.15824139
  -exchange      EXHF   =         0.00000000
  -V(xc)+E(xc)   XCENC  =      -406.75459896
  PAW double counting   =     39493.68617675   -37899.09373877
  entropy T*S    EENTRO =         0.00000000
  eigenvalues    EBANDS =     -1500.96814436
  atomic energy  EATOM  =     37261.07734920
  Solvation  Ediel_sol  =         0.00000000
  ---------------------------------------------------
  free energy    TOTEN  =       -99.35565455 eV

  energy without entropy =      -99.35565455  energy(sigma->0) =      -99.35565455


--------------------------------------------------------------------------------------------------------




 average (electrostatic) potential at core
  the test charge radii are     1.1249  1.1199  0.6991
  (the norm of the test charge is              1.0000)
       1 -78.5284       2 -78.5270       3 -78.5269       4 -78.5270       5 -78.5336
       6 -78.5267       7 -78.5269       8 -78.5267       9 -78.5347      10 -78.7562
      11 -78.7648      12 -78.7561      13 -78.7648      14 -78.7646      15 -78.7598
      16 -78.7561      17 -78.7598      18 -78.7598      19 -78.7614      20 -78.8122
      21 -78.8122      22 -78.7773      23 -78.8122      24 -78.7773      25 -78.7614
      26 -78.7614      27 -78.7773      28 -78.4916      29 -78.4993      30 -78.4993
      31 -78.4993      32 -78.4992      33 -78.4993      34 -78.4992      35 -78.4971
      36 -81.5957      37 -56.0712
 
 
 
 E-fermi :   0.3606     XC(G=0):  -5.4323     alpha+bet : -5.1392

 Fermi energy:         0.3606034381

 k-point     1 :       0.0000    0.0000    0.0000
  band No.  band energies     occupation 
      1     -10.1216      2.00000
      2      -6.7737      2.00000
      3      -5.9017      2.00000
      4      -5.6565      2.00000
      5      -5.5305      2.00000
      6      -5.5305      2.00000
      7      -5.5249      2.00000
      8      -5.4991      2.00000
      9      -5.4991      2.00000
     10      -5.4934      2.00000
     11      -5.4841      2.00000
     12      -5.4647      2.00000
     13      -5.4597      2.00000
     14      -5.4597      2.00000
     15      -5.4545      2.00000
     16      -5.4545      2.00000
     17      -5.4499      2.00000
     18      -5.3309      2.00000
     19      -5.3309      2.00000
     20      -5.3012      2.00000
     21      -5.2879      2.00000
     22      -5.2845      2.00000
     23      -5.2845      2.00000
     24      -5.1121      2.00000
     25      -5.0959      2.00000
     26      -5.0959      2.00000
     27      -5.0921      2.00000
     28      -5.0846      2.00000
     29      -5.0846      2.00000
     30      -5.0766      2.00000
     31      -5.0765      2.00000
     32      -5.0741      2.00000
     33      -5.0732      2.00000
     34      -5.0413      2.00000
     35      -5.0413      2.00000
     36      -4.9428      2.00000
     37      -4.9350      2.00000
     38      -4.9342      2.00000
     39      -4.9342      2.00000
     40      -4.8953      2.00000
     41      -4.8953      2.00000
     42      -4.8378      2.00000
     43      -4.8377      2.00000
     44      -4.7271      2.00000
     45      -4.7102      2.00000
     46      -4.7102      2.00000
     47      -4.6977      2.00000
     48      -4.6977      2.00000
     49      -4.6948      2.00000
     50      -4.6948      2.00000
     51      -4.6897      2.00000
     52      -4.5732      2.00000
     53      -4.5507      2.00000
     54      -4.5248      2.00000
     55      -4.5208      2.00000
     56      -4.4128      2.00000
     57      -4.4127      2.00000
     58      -4.3272      2.00000
     59      -4.3055      2.00000
     60      -4.3013      2.00000
     61      -4.3013      2.00000
     62      -4.2991      2.00000
     63      -4.2917      2.00000
     64      -4.2917      2.00000
     65      -4.2541      2.00000
     66      -4.2541      2.00000
     67      -4.2315      2.00000
     68      -4.2315      2.00000
     69      -4.1477      2.00000
     70      -4.1436      2.00000
     71      -4.1436      2.00000
     72      -4.1297      2.00000
     73      -4.1297      2.00000
     74      -4.1253      2.00000
     75      -4.1204      2.00000
     76      -4.1204      2.00000
     77      -4.0936      2.00000
     78      -4.0936      2.00000
     79      -4.0835      2.00000
     80      -4.0833      2.00000
     81      -4.0705      2.00000
     82      -4.0705      2.00000
     83      -4.0630      2.00000
     84      -4.0100      2.00000
     85      -4.0100      2.00000
     86      -3.9863      2.00000
     87      -3.9863      2.00000
     88      -3.9610      2.00000
     89      -3.9193      2.00000
     90      -3.9193      2.00000
     91      -3.9111      2.00000
     92      -3.9111      2.00000
     93      -3.9095      2.00000
     94      -3.8809      2.00000
     95      -3.8809      2.00000
     96      -3.8324      2.00000
     97      -3.8324      2.00000
     98      -3.8069      2.00000
     99      -3.8069      2.00000
    100      -3.6769      2.00000
    101      -3.6769      2.00000
    102      -3.6257      2.00000
    103      -3.6257      2.00000
    104      -3.5941      2.00000
    105      -3.5897      2.00000
    106      -3.5897      2.00000
    107      -3.5851      2.00000
    108      -3.5591      2.00000
    109      -3.5439      2.00000
    110      -3.5439      2.00000
    111      -3.5166      2.00000
    112      -3.5166      2.00000
    113      -3.5004      2.00000
    114      -3.4650      2.00000
    115      -3.4605      2.00000
    116      -3.3453      2.00000
    117      -3.3453      2.00000
    118      -3.3272      2.00000
    119      -3.3272      2.00000
    120      -3.3008      2.00000
    121      -3.3008      2.00000
    122      -3.2663      2.00000
    123      -3.2621      2.00000
    124      -3.2621      2.00000
    125      -3.2300      2.00000
    126      -3.2257      2.00000
    127      -3.2257      2.00000
    128      -3.2053      2.00000
    129      -3.2041      2.00000
    130      -3.2041      2.00000
    131      -3.1994      2.00000
    132      -3.1994      2.00000
    133      -3.1926      2.00000
    134      -3.1909      2.00000
    135      -3.1909      2.00000
    136      -3.0631      2.00000
    137      -3.0013      2.00000
    138      -2.9971      2.00000
    139      -2.9971      2.00000
    140      -2.9939      2.00000
    141      -2.9905      2.00000
    142      -2.9905      2.00000
    143      -2.9877      2.00000
    144      -2.9877      2.00000
    145      -2.9803      2.00000
    146      -2.9731      2.00000
    147      -2.9731      2.00000
    148      -2.9435      2.00000
    149      -2.9334      2.00000
    150      -2.9334      2.00000
    151      -2.9088      2.00000
    152      -2.8974      2.00000
    153      -2.8921      2.00000
    154      -2.8880      2.00000
    155      -2.8880      2.00000
    156      -2.8738      2.00000
    157      -2.8738      2.00000
    158      -2.8111      2.00000
    159      -2.8111      2.00000
    160      -2.8002      2.00000
    161      -2.7971      2.00000
    162      -2.7911      2.00000
    163      -2.7902      2.00000
    164      -2.7877      2.00000
    165      -2.7877      2.00000
    166      -2.7698      2.00000
    167      -2.7698      2.00000
    168      -2.7606      2.00000
    169      -2.7528      2.00000
    170      -2.7474      2.00000
    171      -2.7280      2.00000
    172      -2.7280      2.00000
    173      -2.7241      2.00000
    174      -2.7241      2.00000
    175      -2.6676      2.00000
    176      -2.6676      2.00000
    177      -2.6282      2.00000
    178      -2.6282      2.00000
    179      -2.5948      2.00000
    180      -2.5948      2.00000
    181      -2.5885      2.00000
    182      -2.5801      2.00000
    183      -2.5242      2.00000
    184      -2.5241      2.00000
    185      -2.5040      2.00000
    186      -2.4882      2.00000
    187      -2.4882      2.00000
    188      -2.4724      2.00000
    189      -2.2391      2.00000
    190      -2.2391      2.00000
    191      -1.8138      2.00000
    192      -1.8138      2.00000
    193      -1.7192      2.00000
    194      -1.6793      2.00000
    195      -1.6793      2.00000
    196      -1.6569      2.00000
    197      -0.4192      2.00000
    198      -0.1991      2.00000
    199      -0.1622      2.00000
    200      -0.1622      2.00000
    201       0.0110      2.00000
    202       0.0172      2.00000
    203       0.0172      2.11679
    204       0.8218      0.00000
    205       1.3508      0.00000
    206       1.3508      0.00000
    207       1.5977      0.00000
    208       2.2534      0.00000
    209       2.2652      0.00000
    210       2.2652      0.00000
    211       2.5465      0.00000
    212       2.5465      0.00000
    213       3.5836      0.00000
    214       3.5935      0.00000
    215       3.7545      0.00000
    216       3.7850      0.00000
    217       3.7851      0.00000
    218       3.8305      0.00000
    219       3.8305      0.00000
    220       4.5631      0.00000
    221       4.5721      0.00000
    222       4.5721      0.00000
    223       4.6098      0.00000
    224       4.6099      0.00000
    225       4.6161      0.00000
    226       4.6270      0.00000
    227       4.6270      0.00000
    228       4.8275      0.00000
    229       4.8857      0.00000
    230       4.8886      0.00000
    231       4.9179      0.00000
    232       4.9179      0.00000
    233       5.4897      0.00000
    234       5.7764      0.00000
    235       5.9890      0.00000
    236       6.1970      0.00000
    237       6.1970      0.00000
    238       6.3528      0.00000
    239       6.3528      0.00000
    240       6.3873      0.00000
    241       6.5791      0.00000
    242       6.5791      0.00000
    243       6.5906      0.00000
    244       6.6647      0.00000
    245       6.6650      0.00000
    246       6.6979      0.00000
    247       6.8070      0.00000
    248       6.8735      0.00000
    249       6.8769      0.00000
    250       6.9070      0.00000
    251       6.9256      0.00000
    252       6.9428      0.00000

 k-point     2 :       0.1250    0.0000    0.0000
  band No.  band energies     occupation 
      1     -10.1215      2.00000
      2      -6.7281      2.00000
      3      -5.8613      2.00000
      4      -5.6265      2.00000
      5      -5.5733      2.00000
      6      -5.5303      2.00000
      7      -5.5213      2.00000
      8      -5.5160      2.00000
      9      -5.5006      2.00000
     10      -5.4800      2.00000
     11      -5.4793      2.00000
     12      -5.4644      2.00000
     13      -5.4642      2.00000
     14      -5.4511      2.00000
     15      -5.4085      2.00000
     16      -5.3903      2.00000
     17      -5.3890      2.00000
     18      -5.3708      2.00000
     19      -5.3571      2.00000
     20      -5.3459      2.00000
     21      -5.2425      2.00000
     22      -5.2372      2.00000
     23      -5.1889      2.00000
     24      -5.1743      2.00000
     25      -5.1688      2.00000
     26      -5.1628      2.00000
     27      -5.1125      2.00000
     28      -5.1036      2.00000
     29      -5.0894      2.00000
     30      -5.0632      2.00000
     31      -5.0382      2.00000
     32      -5.0256      2.00000
     33      -5.0116      2.00000
     34      -4.9991      2.00000
     35      -4.9797      2.00000
     36      -4.9557      2.00000
     37      -4.9466      2.00000
     38      -4.9333      2.00000
     39      -4.8804      2.00000
     40      -4.8654      2.00000
     41      -4.8600      2.00000
     42      -4.8394      2.00000
     43      -4.8306      2.00000
     44      -4.7755      2.00000
     45      -4.7714      2.00000
     46      -4.7538      2.00000
     47      -4.7351      2.00000
     48      -4.7277      2.00000
     49      -4.6800      2.00000
     50      -4.6771      2.00000
     51      -4.6402      2.00000
     52      -4.5617      2.00000
     53      -4.5444      2.00000
     54      -4.5239      2.00000
     55      -4.5103      2.00000
     56      -4.4221      2.00000
     57      -4.4211      2.00000
     58      -4.3484      2.00000
     59      -4.3194      2.00000
     60      -4.3157      2.00000
     61      -4.3143      2.00000
     62      -4.2979      2.00000
     63      -4.2938      2.00000
     64      -4.2812      2.00000
     65      -4.2744      2.00000
     66      -4.2606      2.00000
     67      -4.2507      2.00000
     68      -4.2214      2.00000
     69      -4.1891      2.00000
     70      -4.1636      2.00000
     71      -4.1585      2.00000
     72      -4.1451      2.00000
     73      -4.1434      2.00000
     74      -4.1243      2.00000
     75      -4.1190      2.00000
     76      -4.1131      2.00000
     77      -4.1076      2.00000
     78      -4.1044      2.00000
     79      -4.0947      2.00000
     80      -4.0785      2.00000
     81      -4.0707      2.00000
     82      -4.0666      2.00000
     83      -4.0491      2.00000
     84      -4.0471      2.00000
     85      -4.0303      2.00000
     86      -4.0284      2.00000
     87      -3.9996      2.00000
     88      -3.9722      2.00000
     89      -3.9707      2.00000
     90      -3.9546      2.00000
     91      -3.9133      2.00000
     92      -3.9053      2.00000
     93      -3.8986      2.00000
     94      -3.8871      2.00000
     95      -3.8813      2.00000
     96      -3.8501      2.00000
     97      -3.7687      2.00000
     98      -3.7232      2.00000
     99      -3.7196      2.00000
    100      -3.6934      2.00000
    101      -3.6846      2.00000
    102      -3.6553      2.00000
    103      -3.6499      2.00000
    104      -3.6318      2.00000
    105      -3.6255      2.00000
    106      -3.6208      2.00000
    107      -3.6090      2.00000
    108      -3.5939      2.00000
    109      -3.5465      2.00000
    110      -3.5406      2.00000
    111      -3.4989      2.00000
    112      -3.4923      2.00000
    113      -3.4800      2.00000
    114      -3.4677      2.00000
    115      -3.4598      2.00000
    116      -3.3992      2.00000
    117      -3.3980      2.00000
    118      -3.3767      2.00000
    119      -3.3608      2.00000
    120      -3.3558      2.00000
    121      -3.3518      2.00000
    122      -3.2899      2.00000
    123      -3.2896      2.00000
    124      -3.2819      2.00000
    125      -3.2807      2.00000
    126      -3.2699      2.00000
    127      -3.2580      2.00000
    128      -3.2531      2.00000
    129      -3.2492      2.00000
    130      -3.2264      2.00000
    131      -3.2091      2.00000
    132      -3.1954      2.00000
    133      -3.1905      2.00000
    134      -3.1718      2.00000
    135      -3.1543      2.00000
    136      -3.1434      2.00000
    137      -3.1348      2.00000
    138      -3.1064      2.00000
    139      -3.0933      2.00000
    140      -3.0830      2.00000
    141      -3.0825      2.00000
    142      -3.0460      2.00000
    143      -2.9952      2.00000
    144      -2.9873      2.00000
    145      -2.9789      2.00000
    146      -2.9667      2.00000
    147      -2.9652      2.00000
    148      -2.9437      2.00000
    149      -2.9338      2.00000
    150      -2.9270      2.00000
    151      -2.9230      2.00000
    152      -2.9181      2.00000
    153      -2.9029      2.00000
    154      -2.8913      2.00000
    155      -2.8832      2.00000
    156      -2.8750      2.00000
    157      -2.8744      2.00000
    158      -2.8583      2.00000
    159      -2.8547      2.00000
    160      -2.8492      2.00000
    161      -2.8427      2.00000
    162      -2.8378      2.00000
    163      -2.8336      2.00000
    164      -2.8156      2.00000
    165      -2.8090      2.00000
    166      -2.7869      2.00000
    167      -2.7644      2.00000
    168      -2.7565      2.00000
    169      -2.7525      2.00000
    170      -2.7289      2.00000
    171      -2.7205      2.00000
    172      -2.7082      2.00000
    173      -2.6785      2.00000
    174      -2.6682      2.00000
    175      -2.6563      2.00000
[...]
  0.000   0.000   0.000   0.000   0.000   0.000   0.000   0.000   0.000   0.000   0.000   0.000   0.000   0.000   0.000   0.000
  0.000   0.000   0.000   0.000   0.000   0.000   0.000   0.000   0.000   0.000   0.000   0.000   0.000   0.000   0.000   0.000
  0.000   0.000   0.000   0.000   0.000   0.000   0.000   0.000   0.000   0.000   0.000   0.000   0.000   0.000   0.000   0.000
  0.000   0.000   0.000   0.000   0.000   0.000   0.000   0.000   0.000   0.000   0.000   0.000   0.000   0.000   0.000   0.000
  0.000   0.000   0.000   0.000   0.000   0.000   0.000   0.000   0.000   0.000   0.000   0.000   0.000   0.000   0.000   0.000
  0.000   0.000   0.000   0.000   0.000   0.000   0.000   0.000   0.000   0.000   1.000   0.000   0.000   0.000   0.000   0.000
  0.000   0.000   0.000   0.000   0.000   0.000   0.000   0.000   0.000   0.000   0.000   0.000   0.000   0.000   0.000   0.000
  0.000   0.000   0.000   0.000   0.000   0.000   0.000   0.000   0.000   0.000   0.000   0.000   0.000   0.000   0.000   0.000
  0.000   0.000   0.000   0.000   0.000   0.000   0.000   0.000   0.000   0.000   0.000   0.000   0.000   0.000   0.000   0.000
  0.000   0.000   0.000   0.000   0.000   0.000   0.000   0.000   0.000   0.000   0.000   0.000   0.000   0.000   0.000   0.000
  0.000   0.000   0.000   0.000   0.000   0.000   0.000   0.000   0.000   0.000   0.000   0.000   0.000   0.000   0.000   0.000
  0.000   0.000   0.000   0.000   0.000   0.000   0.000   0.000   0.000   0.000   0.000   0.000   0.000   0.000   0.000   0.000
  0.000   0.000   0.000   0.000   0.000   0.000   0.000   0.000   0.000   0.000   0.000   0.000   0.000   0.000   0.000   0.000


------------------------ aborting loop because EDIFF is reached ----------------------------------------





 total charge

# of ion       s       p       d       tot
------------------------------------------
    1        0.416   0.203   9.177   9.796
    2        0.416   0.203   9.177   9.796
    3        0.416   0.203   9.177   9.796
    4        0.416   0.203   9.177   9.796
    5        0.416   0.204   9.176   9.796
    6        0.416   0.203   9.177   9.796
    7        0.416   0.203   9.177   9.796
    8        0.416   0.203   9.177   9.796
    9        0.415   0.204   9.176   9.795
   10        0.407   0.270   9.164   9.840
   11        0.402   0.272   9.165   9.839
   12        0.407   0.270   9.164   9.840
   13        0.402   0.272   9.165   9.839
   14        0.402   0.272   9.165   9.839
   15        0.405   0.269   9.165   9.839
   16        0.407   0.270   9.164   9.840
   17        0.405   0.269   9.165   9.839
   18        0.405   0.269   9.165   9.839
   19        0.406   0.271   9.163   9.840
   20        0.417   0.283   9.159   9.859
   21        0.417   0.283   9.159   9.859
   22        0.401   0.273   9.166   9.840
   23        0.417   0.283   9.159   9.859
   24        0.401   0.273   9.166   9.840
   25        0.406   0.271   9.163   9.840
   26        0.406   0.271   9.163   9.840
   27        0.401   0.273   9.166   9.840
   28        0.419   0.197   9.182   9.799
   29        0.402   0.211   9.180   9.793
   30        0.402   0.211   9.180   9.793
   31        0.402   0.211   9.180   9.793
   32        0.402   0.211   9.180   9.793
   33        0.402   0.211   9.180   9.793
   34        0.402   0.211   9.180   9.793
   35        0.420   0.199   9.181   9.799
   36        0.596   0.610   8.513   9.720
   37        1.031   1.115   0.000   2.145
--------------------------------------------------
tot         15.932  10.128 329.496 355.555
 
    CHARGE:  cpu time    0.3942: real time    0.3943
    FORLOC:  cpu time    0.0112: real time    0.0112
    FORNL :  cpu time    1.6437: real time    1.6438
    STRESS:  cpu time    4.9207: real time    4.9209
    FORCOR:  cpu time    0.0496: real time    0.0497
    FORHAR:  cpu time    0.0182: real time    0.0183
    OFIELD:  cpu time    0.0003: real time    0.0003

  FORCE on cell =-STRESS in cart. coord.  units (eV):
  Direction    XX          YY          ZZ          XY          YZ          ZX
  --------------------------------------------------------------------------------------
  Alpha Z   683.19962   683.19962   683.19962
  Ewald  154741.83398154741.83403************     0.00002     0.00000     0.00002
  Hartree164749.02268164749.02269************     0.00001    -0.00000     0.00001
  E(xc)   -2095.53381 -2095.53380 -2100.51989    -0.00001     0.00000     0.00000
  Local  ************************331032.54670     0.00029    -0.00004    -0.00012
  n-local  -325.10413  -307.99957  -313.89064    10.56931    -0.34887     0.42716
  augment  3296.69240  3296.69261  3297.00174    -0.00019    -0.00001     0.00002
  Kinetic  4959.07806  4958.79370  4968.34660     2.55298     1.35949    -0.59883
  Fock        0.00000     0.00000     0.00000     0.00000     0.00000     0.00000
  -------------------------------------------------------------------------------------
  Total      -7.10061    -7.10061     0.33490    -0.00000    -0.00000     0.00000
  in kB      -6.97671    -6.97671     0.32906    -0.00000    -0.00000     0.00000
  external pressure =       -4.54 kB  Pullay stress =        0.00 kB


 VOLUME and BASIS-vectors are now :
 -----------------------------------------------------------------------------
  energy-cutoff  :      500.00
  volume of cell :     1630.63
      direct lattice vectors                 reciprocal lattice vectors
     8.791366577  0.000000000  0.000000000     0.113747958 -0.065672414  0.000000000
     4.395683289  7.613546790  0.000000000     0.000000000  0.131344829  0.000000000
     0.000000000  0.000000000 24.361965240     0.000000000  0.000000000  0.041047592

  length of vectors
     8.791366577  8.791366577 24.361965240     0.131344829  0.131344829  0.041047592


 FORCES acting on ions
    electron-ion (+dipol)            ewald-force                    non-local-force                 convergence-correction
 -----------------------------------------------------------------------------------------------
   0.465E-04 -.279E-04 0.269E+04   -.954E-04 0.593E-04 -.269E+04   0.396E-17 0.169E-17 -.176E+01   -.846E-04 -.156E-03 0.123E+00
   0.198E+00 0.368E+00 0.269E+04   -.223E+00 -.263E+00 -.269E+04   0.362E-01 -.237E-01 -.164E+01   -.108E-01 -.744E-01 0.125E+00
   -.198E+00 0.368E+00 0.269E+04   0.224E+00 -.263E+00 -.269E+04   -.362E-01 -.237E-01 -.164E+01   0.102E-01 -.725E-01 0.125E+00
   0.418E+00 -.126E-01 0.269E+04   -.340E+00 -.619E-01 -.269E+04   -.245E-02 0.432E-01 -.164E+01   -.696E-01 0.280E-01 0.125E+00
   -.701E-05 -.194E-04 0.269E+04   0.981E-04 -.199E-05 -.269E+04   0.162E-17 0.134E-17 -.176E+01   0.618E-02 0.378E-02 0.126E+00
   -.418E+00 -.126E-01 0.269E+04   0.340E+00 -.620E-01 -.269E+04   0.245E-02 0.432E-01 -.164E+01   0.682E-01 0.289E-01 0.125E+00
   0.220E+00 -.356E+00 0.269E+04   -.116E+00 0.325E+00 -.269E+04   -.386E-01 -.195E-01 -.164E+01   -.572E-01 0.456E-01 0.125E+00
   -.220E+00 -.356E+00 0.269E+04   0.116E+00 0.325E+00 -.269E+04   0.386E-01 -.195E-01 -.164E+01   0.588E-01 0.447E-01 0.125E+00
   0.365E-04 -.131E-04 0.269E+04   0.792E-04 -.643E-04 -.269E+04   0.376E-18 0.117E-17 -.158E+01   -.663E-02 -.341E-02 0.159E+00
   0.259E+01 0.150E+01 0.921E+03   -.254E+01 -.147E+01 -.920E+03   -.548E-01 -.317E-01 -.692E+00   -.113E-01 -.647E-02 -.320E-01
   -.288E-04 0.235E+01 0.924E+03   0.414E-04 -.240E+01 -.924E+03   0.611E-12 0.930E-01 -.453E+00   0.619E-02 -.578E-01 -.392E-01
   -.259E+01 0.150E+01 0.921E+03   0.254E+01 -.147E+01 -.920E+03   0.548E-01 -.317E-01 -.692E+00   0.997E-02 -.581E-02 -.328E-01
   0.204E+01 -.118E+01 0.924E+03   -.208E+01 0.120E+01 -.924E+03   0.806E-01 -.465E-01 -.453E+00   -.471E-01 0.343E-01 -.392E-01
   -.204E+01 -.118E+01 0.924E+03   0.208E+01 0.120E+01 -.924E+03   -.806E-01 -.465E-01 -.453E+00   0.574E-01 0.334E-01 -.408E-01
   0.163E-04 0.320E+00 0.920E+03   -.108E-03 -.236E+00 -.920E+03   -.342E-12 -.520E-01 -.496E+00   -.128E-02 -.326E-01 -.263E-01
   -.796E-05 -.300E+01 0.921E+03   0.206E-04 0.294E+01 -.920E+03   0.416E-12 0.633E-01 -.692E+00   -.890E-04 0.115E-01 -.328E-01
   0.277E+00 -.160E+00 0.920E+03   -.205E+00 0.118E+00 -.920E+03   -.451E-01 0.260E-01 -.496E+00   -.289E-01 0.152E-01 -.263E-01
   -.277E+00 -.160E+00 0.920E+03   0.205E+00 0.118E+00 -.920E+03   0.451E-01 0.260E-01 -.496E+00   0.290E-01 0.167E-01 -.255E-01
   0.414E-04 0.204E+01 -.878E+03   -.130E-03 -.190E+01 0.878E+03   -.530E-12 -.807E-01 0.369E+00   0.999E-03 -.648E-01 -.164E+00
   0.122E+02 0.705E+01 -.853E+03   -.116E+02 -.669E+01 0.853E+03   -.516E+00 -.298E+00 0.129E+00   -.143E+00 -.826E-01 -.252E+00
   -.122E+02 0.705E+01 -.853E+03   0.116E+02 -.669E+01 0.853E+03   0.516E+00 -.298E+00 0.129E+00   0.132E+00 -.829E-01 -.252E+00
   0.591E+01 -.341E+01 -.872E+03   -.603E+01 0.348E+01 0.871E+03   0.137E+00 -.792E-01 0.706E+00   -.321E-01 0.190E-01 -.190E+00
   -.573E-04 -.141E+02 -.853E+03   0.441E-04 0.134E+02 0.853E+03   0.391E-11 0.596E+00 0.129E+00   -.539E-02 0.157E+00 -.252E+00
   -.591E+01 -.341E+01 -.872E+03   0.603E+01 0.348E+01 0.871E+03   -.137E+00 -.792E-01 0.706E+00   0.336E-01 0.195E-01 -.190E+00
   -.177E+01 -.102E+01 -.878E+03   0.164E+01 0.948E+00 0.878E+03   0.699E-01 0.404E-01 0.369E+00   0.561E-01 0.322E-01 -.164E+00
   0.177E+01 -.102E+01 -.878E+03   -.164E+01 0.948E+00 0.878E+03   -.699E-01 0.404E-01 0.369E+00   -.559E-01 0.331E-01 -.164E+00
   0.196E-04 0.683E+01 -.872E+03   0.110E-03 -.697E+01 0.871E+03   0.104E-11 0.158E+00 0.706E+00   -.292E-03 -.373E-01 -.190E+00
   0.544E-04 -.378E-04 -.266E+04   -.117E-03 0.784E-04 0.266E+04   0.204E-17 -.223E-17 0.192E+01   0.216E-03 -.132E-04 -.173E+00
   0.182E+02 0.302E+02 -.265E+04   -.181E+02 -.301E+02 0.265E+04   -.341E-01 -.107E-01 0.192E+01   -.123E+00 -.198E+00 -.199E+00
   -.182E+02 0.302E+02 -.265E+04   0.181E+02 -.301E+02 0.265E+04   0.341E-01 -.107E-01 0.192E+01   0.122E+00 -.197E+00 -.199E+00
   0.353E+02 0.608E+00 -.265E+04   -.351E+02 -.586E+00 0.265E+04   -.263E-01 -.242E-01 0.192E+01   -.233E+00 -.694E-02 -.199E+00
   -.353E+02 0.608E+00 -.265E+04   0.351E+02 -.586E+00 0.265E+04   0.263E-01 -.242E-01 0.192E+01   0.232E+00 -.599E-02 -.198E+00
   0.171E+02 -.309E+02 -.265E+04   -.171E+02 0.307E+02 0.265E+04   0.780E-02 0.349E-01 0.192E+01   -.109E+00 0.205E+00 -.199E+00
   -.171E+02 -.309E+02 -.265E+04   0.171E+02 0.307E+02 0.265E+04   -.780E-02 0.349E-01 0.192E+01   0.111E+00 0.204E+00 -.198E+00
   0.225E-04 -.111E-04 -.266E+04   0.106E-03 -.668E-04 0.266E+04   -.427E-17 0.311E-17 0.185E+01   -.637E-02 -.325E-02 -.200E+00
   0.103E-04 -.263E-04 -.220E+04   0.943E-04 0.110E-04 0.220E+04   -.756E-18 0.975E-17 -.434E+01   0.431E-02 0.264E-02 -.394E+00
   0.493E-04 -.266E-04 -.123E+04   0.176E-04 0.244E-06 0.124E+04   -.399E-18 -.409E-18 -.120E+02   0.771E-03 0.474E-03 -.433E-01
 -----------------------------------------------------------------------------------------------
   0.429E-03 -.737E-03 0.202E+02   0.142E-12 -.303E-12 0.227E-12   0.288E-15 0.200E-15 -.173E+02   -.199E-02 0.217E-02 -.296E+01
 
 
 POSITION                                       TOTAL-FORCE (eV/Angst)
 -----------------------------------------------------------------------------------
      0.00000      0.00000      5.28219         0.000000     -0.000000      0.008146
      2.93046      0.00000      5.28219         0.000649      0.008008      0.017642
      5.86091      0.00000      5.28219        -0.000649      0.008008      0.017642
      1.46523      2.53785      5.28219         0.007260     -0.003442      0.017642
      4.39568      2.53785      5.28219         0.000000      0.000000      0.020971
      7.32614      2.53785      5.28219        -0.007260     -0.003442      0.017642
      2.93046      5.07570      5.28219         0.006611     -0.004566      0.017642
      5.86091      5.07570      5.28219        -0.006611     -0.004566      0.017642
      8.79137      5.07570      5.28219         0.000000     -0.000000      0.025058
      1.46523      0.84595      7.67490        -0.014434     -0.008333     -0.013981
      4.39568      0.84595      7.67490        -0.000000     -0.019954     -0.029125
      7.32614      0.84595      7.67490         0.014434     -0.008333     -0.013981
      2.93046      3.38380      7.67490        -0.017280      0.009977     -0.029125
      5.86091      3.38380      7.67490         0.017280      0.009977     -0.029125
      8.79137      3.38380      7.67490        -0.000000     -0.001131     -0.021307
      4.39568      5.92165      7.67490         0.000000      0.016667     -0.013981
      7.32614      5.92165      7.67490        -0.000979      0.000565     -0.021307
     10.25659      5.92165      7.67490         0.000979      0.000565     -0.021307
      8.79137      1.69432     10.05238         0.000000      0.001984      0.000103
      2.92802      1.69049     10.04000        -0.029485     -0.017023     -0.167361
      5.86334      1.69049     10.04000         0.029485     -0.017023     -0.167361
     10.25637      4.22988     10.04709        -0.015287      0.008826     -0.002207
      4.39568      4.23256     10.04000         0.000000      0.034047     -0.167361
      7.32637      4.22988     10.04709         0.015287      0.008826     -0.002207
     11.71973      6.76639     10.05238        -0.001719     -0.000992      0.000103
      5.86300      6.76639     10.05238         0.001719     -0.000992      0.000103
      8.79137      6.76733     10.04709        -0.000000     -0.017652     -0.002207
      0.00000      0.00000     12.42253         0.000000      0.000000     -0.005629
      2.94245      0.01904     12.42445        -0.058878     -0.082925      0.027158
      5.84892      0.01904     12.42445         0.058878     -0.082925      0.027158
      1.48772      2.53872     12.42445        -0.101255     -0.009527      0.027158
      7.30365      2.53872     12.42445         0.101255     -0.009527      0.027158
      2.94095      5.05579     12.42445        -0.042377      0.092453      0.027158
      5.85042      5.05579     12.42445         0.042377      0.092453      0.027158
      8.79137      5.07570     12.41807         0.000000      0.000000     -0.013874
      4.39568      2.53785     12.28633         0.000000     -0.000000      0.359486
      4.39568      2.53785     14.04106         0.000000      0.000000      0.038680
 -----------------------------------------------------------------------------------
    total drift:                               -0.001558      0.001438     -0.120342


--------------------------------------------------------------------------------------------------------



  FREE ENERGIE OF THE ION-ELECTRON SYSTEM (eV)
  ---------------------------------------------------
  free  energy   TOTEN  =       -99.35565455 eV

  energy  without entropy=      -99.35565455  energy(sigma->0) =      -99.35565455
 


--------------------------------------------------------------------------------------------------------


    POTLOK:  cpu time    0.0493: real time    0.0493


--------------------------------------------------------------------------------------------------------


 stress matrix after NEB project (eV)
     -7.10061     -0.00000      0.00000
     -0.00000     -7.10061     -0.00000
      0.00000     -0.00000      0.33490
  FORCES: max atom, RMS     0.038680    0.006359
  FORCE total and by dimension    0.038680    0.038680
  Stress total and by dimension   10.047361    7.100609
     LOOP+:  cpu time   75.6979: real time   75.7155
 -----------------------------------------------------------------------------
|                                                                             |
|           W    W    AA    RRRRR   N    N  II  N    N   GGGG   !!!           |
|           W    W   A  A   R    R  NN   N  II  NN   N  G    G  !!!           |
|           W    W  A    A  R    R  N N  N  II  N N  N  G       !!!           |
|           W WW W  AAAAAA  RRRRR   N  N N  II  N  N N  G  GGG   !            |
|           WW  WW  A    A  R   R   N   NN  II  N   NN  G    G                |
|           W    W  A    A  R    R  N    N  II  N    N   GGGG   !!!           |
|                                                                             |
|     Tetrahedron method does not include variations of the Fermi             |
|     occupations, so forces and stress will be inaccurate. We suggest        |
|     using a different smearing scheme ISMEAR = 1 or 2 for metals in         |
|     relaxations.                                                            |
|                                                                             |
 -----------------------------------------------------------------------------

    4ORBIT:  cpu time    0.0000: real time    0.0000



 total charge

# of ion       s       p       d       tot
------------------------------------------
    1        0.416   0.203   9.177   9.796
    2        0.416   0.203   9.177   9.796
    3        0.416   0.203   9.177   9.796
    4        0.416   0.203   9.177   9.796
    5        0.416   0.204   9.176   9.796
    6        0.416   0.203   9.177   9.796
    7        0.416   0.203   9.177   9.796
    8        0.416   0.203   9.177   9.796
    9        0.415   0.204   9.176   9.795
   10        0.407   0.270   9.164   9.840
   11        0.402   0.272   9.165   9.839
   12        0.407   0.270   9.164   9.840
   13        0.402   0.272   9.165   9.839
   14        0.402   0.272   9.165   9.839
   15        0.405   0.269   9.165   9.839
   16        0.407   0.270   9.164   9.840
   17        0.405   0.269   9.165   9.839
   18        0.405   0.269   9.165   9.839
   19        0.406   0.271   9.163   9.840
   20        0.417   0.283   9.159   9.859
   21        0.417   0.283   9.159   9.859
   22        0.401   0.273   9.166   9.840
   23        0.417   0.283   9.159   9.859
   24        0.401   0.273   9.166   9.840
   25        0.406   0.271   9.163   9.840
   26        0.406   0.271   9.163   9.840
   27        0.401   0.273   9.166   9.840
   28        0.419   0.197   9.182   9.799
   29        0.402   0.211   9.180   9.793
   30        0.402   0.211   9.180   9.793
   31        0.402   0.211   9.180   9.793
   32        0.402   0.211   9.180   9.793
   33        0.402   0.211   9.180   9.793
   34        0.402   0.211   9.180   9.793
   35        0.420   0.199   9.181   9.799
   36        0.596   0.610   8.513   9.720
   37        1.031   1.115   0.000   2.145
--------------------------------------------------
tot         15.932  10.128 329.496 355.555
 
 BZINTS: Fermi energy:    0.360603;  399.000000 electrons
         Band energy:-0.150097E+04;  BLOECHL correction:   -0.073013

 total amount of memory used by VASP MPI-rank0   131177. kBytes
=======================================================================

   base      :      30000. kBytes
   nonlr-proj:      15256. kBytes
   fftplans  :       4808. kBytes
   grid      :      19857. kBytes
   one-center:        575. kBytes
   wavefun   :      60681. kBytes
 
  
  
 General timing and accounting informations for this job:
 ========================================================
  
                  Total CPU time used (sec):       83.536
                            User time (sec):       80.576
                          System time (sec):        2.959
                         Elapsed time (sec):       83.876
  
                   Maximum memory used (kb):      393788.
                   Average memory used (kb):          N/A
  
                          Minor page faults:        73171
                          Major page faults:            0
                 Voluntary context switches:         4776
