PROCAR new format
# of k-points:   10         # of bands:  252         # of ions:   37

 k-point     1 :    0.00000000 0.00000000 0.00000000     weight = 0.01562500

band     1 # energy  -10.12164101 # occ.  2.00000000
 
ion      s      p      d    tot
    1  0.000  0.000  0.000  0.000
    2  0.000  0.000  0.000  0.000
    3  0.000  0.000  0.000  0.000
    4  0.000  0.000  0.000  0.000
    5  0.000  0.000  0.000  0.000
    6  0.000  0.000  0.000  0.000
    7  0.000  0.000  0.000  0.000
    8  0.000  0.000  0.000  0.000
    9  0.000  0.000  0.000  0.000
   10  0.000  0.000  0.000  0.000
   11  0.000  0.000  0.000  0.000
   12  0.000  0.000  0.000  0.000
   13  0.000  0.000  0.000  0.000
   14  0.000  0.000  0.000  0.000
   15  0.000  0.000  0.000  0.000
   16  0.000  0.000  0.000  0.000
   17  0.000  0.000  0.000  0.000
   18  0.000  0.000  0.000  0.000
   19  0.000  0.000  0.000  0.000
   20  0.000  0.000  0.001  0.001
   21  0.000  0.000  0.001  0.001
   22  0.000  0.000  0.000  0.000
   23  0.000  0.000  0.001  0.001
   24  0.000  0.000  0.000  0.000
   25  0.000  0.000  0.000  0.000
   26  0.000  0.000  0.000  0.000
   27  0.000  0.000  0.000  0.000
   28  0.000  0.000  0.000  0.000
   29  0.000  0.000  0.000  0.001
   30  0.000  0.000  0.000  0.001
   31  0.000  0.000  0.000  0.001
   32  0.000  0.000  0.000  0.001
   33  0.000  0.000  0.000  0.001
   34  0.000  0.000  0.000  0.001
   35  0.000  0.000  0.000  0.000
   36  0.084  0.069  0.246  0.400
   37  0.413  0.032  0.000  0.445
tot    0.500  0.103  0.250  0.854
 
band     2 # energy   -6.77368409 # occ.  2.00000000
 
ion      s      p      d    tot
    1  0.006  0.001  0.000  0.006
    2  0.006  0.001  0.000  0.006
    3  0.006  0.001  0.000  0.006
    4  0.006  0.001  0.000  0.006
    5  0.006  0.001  0.000  0.006
    6  0.006  0.001  0.000  0.006
    7  0.006  0.001  0.000  0.006
    8  0.006  0.001  0.000  0.006
    9  0.006  0.001  0.000  0.006
   10  0.023  0.000  0.000  0.023
   11  0.023  0.000  0.000  0.024
   12  0.023  0.000  0.000  0.023
   13  0.023  0.000  0.000  0.024
   14  0.023  0.000  0.000  0.024
   15  0.023  0.000  0.000  0.024
   16  0.023  0.000  0.000  0.023
   17  0.023  0.000  0.000  0.024
   18  0.023  0.000  0.000  0.024
   19  0.023  0.000  0.000  0.024
   20  0.024  0.000  0.000  0.024
   21  0.024  0.000  0.000  0.024
   22  0.024  0.000  0.000  0.024
   23  0.024  0.000  0.000  0.024
   24  0.024  0.000  0.000  0.024
   25  0.023  0.000  0.000  0.024
   26  0.023  0.000  0.000  0.024
   27  0.024  0.000  0.000  0.024
   28  0.006  0.001  0.000  0.006
   29  0.006  0.001  0.000  0.006
   30  0.006  0.001  0.000  0.006
   31  0.006  0.001  0.000  0.006
   32  0.006  0.001  0.000  0.006
   33  0.006  0.001  0.000  0.006
   34  0.006  0.001  0.000  0.006
   35  0.006  0.001  0.000  0.006
   36  0.004  0.002  0.002  0.009
   37  0.002  0.000  0.000  0.002
tot    0.524  0.015  0.008  0.547
 
band     3 # energy   -5.90171422 # occ.  2.00000000
 
ion      s      p      d    tot
    1  0.008  0.000  0.000  0.009
    2  0.008  0.000  0.000  0.009
    3  0.008  0.000  0.000  0.009
    4  0.008  0.000  0.000  0.009
    5  0.008  0.000  0.000  0.009
    6  0.008  0.000  0.000  0.009
    7  0.008  0.000  0.000  0.009
    8  0.008  0.000  0.000  0.009
    9  0.008  0.000  0.000  0.009
   10  0.012  0.001  0.014  0.027
   11  0.011  0.001  0.015  0.027
   12  0.012  0.001  0.014  0.027
   13  0.011  0.001  0.015  0.027
   14  0.011  0.001  0.015  0.027
   15  0.011  0.001  0.015  0.027
   16  0.012  0.001  0.014  0.027
   17  0.011  0.001  0.015  0.027
   18  0.011  0.001  0.015  0.027
   19  0.011  0.001  0.016  0.028
   20  0.012  0.001  0.016  0.029
   21  0.012  0.001  0.016  0.029
   22  0.012  0.001  0.016  0.029
   23  0.012  0.001  0.016  0.029
   24  0.012  0.001  0.016  0.029
   25  0.011  0.001  0.016  0.028
   26  0.011  0.001  0.016  0.028
   27  0.012  0.001  0.016  0.029
   28  0.007  0.000  0.000  0.008
   29  0.007  0.000  0.000  0.008
   30  0.007  0.000  0.000  0.008
   31  0.007  0.000  0.000  0.008
   32  0.007  0.000  0.000  0.008
   33  0.007  0.000  0.000  0.008
   34  0.007  0.000  0.000  0.008
   35  0.007  0.000  0.000  0.008
   36  0.006  0.002  0.004  0.011
   37  0.001  0.000  0.000  0.001
tot    0.343  0.026  0.285  0.655
 
band     4 # energy   -5.65654450 # occ.  2.00000000
 
ion      s      p      d    tot
    1  0.009  0.000  0.011  0.020
    2  0.008  0.000  0.011  0.018
    3  0.008  0.000  0.011  0.018
    4  0.008  0.000  0.011  0.018
    5  0.007  0.000  0.010  0.017
    6  0.008  0.000  0.011  0.018
    7  0.008  0.000  0.011  0.018
    8  0.008  0.000  0.011  0.018
    9  0.007  0.000  0.010  0.017
   10  0.000  0.000  0.017  0.017
   11  0.000  0.000  0.010  0.011
   12  0.000  0.000  0.017  0.017
   13  0.000  0.000  0.010  0.011
   14  0.000  0.000  0.010  0.011
   15  0.000  0.000  0.010  0.010
   16  0.000  0.000  0.017  0.017
   17  0.000  0.000  0.010  0.010
   18  0.000  0.000  0.010  0.010
   19  0.001  0.000  0.018  0.019
   20  0.001  0.000  0.031  0.032
   21  0.001  0.000  0.031  0.032
   22  0.000  0.000  0.015  0.015
   23  0.001  0.000  0.031  0.032
   24  0.000  0.000  0.015  0.015
   25  0.001  0.000  0.018  0.019
   26  0.001  0.000  0.018  0.019
   27  0.000  0.000  0.015  0.015
   28  0.010  0.000  0.013  0.023
   29  0.012  0.000  0.017  0.029
   30  0.012  0.000  0.017  0.029
   31  0.012  0.000  0.017  0.029
   32  0.012  0.000  0.017  0.029
   33  0.012  0.000  0.017  0.029
   34  0.012  0.000  0.017  0.029
   35  0.013  0.000  0.014  0.027
   36  0.012  0.000  0.053  0.065
   37  0.001  0.002  0.000  0.003
tot    0.185  0.008  0.581  0.774
 
band     5 # energy   -5.53053251 # occ.  2.00000000
 
ion      s      p      d    tot
    1  0.000  0.000  0.008  0.008
    2  0.000  0.000  0.002  0.003
    3  0.000  0.000  0.002  0.003
    4  0.000  0.000  0.002  0.003
    5  0.000  0.000  0.004  0.004
    6  0.001  0.000  0.002  0.004
    7  0.000  0.000  0.002  0.003
    8  0.001  0.000  0.002  0.004
    9  0.000  0.000  0.001  0.001
   10  0.013  0.001  0.011  0.025
   11  0.002  0.001  0.022  0.025
   12  0.003  0.001  0.022  0.026
   13  0.001  0.001  0.023  0.025
   14  0.005  0.000  0.020  0.025
   15  0.000  0.000  0.015  0.016
   16  0.004  0.001  0.021  0.026
   17  0.000  0.000  0.015  0.016
   18  0.001  0.000  0.011  0.013
   19  0.004  0.001  0.018  0.023
   20  0.036  0.000  0.007  0.044
   21  0.008  0.000  0.095  0.103
   22  0.001  0.001  0.055  0.056
   23  0.010  0.000  0.086  0.097
   24  0.002  0.000  0.020  0.023
   25  0.016  0.000  0.038  0.054
   26  0.003  0.001  0.015  0.020
   27  0.001  0.001  0.052  0.053
   28  0.000  0.000  0.003  0.003
   29  0.001  0.001  0.007  0.009
   30  0.001  0.000  0.007  0.008
   31  0.001  0.001  0.007  0.009
   32  0.000  0.000  0.007  0.007
   33  0.001  0.001  0.007  0.009
   34  0.000  0.000  0.007  0.007
   35  0.000  0.000  0.002  0.002
   36  0.000  0.001  0.049  0.050
   37  0.000  0.003  0.000  0.003
tot    0.119  0.019  0.667  0.805
 
band     6 # energy   -5.53053134 # occ.  2.00000000
 
ion      s      p      d    tot
    1  0.000  0.000  0.008  0.008
    2  0.001  0.000  0.002  0.003
    3  0.001  0.000  0.002  0.003
    4  0.001  0.000  0.002  0.003
    5  0.000  0.000  0.004  0.004
    6  0.000  0.000  0.002  0.002
    7  0.001  0.000  0.002  0.004
    8  0.000  0.000  0.002  0.002
    9  0.000  0.000  0.001  0.001
   10  0.000  0.000  0.025  0.026
   11  0.004  0.001  0.021  0.025
   12  0.010  0.001  0.014  0.025
   13  0.004  0.000  0.020  0.025
   14  0.000  0.001  0.023  0.025
   15  0.001  0.000  0.013  0.014
   16  0.009  0.001  0.015  0.025
   17  0.001  0.000  0.012  0.014
   18  0.000  0.000  0.017  0.017
   19  0.011  0.001  0.030  0.041
   20  0.000  0.000  0.118  0.118
   21  0.028  0.000  0.031  0.060
   22  0.002  0.001  0.029  0.032
   23  0.026  0.000  0.039  0.065
   24  0.000  0.001  0.065  0.065
   25  0.000  0.002  0.009  0.011
   26  0.012  0.001  0.032  0.045
   27  0.002  0.001  0.033  0.035
   28  0.000  0.000  0.003  0.003
   29  0.000  0.000  0.007  0.007
   30  0.001  0.001  0.007  0.008
   31  0.000  0.000  0.007  0.007
   32  0.002  0.001  0.007  0.009
   33  0.001  0.000  0.006  0.008
   34  0.001  0.001  0.007  0.009
   35  0.000  0.000  0.002  0.002
   36  0.000  0.001  0.049  0.050
   37  0.000  0.003  0.000  0.003
tot    0.119  0.019  0.667  0.805
 
band     7 # energy   -5.52487923 # occ.  2.00000000
 
ion      s      p      d    tot
    1  0.001  0.000  0.015  0.016
    2  0.005  0.000  0.014  0.019
    3  0.005  0.000  0.014  0.019
    4  0.005  0.000  0.014  0.019
    5  0.010  0.000  0.012  0.021
    6  0.005  0.000  0.014  0.019
    7  0.005  0.000  0.014  0.019
    8  0.005  0.000  0.014  0.019
    9  0.009  0.000  0.008  0.017
   10  0.004  0.001  0.008  0.013
   11  0.002  0.001  0.024  0.026
   12  0.004  0.001  0.008  0.013
   13  0.002  0.001  0.024  0.026
   14  0.002  0.001  0.024  0.026
   15  0.001  0.000  0.020  0.021
   16  0.004  0.001  0.008  0.013
   17  0.001  0.000  0.020  0.021
   18  0.001  0.000  0.020  0.021
   19  0.002  0.001  0.031  0.033
   20  0.009  0.000  0.070  0.079
   21  0.009  0.000  0.070  0.079
   22  0.006  0.001  0.006  0.012
   23  0.009  0.000  0.070  0.079
   24  0.006  0.001  0.006  0.012
   25  0.002  0.001  0.031  0.033
   26  0.002  0.001  0.031  0.033
   27  0.006  0.001  0.006  0.012
   28  0.000  0.000  0.000  0.000
   29  0.001  0.000  0.005  0.006
   30  0.001  0.000  0.005  0.006
   31  0.001  0.000  0.005  0.006
   32  0.001  0.000  0.005  0.006
   33  0.001  0.000  0.005  0.006
   34  0.001  0.000  0.005  0.006
   35  0.004  0.001  0.000  0.005
   36  0.000  0.004  0.023  0.027
   37  0.004  0.002  0.000  0.006
tot    0.136  0.016  0.646  0.798
 
band     8 # energy   -5.49914332 # occ.  2.00000000
 
ion      s      p      d    tot
    1  0.000  0.000  0.001  0.001
    2  0.001  0.000  0.003  0.004
    3  0.002  0.000  0.004  0.006
    4  0.001  0.000  0.003  0.004
    5  0.000  0.000  0.006  0.006
    6  0.000  0.000  0.003  0.003
    7  0.002  0.000  0.004  0.006
    8  0.000  0.000  0.003  0.003
    9  0.000  0.000  0.007  0.007
   10  0.000  0.000  0.027  0.027
   11  0.004  0.000  0.055  0.059
   12  0.000  0.001  0.029  0.029
   13  0.004  0.000  0.053  0.058
   14  0.016  0.001  0.005  0.022
   15  0.005  0.001  0.024  0.030
   16  0.000  0.001  0.029  0.029
   17  0.005  0.001  0.024  0.030
   18  0.019  0.001  0.025  0.045
   19  0.003  0.000  0.066  0.069
   20  0.003  0.000  0.038  0.041
   21  0.001  0.001  0.024  0.026
   22  0.007  0.001  0.039  0.047
   23  0.001  0.001  0.024  0.026
   24  0.026  0.001  0.019  0.046
   25  0.011  0.001  0.007  0.019
   26  0.003  0.000  0.064  0.067
   27  0.006  0.001  0.040  0.047
   28  0.000  0.000  0.005  0.005
   29  0.001  0.000  0.004  0.006
   30  0.000  0.000  0.002  0.003
   31  0.001  0.000  0.004  0.006
   32  0.001  0.001  0.005  0.007
   33  0.000  0.000  0.002  0.003
   34  0.001  0.001  0.005  0.007
   35  0.000  0.000  0.008  0.009
   36  0.000  0.000  0.001  0.001
   37  0.000  0.000  0.000  0.000
tot    0.125  0.016  0.662  0.804
 
band     9 # energy   -5.49913298 # occ.  2.00000000
 
ion      s      p      d    tot
    1  0.000  0.000  0.001  0.001
    2  0.001  0.000  0.004  0.005
    3  0.000  0.000  0.002  0.002
    4  0.001  0.000  0.004  0.005
    5  0.000  0.000  0.006  0.006
    6  0.001  0.000  0.004  0.006
    7  0.000  0.000  0.002  0.002
    8  0.001  0.000  0.004  0.006
    9  0.000  0.000  0.007  0.007
   10  0.000  0.001  0.029  0.030
   11  0.012  0.001  0.020  0.033
   12  0.000  0.000  0.027  0.028
   13  0.012  0.001  0.022  0.035
   14  0.000  0.000  0.071  0.071
   15  0.015  0.001  0.025  0.040
   16  0.000  0.000  0.027  0.028
   17  0.014  0.001  0.025  0.040
   18  0.000  0.001  0.024  0.025
   19  0.009  0.001  0.025  0.035
   20  0.000  0.001  0.020  0.021
   21  0.002  0.000  0.033  0.036
   22  0.019  0.001  0.027  0.046
   23  0.002  0.000  0.033  0.036
   24  0.000  0.001  0.047  0.048
   25  0.000  0.000  0.084  0.084
   26  0.008  0.001  0.027  0.036
   27  0.020  0.001  0.026  0.046
   28  0.000  0.000  0.005  0.005
   29  0.001  0.000  0.003  0.004
   30  0.002  0.001  0.005  0.007
   31  0.001  0.000  0.003  0.004
   32  0.000  0.000  0.003  0.003
   33  0.002  0.001  0.005  0.007
   34  0.000  0.000  0.003  0.003
   35  0.000  0.000  0.008  0.009
   36  0.000  0.000  0.001  0.001
   37  0.000  0.000  0.000  0.000
tot    0.125  0.016  0.662  0.804
 
band    10 # energy   -5.49338596 # occ.  2.00000000
 
ion      s      p      d    tot
    1  0.000  0.000  0.000  0.000
    2  0.000  0.000  0.005  0.005
    3  0.000  0.000  0.005  0.006
    4  0.000  0.000  0.005  0.005
    5  0.005  0.001  0.002  0.008
    6  0.000  0.000  0.005  0.006
    7  0.000  0.000  0.005  0.006
    8  0.000  0.000  0.005  0.006
    9  0.002  0.000  0.003  0.006
   10  0.006  0.001  0.008  0.015
   11  0.010  0.000  0.028  0.039
   12  0.006  0.001  0.008  0.015
   13  0.010  0.000  0.028  0.039
   14  0.011  0.000  0.028  0.039
   15  0.001  0.000  0.042  0.043
   16  0.006  0.001  0.008  0.015
   17  0.001  0.000  0.042  0.043
   18  0.001  0.000  0.042  0.043
   19  0.015  0.001  0.035  0.051
   20  0.006  0.001  0.009  0.016
   21  0.006  0.001  0.009  0.016
   22  0.001  0.000  0.068  0.069
   23  0.006  0.001  0.009  0.016
   24  0.001  0.000  0.068  0.069
   25  0.016  0.001  0.035  0.051
   26  0.015  0.001  0.035  0.051
   27  0.001  0.000  0.068  0.069
   28  0.005  0.001  0.006  0.012
   29  0.000  0.000  0.005  0.005
   30  0.000  0.000  0.005  0.005
   31  0.000  0.000  0.005  0.005
   32  0.000  0.000  0.005  0.005
   33  0.000  0.000  0.005  0.005
   34  0.000  0.000  0.005  0.005
   35  0.002  0.000  0.006  0.008
   36  0.001  0.000  0.000  0.001
   37  0.000  0.000  0.000  0.000
tot    0.136  0.017  0.646  0.799
 
band    11 # energy   -5.48407897 # occ.  2.00000000
 
ion      s      p      d    tot
    1  0.010  0.000  0.001  0.012
    2  0.005  0.000  0.013  0.018
    3  0.005  0.000  0.013  0.018
    4  0.005  0.000  0.013  0.018
    5  0.005  0.000  0.017  0.021
    6  0.005  0.000  0.013  0.018
    7  0.005  0.000  0.013  0.018
    8  0.005  0.000  0.013  0.018
    9  0.001  0.000  0.023  0.024
   10  0.001  0.000  0.051  0.052
   11  0.000  0.001  0.019  0.019
   12  0.001  0.000  0.051  0.051
   13  0.000  0.001  0.019  0.019
   14  0.000  0.001  0.019  0.019
   15  0.014  0.001  0.019  0.034
   16  0.001  0.000  0.051  0.051
   17  0.014  0.001  0.019  0.034
   18  0.014  0.001  0.019  0.034
   19  0.000  0.000  0.006  0.007
   20  0.001  0.000  0.031  0.032
   21  0.001  0.000  0.031  0.031
   22  0.007  0.001  0.009  0.017
   23  0.001  0.000  0.031  0.031
   24  0.007  0.001  0.009  0.017
   25  0.000  0.000  0.006  0.007
   26  0.000  0.000  0.006  0.007
   27  0.007  0.001  0.009  0.017
   28  0.002  0.000  0.008  0.009
   29  0.004  0.000  0.012  0.016
   30  0.004  0.000  0.012  0.016
   31  0.004  0.000  0.012  0.016
   32  0.004  0.000  0.012  0.016
   33  0.004  0.000  0.012  0.016
   34  0.004  0.000  0.012  0.016
   35  0.002  0.000  0.014  0.016
   36  0.011  0.001  0.018  0.030
   37  0.000  0.001  0.000  0.001
tot    0.149  0.013  0.636  0.798
 
band    12 # energy   -5.46470336 # occ.  2.00000000
 
ion      s      p      d    tot
    1  0.001  0.001  0.013  0.015
    2  0.001  0.000  0.009  0.010
    3  0.001  0.000  0.009  0.009
    4  0.001  0.000  0.009  0.010
    5  0.000  0.000  0.004  0.004
    6  0.001  0.000  0.009  0.009
    7  0.001  0.000  0.009  0.009
    8  0.001  0.000  0.009  0.009
    9  0.007  0.000  0.003  0.011
   10  0.009  0.000  0.026  0.035
   11  0.000  0.000  0.069  0.070
   12  0.008  0.000  0.026  0.035
   13  0.000  0.000  0.069  0.070
   14  0.000  0.000  0.069  0.069
   15  0.002  0.000  0.023  0.025
   16  0.008  0.000  0.026  0.035
   17  0.002  0.000  0.023  0.025
   18  0.002  0.000  0.023  0.025
   19  0.001  0.000  0.007  0.009
   20  0.002  0.000  0.033  0.034
   21  0.002  0.000  0.033  0.034
   22  0.000  0.000  0.044  0.044
   23  0.002  0.000  0.033  0.034
   24  0.000  0.000  0.044  0.044
   25  0.001  0.000  0.007  0.009
   26  0.001  0.000  0.007  0.009
   27  0.000  0.000  0.044  0.044
   28  0.006  0.001  0.000  0.006
   29  0.001  0.000  0.012  0.013
   30  0.001  0.000  0.012  0.013
   31  0.001  0.000  0.012  0.013
   32  0.001  0.000  0.012  0.012
   33  0.001  0.000  0.012  0.013
   34  0.001  0.000  0.012  0.012
   35  0.003  0.000  0.013  0.015
   36  0.003  0.001  0.000  0.004
   37  0.000  0.000  0.000  0.000
tot    0.069  0.008  0.761  0.838
 
band    13 # energy   -5.45970439 # occ.  2.00000000
 
ion      s      p      d    tot
    1  0.000  0.001  0.013  0.014
    2  0.001  0.000  0.006  0.007
    3  0.001  0.001  0.010  0.011
    4  0.001  0.000  0.006  0.007
    5  0.000  0.000  0.007  0.007
    6  0.003  0.001  0.005  0.008
    7  0.001  0.001  0.010  0.011
    8  0.003  0.001  0.005  0.008
    9  0.000  0.000  0.005  0.005
   10  0.000  0.000  0.094  0.094
   11  0.002  0.000  0.038  0.040
   12  0.016  0.000  0.038  0.055
   13  0.002  0.000  0.039  0.041
   14  0.000  0.001  0.005  0.006
   15  0.007  0.000  0.035  0.042
   16  0.016  0.000  0.039  0.055
   17  0.007  0.000  0.034  0.042
   18  0.000  0.000  0.108  0.108
   19  0.000  0.000  0.028  0.028
   20  0.000  0.000  0.037  0.037
   21  0.001  0.000  0.015  0.016
   22  0.001  0.000  0.021  0.022
   23  0.001  0.000  0.015  0.016
   24  0.000  0.000  0.009  0.009
   25  0.000  0.000  0.030  0.030
   26  0.000  0.000  0.028  0.028
   27  0.001  0.000  0.021  0.022
   28  0.000  0.000  0.014  0.014
   29  0.002  0.000  0.005  0.007
   30  0.002  0.000  0.005  0.007
   31  0.002  0.000  0.005  0.007
   32  0.000  0.000  0.005  0.005
   33  0.002  0.000  0.005  0.007
   34  0.000  0.000  0.005  0.005
   35  0.000  0.000  0.003  0.003
   36  0.000  0.000  0.007  0.007
   37  0.000  0.000  0.000  0.000
tot    0.070  0.009  0.756  0.835
 
band    14 # energy   -5.45969092 # occ.  2.00000000
 
ion      s      p      d    tot
    1  0.000  0.001  0.013  0.014
    2  0.002  0.001  0.008  0.011
    3  0.002  0.000  0.004  0.007
    4  0.002  0.001  0.008  0.011
    5  0.000  0.000  0.006  0.007
    6  0.000  0.000  0.009  0.010
    7  0.002  0.000  0.004  0.007
    8  0.000  0.000  0.009  0.010
    9  0.000  0.000  0.005  0.005
   10  0.021  0.000  0.020  0.042
   11  0.001  0.001  0.016  0.018
   12  0.005  0.000  0.076  0.081
   13  0.001  0.001  0.016  0.017
   14  0.003  0.000  0.050  0.053
   15  0.002  0.000  0.083  0.086
   16  0.005  0.000  0.075  0.081
   17  0.002  0.000  0.084  0.087
   18  0.009  0.000  0.010  0.020
   19  0.000  0.000  0.030  0.030
   20  0.001  0.001  0.008  0.009
   21  0.000  0.000  0.030  0.030
   22  0.000  0.000  0.013  0.014
   23  0.000  0.000  0.029  0.030
   24  0.001  0.000  0.025  0.027
   25  0.000  0.000  0.027  0.027
   26  0.000  0.000  0.030  0.030
   27  0.000  0.000  0.013  0.014
   28  0.000  0.000  0.014  0.014
   29  0.001  0.000  0.005  0.006
   30  0.000  0.000  0.005  0.005
   31  0.001  0.000  0.005  0.006
   32  0.003  0.000  0.005  0.008
   33  0.000  0.000  0.005  0.005
   34  0.003  0.000  0.005  0.008
   35  0.000  0.000  0.003  0.003
   36  0.000  0.000  0.007  0.007
   37  0.000  0.000  0.000  0.000
tot    0.070  0.009  0.756  0.835
 
band    15 # energy   -5.45446983 # occ.  2.00000000
 
ion      s      p      d    tot
    1  0.000  0.000  0.005  0.005
    2  0.002  0.000  0.007  0.008
    3  0.000  0.000  0.009  0.010
    4  0.002  0.000  0.006  0.008
    5  0.000  0.000  0.008  0.008
    6  0.002  0.001  0.005  0.008
    7  0.000  0.000  0.009  0.009
    8  0.002  0.001  0.005  0.008
    9  0.000  0.000  0.015  0.015
   10  0.001  0.000  0.031  0.032
   11  0.002  0.000  0.069  0.072
   12  0.000  0.000  0.027  0.028
   13  0.003  0.000  0.066  0.069
   14  0.011  0.000  0.005  0.016
   15  0.001  0.000  0.033  0.034
   16  0.000  0.000  0.027  0.028
   17  0.001  0.000  0.033  0.035
   18  0.004  0.000  0.039  0.044
   19  0.001  0.000  0.050  0.052
   20  0.000  0.000  0.044  0.044
   21  0.000  0.000  0.024  0.024
   22  0.001  0.000  0.046  0.048
   23  0.000  0.000  0.022  0.023
   24  0.005  0.000  0.027  0.032
   25  0.006  0.000  0.007  0.013
   26  0.002  0.000  0.048  0.050
   27  0.001  0.000  0.048  0.049
   28  0.000  0.000  0.004  0.004
   29  0.001  0.000  0.008  0.009
   30  0.002  0.000  0.004  0.006
   31  0.001  0.000  0.008  0.009
   32  0.000  0.000  0.008  0.009
   33  0.002  0.000  0.004  0.006
   34  0.000  0.000  0.008  0.009
   35  0.000  0.000  0.014  0.014
   36  0.000  0.000  0.006  0.006
   37  0.000  0.000  0.000  0.000
tot    0.056  0.007  0.781  0.845
 
band    16 # energy   -5.45445184 # occ.  2.00000000
 
ion      s      p      d    tot
    1  0.000  0.000  0.005  0.005
    2  0.001  0.000  0.007  0.009
    3  0.003  0.000  0.005  0.008
    4  0.001  0.000  0.008  0.009
    5  0.000  0.000  0.008  0.008
    6  0.000  0.000  0.009  0.009
    7  0.003  0.000  0.005  0.008
    8  0.000  0.000  0.009  0.009
    9  0.000  0.000  0.015  0.015
   10  0.000  0.000  0.026  0.026
   11  0.008  0.000  0.024  0.033
   12  0.001  0.000  0.030  0.031
   13  0.008  0.000  0.028  0.036
   14  0.000  0.000  0.088  0.088
   15  0.003  0.000  0.037  0.041
   16  0.001  0.000  0.030  0.031
   17  0.003  0.000  0.037  0.040
   18  0.000  0.000  0.031  0.032
   19  0.004  0.000  0.020  0.025
   20  0.000  0.000  0.016  0.016
   21  0.000  0.000  0.037  0.037
   22  0.004  0.000  0.034  0.038
   23  0.000  0.000  0.038  0.038
   24  0.000  0.000  0.054  0.054
   25  0.000  0.000  0.063  0.063
   26  0.004  0.000  0.022  0.027
   27  0.004  0.000  0.033  0.037
   28  0.000  0.000  0.004  0.004
   29  0.001  0.000  0.005  0.007
   30  0.000  0.000  0.009  0.010
   31  0.002  0.000  0.005  0.007
   32  0.002  0.000  0.005  0.007
   33  0.000  0.000  0.009  0.010
   34  0.002  0.000  0.005  0.007
   35  0.000  0.000  0.014  0.014
   36  0.000  0.000  0.006  0.006
   37  0.000  0.000  0.000  0.000
tot    0.056  0.007  0.781  0.845
 
band    17 # energy   -5.44993964 # occ.  2.00000000
 
ion      s      p      d    tot
    1  0.007  0.000  0.011  0.018
    2  0.001  0.000  0.010  0.011
    3  0.001  0.000  0.010  0.011
    4  0.001  0.000  0.010  0.011
    5  0.001  0.001  0.007  0.008
    6  0.001  0.000  0.010  0.011
    7  0.001  0.000  0.010  0.011
    8  0.001  0.000  0.010  0.011
    9  0.001  0.000  0.002  0.003
   10  0.000  0.000  0.050  0.051
   11  0.007  0.000  0.009  0.016
   12  0.000  0.000  0.051  0.051
   13  0.007  0.000  0.009  0.016
   14  0.007  0.000  0.009  0.016
   15  0.001  0.000  0.045  0.047
   16  0.000  0.000  0.051  0.051
   17  0.001  0.000  0.045  0.047
   18  0.001  0.000  0.045  0.047
   19  0.000  0.000  0.054  0.055
   20  0.001  0.001  0.013  0.014
   21  0.001  0.001  0.013  0.014
   22  0.002  0.000  0.024  0.026
   23  0.001  0.001  0.013  0.014
   24  0.002  0.000  0.024  0.026
   25  0.000  0.000  0.055  0.055
   26  0.000  0.000  0.054  0.055
   27  0.002  0.000  0.024  0.026
   28  0.006  0.000  0.018  0.024
   29  0.002  0.000  0.011  0.013
   30  0.002  0.000  0.011  0.013
   31  0.002  0.000  0.011  0.013
   32  0.002  0.000  0.011  0.013
   33  0.002  0.000  0.011  0.013
   34  0.002  0.000  0.011  0.013
   35  0.000  0.000  0.003  0.004
   36  0.004  0.001  0.001  0.006
   37  0.001  0.000  0.000  0.001
tot    0.071  0.008  0.758  0.837
 
band    18 # energy   -5.33089019 # occ.  2.00000000
 
ion      s      p      d    tot
    1  0.000  0.000  0.003  0.003
    2  0.001  0.001  0.007  0.008
    3  0.000  0.000  0.006  0.006
    4  0.001  0.000  0.007  0.008
    5  0.000  0.000  0.011  0.011
    6  0.002  0.001  0.004  0.007
    7  0.000  0.000  0.006  0.006
    8  0.002  0.001  0.004  0.007
    9  0.000  0.001  0.010  0.010
   10  0.000  0.001  0.023  0.024
   11  0.000  0.000  0.049  0.050
   12  0.000  0.000  0.006  0.006
   13  0.000  0.000  0.049  0.050
   14  0.002  0.000  0.038  0.040
   15  0.000  0.000  0.030  0.031
   16  0.000  0.000  0.006  0.007
   17  0.000  0.000  0.030  0.031
   18  0.002  0.000  0.030  0.032
   19  0.000  0.000  0.008  0.008
   20  0.001  0.000  0.072  0.073
   21  0.000  0.000  0.080  0.081
   22  0.000  0.000  0.053  0.054
   23  0.000  0.000  0.080  0.080
   24  0.000  0.000  0.025  0.025
   25  0.000  0.001  0.026  0.027
   26  0.000  0.000  0.008  0.008
   27  0.000  0.000  0.053  0.053
   28  0.000  0.000  0.001  0.001
   29  0.000  0.000  0.009  0.009
   30  0.001  0.001  0.010  0.011
   31  0.000  0.000  0.009  0.009
   32  0.001  0.001  0.008  0.010
   33  0.001  0.001  0.010  0.011
   34  0.001  0.001  0.008  0.010
   35  0.000  0.000  0.002  0.002
   36  0.000  0.001  0.060  0.061
   37  0.000  0.004  0.000  0.004
tot    0.018  0.015  0.841  0.874
 
band    19 # energy   -5.33088257 # occ.  2.00000000
 
ion      s      p      d    tot
    1  0.000  0.000  0.003  0.003
    2  0.001  0.000  0.004  0.006
    3  0.002  0.001  0.005  0.008
    4  0.001  0.000  0.004  0.006
    5  0.000  0.000  0.011  0.011
    6  0.000  0.000  0.007  0.008
    7  0.002  0.001  0.005  0.008
    8  0.000  0.000  0.007  0.007
    9  0.000  0.001  0.010  0.010
   10  0.000  0.000  0.001  0.001
   11  0.001  0.000  0.042  0.043
   12  0.000  0.001  0.017  0.018
   13  0.001  0.000  0.042  0.043
   14  0.000  0.000  0.053  0.053
   15  0.001  0.000  0.030  0.032
   16  0.000  0.001  0.017  0.018
   17  0.001  0.000  0.030  0.032
   18  0.000  0.000  0.031  0.031
   19  0.000  0.001  0.020  0.020
   20  0.000  0.000  0.083  0.083
   21  0.001  0.000  0.074  0.075
   22  0.000  0.000  0.034  0.035
   23  0.001  0.000  0.075  0.075
   24  0.000  0.000  0.063  0.063
   25  0.000  0.000  0.002  0.002
   26  0.000  0.001  0.020  0.021
   27  0.000  0.000  0.034  0.035
   28  0.000  0.000  0.001  0.001
   29  0.001  0.001  0.009  0.011
   30  0.000  0.000  0.008  0.009
   31  0.001  0.001  0.009  0.011
   32  0.000  0.000  0.009  0.010
   33  0.000  0.000  0.008  0.009
   34  0.000  0.000  0.009  0.010
   35  0.000  0.000  0.002  0.002
   36  0.000  0.001  0.060  0.061
   37  0.000  0.004  0.000  0.004
tot    0.018  0.015  0.841  0.874
 
band    20 # energy   -5.30120718 # occ.  2.00000000
 
ion      s      p      d    tot
    1  0.002  0.001  0.000  0.003
    2  0.000  0.000  0.007  0.007
    3  0.000  0.000  0.007  0.007
    4  0.000  0.000  0.007  0.007
    5  0.000  0.000  0.006  0.006
    6  0.000  0.000  0.007  0.007
    7  0.000  0.000  0.007  0.007
    8  0.000  0.000  0.007  0.007
    9  0.001  0.001  0.009  0.012
   10  0.000  0.000  0.015  0.015
   11  0.001  0.000  0.046  0.048
   12  0.000  0.000  0.015  0.015
   13  0.001  0.000  0.046  0.048
   14  0.001  0.000  0.046  0.048
   15  0.000  0.001  0.051  0.052
   16  0.000  0.000  0.015  0.015
   17  0.000  0.001  0.051  0.052
   18  0.000  0.001  0.051  0.052
   19  0.000  0.000  0.015  0.016
   20  0.001  0.001  0.061  0.063
   21  0.001  0.001  0.061  0.063
   22  0.002  0.000  0.038  0.040
   23  0.001  0.001  0.061  0.063
   24  0.002  0.000  0.038  0.040
   25  0.000  0.000  0.015  0.016
   26  0.000  0.000  0.015  0.016
   27  0.002  0.000  0.038  0.040
   28  0.002  0.001  0.001  0.004
   29  0.000  0.000  0.012  0.013
   30  0.000  0.000  0.012  0.013
   31  0.000  0.000  0.012  0.013
   32  0.000  0.000  0.012  0.013
   33  0.000  0.000  0.012  0.013
   34  0.000  0.000  0.012  0.013
   35  0.002  0.000  0.008  0.010
   36  0.001  0.003  0.004  0.008
   37  0.002  0.001  0.000  0.003
tot    0.026  0.017  0.821  0.864
 
band    21 # energy   -5.28789855 # occ.  2.00000000
 
ion      s      p      d    tot
    1  0.000  0.000  0.007  0.008
    2  0.000  0.000  0.010  0.011
    3  0.000  0.000  0.010  0.011
    4  0.000  0.000  0.010  0.011
    5  0.004  0.001  0.001  0.006
    6  0.000  0.000  0.010  0.011
    7  0.000  0.000  0.010  0.011
    8  0.000  0.000  0.010  0.011
    9  0.002  0.000  0.002  0.004
   10  0.002  0.001  0.049  0.051
   11  0.000  0.000  0.033  0.034
   12  0.002  0.001  0.049  0.051
   13  0.000  0.000  0.033  0.034
   14  0.000  0.000  0.033  0.033
   15  0.002  0.000  0.021  0.023
   16  0.002  0.001  0.049  0.051
   17  0.002  0.000  0.021  0.023
   18  0.002  0.000  0.021  0.023
   19  0.001  0.000  0.055  0.057
   20  0.001  0.000  0.017  0.018
   21  0.001  0.000  0.017  0.018
   22  0.000  0.001  0.044  0.044
   23  0.001  0.000  0.017  0.018
   24  0.000  0.001  0.043  0.044
   25  0.001  0.000  0.055  0.057
   26  0.001  0.000  0.055  0.057
   27  0.000  0.001  0.044  0.044
   28  0.000  0.000  0.013  0.013
   29  0.000  0.000  0.010  0.011
   30  0.000  0.000  0.010  0.011
   31  0.000  0.000  0.010  0.011
   32  0.000  0.000  0.010  0.011
   33  0.000  0.000  0.010  0.011
   34  0.000  0.000  0.010  0.011
   35  0.005  0.001  0.003  0.009
   36  0.003  0.000  0.001  0.004