PROCAR new format
# of k-points:   10         # of bands:  252         # of ions:   37

 k-point     1 :    0.00000000 0.00000000 0.00000000     weight = 0.01562500

band     1 # energy   -8.09026818 # occ.  2.00000000
 
ion      s      p      d    tot
    1  0.007  0.001  0.000  0.007
    2  0.006  0.001  0.000  0.007
    3  0.006  0.001  0.000  0.007
    4  0.006  0.001  0.000  0.007
    5  0.006  0.001  0.000  0.007
    6  0.006  0.001  0.000  0.007
    7  0.006  0.001  0.000  0.007
    8  0.006  0.001  0.000  0.007
    9  0.006  0.001  0.000  0.007
   10  0.027  0.000  0.000  0.027
   11  0.026  0.000  0.000  0.026
   12  0.027  0.000  0.000  0.027
   13  0.026  0.000  0.000  0.026
   14  0.026  0.000  0.000  0.026
   15  0.026  0.000  0.000  0.026
   16  0.027  0.000  0.000  0.027
   17  0.026  0.000  0.000  0.026
   18  0.026  0.000  0.000  0.026
   19  0.024  0.000  0.000  0.025
   20  0.026  0.000  0.000  0.026
   21  0.026  0.000  0.000  0.026
   22  0.024  0.000  0.000  0.024
   23  0.026  0.000  0.000  0.026
   24  0.024  0.000  0.000  0.024
   25  0.024  0.000  0.000  0.025
   26  0.024  0.000  0.000  0.025
   27  0.024  0.000  0.000  0.024
   28  0.005  0.000  0.000  0.005
   29  0.005  0.000  0.000  0.006
   30  0.005  0.000  0.000  0.006
   31  0.005  0.000  0.000  0.006
   32  0.005  0.000  0.000  0.006
   33  0.005  0.000  0.000  0.006
   34  0.005  0.000  0.000  0.006
   35  0.005  0.000  0.000  0.005
   36  0.010  0.000  0.001  0.011
   37  0.001  0.000  0.000  0.001
tot    0.567  0.011  0.004  0.582
 
band     2 # energy   -6.93782834 # occ.  2.00000000
 
ion      s      p      d    tot
    1  0.016  0.000  0.001  0.018
    2  0.016  0.000  0.001  0.017
    3  0.016  0.000  0.001  0.017
    4  0.016  0.000  0.001  0.017
    5  0.016  0.000  0.001  0.017
    6  0.016  0.000  0.001  0.017
    7  0.016  0.000  0.001  0.017
    8  0.016  0.000  0.001  0.017
    9  0.016  0.000  0.001  0.018
   10  0.011  0.001  0.003  0.015
   11  0.011  0.001  0.002  0.014
   12  0.011  0.001  0.003  0.015
   13  0.011  0.001  0.002  0.014
   14  0.011  0.001  0.002  0.014
   15  0.012  0.001  0.002  0.015
   16  0.011  0.001  0.003  0.015
   17  0.012  0.001  0.002  0.015
   18  0.012  0.001  0.002  0.015
   19  0.012  0.001  0.003  0.016
   20  0.015  0.001  0.003  0.019
   21  0.015  0.001  0.003  0.019
   22  0.012  0.001  0.003  0.016
   23  0.015  0.001  0.003  0.019
   24  0.012  0.001  0.003  0.016
   25  0.012  0.001  0.003  0.016
   26  0.012  0.001  0.003  0.016
   27  0.012  0.001  0.003  0.016
   28  0.014  0.000  0.001  0.015
   29  0.015  0.000  0.001  0.016
   30  0.015  0.000  0.001  0.016
   31  0.015  0.000  0.001  0.016
   32  0.015  0.000  0.001  0.016
   33  0.015  0.000  0.001  0.016
   34  0.015  0.000  0.001  0.016
   35  0.014  0.000  0.001  0.015
   36  0.029  0.000  0.001  0.030
   37  0.003  0.000  0.000  0.003
tot    0.505  0.031  0.064  0.600
 
band     3 # energy   -5.99473255 # occ.  2.00000000
 
ion      s      p      d    tot
    1  0.016  0.001  0.000  0.016
    2  0.003  0.000  0.005  0.008
    3  0.003  0.000  0.005  0.008
    4  0.003  0.000  0.005  0.008
    5  0.006  0.000  0.003  0.008
    6  0.003  0.000  0.005  0.008
    7  0.003  0.000  0.005  0.008
    8  0.003  0.000  0.005  0.008
    9  0.002  0.001  0.005  0.009
   10  0.004  0.000  0.025  0.028
   11  0.002  0.002  0.011  0.014
   12  0.004  0.000  0.025  0.028
   13  0.002  0.002  0.011  0.014
   14  0.002  0.002  0.011  0.014
   15  0.028  0.002  0.003  0.033
   16  0.004  0.000  0.025  0.028
   17  0.028  0.002  0.003  0.033
   18  0.028  0.002  0.003  0.033
   19  0.002  0.001  0.021  0.023
   20  0.017  0.001  0.025  0.043
   21  0.017  0.001  0.025  0.043
   22  0.023  0.003  0.001  0.027
   23  0.017  0.001  0.025  0.043
   24  0.023  0.003  0.001  0.027
   25  0.002  0.001  0.021  0.023
   26  0.002  0.001  0.021  0.023
   27  0.023  0.003  0.001  0.027
   28  0.000  0.000  0.002  0.002
   29  0.000  0.001  0.005  0.006
   30  0.000  0.001  0.005  0.006
   31  0.000  0.001  0.005  0.006
   32  0.000  0.001  0.005  0.006
   33  0.000  0.001  0.005  0.006
   34  0.000  0.001  0.005  0.006
   35  0.004  0.001  0.001  0.006
   36  0.049  0.000  0.019  0.069
   37  0.012  0.000  0.000  0.012
tot    0.329  0.036  0.347  0.711
 
band     4 # energy   -5.95149429 # occ.  2.00000000
 
ion      s      p      d    tot
    1  0.014  0.000  0.023  0.037
    2  0.020  0.000  0.019  0.039
    3  0.020  0.000  0.019  0.039
    4  0.020  0.000  0.019  0.039
    5  0.016  0.000  0.018  0.034
    6  0.020  0.000  0.019  0.039
    7  0.020  0.000  0.019  0.039
    8  0.020  0.000  0.019  0.039
    9  0.032  0.000  0.016  0.048
   10  0.012  0.001  0.020  0.033
   11  0.012  0.001  0.019  0.032
   12  0.012  0.001  0.020  0.033
   13  0.012  0.001  0.019  0.032
   14  0.012  0.001  0.019  0.032
   15  0.001  0.001  0.023  0.025
   16  0.012  0.001  0.020  0.033
   17  0.001  0.001  0.023  0.025
   18  0.001  0.001  0.023  0.025
   19  0.000  0.001  0.003  0.003
   20  0.003  0.001  0.003  0.006
   21  0.003  0.001  0.003  0.006
   22  0.001  0.001  0.000  0.003
   23  0.003  0.001  0.003  0.006
   24  0.001  0.001  0.000  0.003
   25  0.000  0.001  0.003  0.003
   26  0.000  0.001  0.003  0.003
   27  0.001  0.001  0.000  0.003
   28  0.005  0.000  0.001  0.006
   29  0.004  0.000  0.002  0.006
   30  0.004  0.000  0.002  0.006
   31  0.004  0.000  0.002  0.006
   32  0.004  0.000  0.002  0.006
   33  0.004  0.000  0.002  0.006
   34  0.004  0.000  0.002  0.006
   35  0.007  0.000  0.001  0.008
   36  0.000  0.000  0.002  0.003
   37  0.000  0.000  0.000  0.000
tot    0.303  0.016  0.387  0.707
 
band     5 # energy   -5.92125913 # occ.  2.00000000
 
ion      s      p      d    tot
    1  0.000  0.001  0.011  0.012
    2  0.006  0.001  0.003  0.010
    3  0.000  0.000  0.003  0.003
    4  0.006  0.001  0.003  0.010
    5  0.000  0.001  0.004  0.005
    6  0.005  0.001  0.004  0.010
    7  0.000  0.000  0.003  0.003
    8  0.005  0.001  0.004  0.010
    9  0.000  0.000  0.003  0.003
   10  0.056  0.002  0.004  0.062
   11  0.009  0.004  0.012  0.024
   12  0.014  0.001  0.033  0.048
   13  0.009  0.004  0.012  0.024
   14  0.036  0.000  0.015  0.051
   15  0.000  0.002  0.014  0.016
   16  0.014  0.001  0.033  0.048
   17  0.000  0.002  0.014  0.016
   18  0.002  0.001  0.010  0.013
   19  0.006  0.003  0.010  0.020
   20  0.054  0.002  0.005  0.062
   21  0.014  0.001  0.029  0.044
   22  0.001  0.001  0.014  0.016
   23  0.013  0.001  0.029  0.044
   24  0.004  0.001  0.008  0.013
   25  0.026  0.000  0.014  0.040
   26  0.007  0.003  0.010  0.020
   27  0.001  0.001  0.014  0.016
   28  0.000  0.001  0.002  0.003
   29  0.004  0.001  0.002  0.008
   30  0.003  0.001  0.003  0.007
   31  0.004  0.001  0.002  0.008
   32  0.000  0.000  0.002  0.002
   33  0.003  0.001  0.003  0.007
   34  0.000  0.000  0.002  0.002
   35  0.000  0.000  0.002  0.002
   36  0.000  0.001  0.008  0.010
   37  0.000  0.000  0.000  0.000
tot    0.305  0.043  0.346  0.694
 
band     6 # energy   -5.92122757 # occ.  2.00000000
 
ion      s      p      d    tot
    1  0.000  0.001  0.011  0.012
    2  0.002  0.001  0.004  0.006
    3  0.008  0.001  0.004  0.012
    4  0.002  0.001  0.004  0.006
    5  0.000  0.001  0.004  0.005
    6  0.002  0.001  0.003  0.006
    7  0.008  0.001  0.004  0.012
    8  0.002  0.001  0.003  0.006
    9  0.000  0.000  0.003  0.003
   10  0.000  0.000  0.043  0.043
   11  0.027  0.001  0.014  0.042
   12  0.042  0.002  0.014  0.058
   13  0.027  0.001  0.014  0.042
   14  0.000  0.005  0.011  0.016
   15  0.001  0.001  0.011  0.014
   16  0.042  0.002  0.014  0.058
   17  0.001  0.001  0.011  0.014
   18  0.000  0.002  0.015  0.017
   19  0.020  0.001  0.012  0.033
   20  0.000  0.001  0.037  0.038
   21  0.041  0.002  0.013  0.056
   22  0.003  0.001  0.010  0.014
   23  0.041  0.002  0.013  0.056
   24  0.000  0.001  0.016  0.017
   25  0.000  0.004  0.009  0.013
   26  0.020  0.001  0.012  0.033
   27  0.003  0.001  0.010  0.014
   28  0.000  0.001  0.002  0.003
   29  0.001  0.000  0.002  0.003
   30  0.002  0.000  0.002  0.005
   31  0.001  0.000  0.002  0.003
   32  0.005  0.001  0.003  0.009
   33  0.002  0.000  0.002  0.005
   34  0.005  0.001  0.003  0.009
   35  0.000  0.000  0.002  0.002
   36  0.000  0.001  0.008  0.010
   37  0.000  0.000  0.000  0.000
tot    0.305  0.043  0.346  0.694
 
band     7 # energy   -5.90057574 # occ.  2.00000000
 
ion      s      p      d    tot
    1  0.000  0.000  0.001  0.002
    2  0.006  0.001  0.003  0.010
    3  0.000  0.000  0.003  0.004
    4  0.006  0.001  0.003  0.011
    5  0.000  0.000  0.007  0.007
    6  0.006  0.001  0.004  0.011
    7  0.000  0.000  0.003  0.004
    8  0.006  0.001  0.004  0.011
    9  0.000  0.001  0.009  0.011
   10  0.000  0.004  0.002  0.007
   11  0.019  0.001  0.012  0.033
   12  0.006  0.001  0.013  0.020
   13  0.018  0.001  0.013  0.033
   14  0.000  0.000  0.037  0.037
   15  0.047  0.001  0.015  0.063
   16  0.006  0.001  0.013  0.020
   17  0.045  0.001  0.015  0.062
   18  0.000  0.002  0.032  0.034
   19  0.021  0.001  0.011  0.033
   20  0.000  0.004  0.004  0.007
   21  0.002  0.001  0.011  0.015
   22  0.036  0.002  0.014  0.052
   23  0.003  0.001  0.012  0.015
   24  0.000  0.003  0.026  0.029
   25  0.000  0.000  0.033  0.033
   26  0.020  0.001  0.012  0.033
   27  0.038  0.002  0.013  0.053
   28  0.000  0.000  0.005  0.005
   29  0.004  0.001  0.002  0.007
   30  0.004  0.001  0.003  0.007
   31  0.004  0.001  0.002  0.007
   32  0.000  0.000  0.002  0.002
   33  0.004  0.001  0.003  0.007
   34  0.000  0.000  0.002  0.002
   35  0.000  0.001  0.006  0.007
   36  0.000  0.000  0.000  0.001
   37  0.000  0.000  0.000  0.000
tot    0.301  0.042  0.350  0.693
 
band     8 # energy   -5.90056332 # occ.  2.00000000
 
ion      s      p      d    tot
    1  0.000  0.000  0.001  0.002
    2  0.002  0.001  0.004  0.006
    3  0.008  0.001  0.004  0.013
    4  0.002  0.001  0.004  0.006
    5  0.000  0.000  0.007  0.007
    6  0.002  0.001  0.003  0.005
    7  0.008  0.001  0.004  0.013
    8  0.002  0.001  0.003  0.006
    9  0.000  0.001  0.009  0.011
   10  0.009  0.000  0.017  0.026
   11  0.007  0.001  0.029  0.037
   12  0.002  0.003  0.006  0.011
   13  0.008  0.001  0.028  0.037
   14  0.024  0.002  0.004  0.029
   15  0.014  0.002  0.026  0.043
   16  0.001  0.003  0.005  0.010
   17  0.016  0.002  0.026  0.044
   18  0.061  0.001  0.010  0.072
   19  0.007  0.000  0.026  0.034
   20  0.004  0.000  0.015  0.019
   21  0.001  0.003  0.006  0.009
   22  0.014  0.002  0.022  0.038
   23  0.001  0.003  0.006  0.009
   24  0.048  0.001  0.010  0.059
   25  0.025  0.002  0.004  0.030
   26  0.008  0.001  0.025  0.034
   27  0.012  0.002  0.022  0.037
   28  0.000  0.000  0.005  0.005
   29  0.001  0.000  0.003  0.004
   30  0.002  0.000  0.002  0.004
   31  0.001  0.000  0.003  0.004
   32  0.005  0.001  0.003  0.009
   33  0.002  0.000  0.002  0.004
   34  0.005  0.001  0.003  0.009
   35  0.000  0.001  0.006  0.007
   36  0.000  0.000  0.000  0.001
   37  0.000  0.000  0.000  0.000
tot    0.301  0.042  0.350  0.694
 
band     9 # energy   -5.89944527 # occ.  2.00000000
 
ion      s      p      d    tot
    1  0.009  0.001  0.000  0.011
    2  0.000  0.001  0.006  0.006
    3  0.000  0.001  0.006  0.006
    4  0.000  0.001  0.006  0.006
    5  0.014  0.002  0.002  0.018
    6  0.000  0.001  0.006  0.007
    7  0.000  0.001  0.006  0.006
    8  0.000  0.001  0.006  0.007
    9  0.000  0.000  0.001  0.001
   10  0.021  0.003  0.003  0.027
   11  0.024  0.001  0.019  0.043
   12  0.022  0.003  0.004  0.029
   13  0.024  0.001  0.019  0.043
   14  0.027  0.001  0.020  0.047
   15  0.000  0.001  0.026  0.027
   16  0.022  0.003  0.004  0.029
   17  0.000  0.001  0.026  0.027
   18  0.000  0.001  0.025  0.026
   19  0.030  0.002  0.004  0.036
   20  0.003  0.002  0.012  0.018
   21  0.004  0.002  0.014  0.020
   22  0.005  0.000  0.027  0.033
   23  0.004  0.002  0.014  0.020
   24  0.007  0.000  0.027  0.034
   25  0.033  0.002  0.004  0.039
   26  0.030  0.002  0.004  0.036
   27  0.005  0.000  0.027  0.033
   28  0.006  0.001  0.003  0.010
   29  0.000  0.000  0.004  0.005
   30  0.000  0.000  0.005  0.005
   31  0.000  0.000  0.004  0.005
   32  0.001  0.000  0.004  0.005
   33  0.000  0.000  0.005  0.005
   34  0.001  0.000  0.004  0.005
   35  0.008  0.001  0.000  0.009
   36  0.004  0.000  0.000  0.004
   37  0.000  0.000  0.000  0.000
tot    0.304  0.042  0.348  0.693
 
band    10 # energy   -5.85913720 # occ.  2.00000000
 
ion      s      p      d    tot
    1  0.000  0.000  0.000  0.000
    2  0.000  0.000  0.001  0.001
    3  0.000  0.000  0.001  0.001
    4  0.000  0.000  0.001  0.001
    5  0.001  0.000  0.000  0.001
    6  0.000  0.000  0.001  0.001
    7  0.000  0.000  0.001  0.001
    8  0.000  0.000  0.001  0.001
    9  0.000  0.000  0.001  0.001
   10  0.002  0.000  0.007  0.009
   11  0.000  0.000  0.008  0.009
   12  0.002  0.000  0.007  0.009
   13  0.000  0.000  0.008  0.009
   14  0.000  0.000  0.008  0.009
   15  0.002  0.000  0.007  0.009
   16  0.002  0.000  0.007  0.009
   17  0.002  0.000  0.007  0.009
   18  0.002  0.000  0.007  0.009
   19  0.004  0.000  0.029  0.033
   20  0.011  0.001  0.025  0.037
   21  0.011  0.001  0.025  0.037
   22  0.007  0.000  0.026  0.034
   23  0.011  0.001  0.025  0.037
   24  0.007  0.000  0.026  0.034
   25  0.004  0.000  0.029  0.033
   26  0.004  0.000  0.029  0.033
   27  0.007  0.000  0.026  0.034
   28  0.025  0.000  0.016  0.041
   29  0.020  0.000  0.018  0.038
   30  0.020  0.000  0.018  0.038
   31  0.020  0.000  0.018  0.038
   32  0.020  0.000  0.018  0.038
   33  0.020  0.000  0.018  0.038
   34  0.020  0.000  0.018  0.038
   35  0.019  0.000  0.020  0.039
   36  0.018  0.001  0.010  0.029
   37  0.001  0.000  0.000  0.001
tot    0.262  0.008  0.467  0.737
 
band    11 # energy   -5.51426092 # occ.  2.00000000
 
ion      s      p      d    tot
    1  0.000  0.000  0.001  0.001
    2  0.000  0.001  0.007  0.008
    3  0.000  0.001  0.007  0.008
    4  0.000  0.001  0.007  0.008
    5  0.015  0.001  0.000  0.017
    6  0.000  0.001  0.007  0.008
    7  0.000  0.001  0.007  0.008
    8  0.000  0.001  0.007  0.008
    9  0.010  0.002  0.003  0.014
   10  0.001  0.000  0.041  0.042
   11  0.007  0.002  0.006  0.015
   12  0.001  0.000  0.041  0.042
   13  0.007  0.002  0.006  0.015
   14  0.007  0.002  0.006  0.015
   15  0.017  0.002  0.018  0.037
   16  0.001  0.000  0.041  0.042
   17  0.017  0.002  0.018  0.037
   18  0.017  0.002  0.018  0.037
   19  0.007  0.001  0.019  0.026
   20  0.005  0.003  0.020  0.028
   21  0.005  0.003  0.020  0.028
   22  0.000  0.001  0.025  0.026
   23  0.005  0.003  0.020  0.028
   24  0.000  0.001  0.025  0.026
   25  0.007  0.001  0.019  0.026
   26  0.007  0.001  0.019  0.026
   27  0.000  0.001  0.025  0.026
   28  0.005  0.000  0.000  0.006
   29  0.000  0.001  0.005  0.006
   30  0.000  0.001  0.005  0.006
   31  0.000  0.001  0.005  0.006
   32  0.000  0.001  0.005  0.006
   33  0.000  0.001  0.005  0.006
   34  0.000  0.001  0.005  0.006
   35  0.008  0.000  0.000  0.008
   36  0.043  0.000  0.039  0.081
   37  0.017  0.001  0.000  0.018
tot    0.212  0.036  0.500  0.749
 
band    12 # energy   -5.42671371 # occ.  2.00000000
 
ion      s      p      d    tot
    1  0.000  0.001  0.004  0.005
    2  0.010  0.001  0.004  0.015
    3  0.002  0.000  0.004  0.007
    4  0.010  0.001  0.004  0.015
    5  0.000  0.001  0.012  0.013
    6  0.003  0.001  0.005  0.009
    7  0.002  0.000  0.004  0.007
    8  0.003  0.001  0.005  0.009
    9  0.000  0.000  0.008  0.008
   10  0.010  0.002  0.008  0.021
   11  0.005  0.000  0.039  0.044
   12  0.003  0.001  0.044  0.048
   13  0.004  0.000  0.040  0.044
   14  0.018  0.001  0.013  0.032
   15  0.000  0.001  0.014  0.016
   16  0.003  0.001  0.043  0.047
   17  0.000  0.001  0.014  0.015
   18  0.001  0.000  0.024  0.025
   19  0.003  0.001  0.017  0.020
   20  0.024  0.002  0.005  0.030
   21  0.006  0.000  0.052  0.059
   22  0.001  0.001  0.028  0.030
   23  0.006  0.000  0.051  0.058
   24  0.002  0.001  0.014  0.017
   25  0.011  0.000  0.023  0.034
   26  0.003  0.001  0.017  0.020
   27  0.001  0.001  0.028  0.030
   28  0.000  0.001  0.008  0.009
   29  0.007  0.001  0.004  0.012
   30  0.000  0.000  0.004  0.005
   31  0.007  0.001  0.004  0.012
   32  0.005  0.001  0.003  0.009
   33  0.000  0.000  0.004  0.005
   34  0.005  0.001  0.003  0.009
   35  0.000  0.000  0.003  0.003
   36  0.000  0.002  0.007  0.009
   37  0.000  0.000  0.000  0.000
tot    0.153  0.030  0.567  0.751
 
band    13 # energy   -5.42670921 # occ.  2.00000000
 
ion      s      p      d    tot
    1  0.000  0.001  0.004  0.005
    2  0.000  0.000  0.005  0.006
    3  0.008  0.001  0.005  0.014
    4  0.000  0.000  0.005  0.006
    5  0.000  0.001  0.012  0.013
    6  0.007  0.001  0.004  0.011
    7  0.008  0.001  0.005  0.014
    8  0.006  0.001  0.004  0.011
    9  0.000  0.000  0.008  0.008
   10  0.000  0.000  0.056  0.056
   11  0.013  0.001  0.022  0.036
   12  0.008  0.002  0.020  0.029
   13  0.013  0.001  0.022  0.036
   14  0.000  0.000  0.048  0.048
   15  0.001  0.001  0.020  0.022
   16  0.008  0.002  0.020  0.030
   17  0.001  0.001  0.021  0.022
   18  0.000  0.001  0.011  0.013
   19  0.008  0.000  0.021  0.029
   20  0.000  0.000  0.068  0.068
   21  0.018  0.001  0.020  0.039
   22  0.002  0.001  0.019  0.021
   23  0.018  0.001  0.021  0.040
   24  0.000  0.001  0.032  0.034
   25  0.000  0.001  0.015  0.016
   26  0.008  0.000  0.021  0.030
   27  0.002  0.001  0.019  0.022
   28  0.000  0.001  0.008  0.009
   29  0.001  0.000  0.004  0.005
   30  0.008  0.001  0.004  0.012
   31  0.001  0.000  0.004  0.005
   32  0.003  0.001  0.004  0.008
   33  0.008  0.001  0.004  0.012
   34  0.003  0.001  0.004  0.008
   35  0.000  0.000  0.003  0.003
   36  0.000  0.002  0.007  0.009
   37  0.000  0.000  0.000  0.000
tot    0.153  0.030  0.567  0.751
 
band    14 # energy   -5.42364943 # occ.  2.00000000
 
ion      s      p      d    tot
    1  0.016  0.002  0.002  0.020
    2  0.000  0.001  0.008  0.009
    3  0.000  0.001  0.008  0.009
    4  0.000  0.001  0.008  0.009
    5  0.000  0.000  0.002  0.002
    6  0.000  0.001  0.008  0.009
    7  0.000  0.001  0.008  0.009
    8  0.000  0.001  0.008  0.009
    9  0.014  0.001  0.000  0.016
   10  0.009  0.002  0.010  0.021
   11  0.004  0.000  0.038  0.043
   12  0.009  0.002  0.010  0.021
   13  0.004  0.000  0.038  0.043
   14  0.004  0.000  0.038  0.042
   15  0.001  0.001  0.031  0.033
   16  0.009  0.002  0.010  0.021
   17  0.001  0.001  0.031  0.033
   18  0.001  0.001  0.031  0.033
   19  0.006  0.001  0.011  0.019
   20  0.001  0.000  0.044  0.045
   21  0.001  0.000  0.043  0.044
   22  0.013  0.001  0.022  0.036
   23  0.001  0.000  0.043  0.044
   24  0.013  0.001  0.022  0.036
   25  0.006  0.001  0.011  0.018
   26  0.006  0.001  0.011  0.019
   27  0.013  0.001  0.022  0.036
   28  0.015  0.001  0.000  0.017
   29  0.000  0.001  0.006  0.007
   30  0.000  0.001  0.006  0.007
   31  0.000  0.001  0.006  0.007
   32  0.000  0.001  0.006  0.007
   33  0.000  0.001  0.006  0.007
   34  0.000  0.001  0.006  0.007
   35  0.008  0.001  0.003  0.012
   36  0.001  0.000  0.002  0.003
   37  0.000  0.000  0.000  0.000
tot    0.156  0.030  0.562  0.748
 
band    15 # energy   -5.41476312 # occ.  2.00000000
 
ion      s      p      d    tot
    1  0.000  0.001  0.014  0.014
    2  0.010  0.001  0.004  0.016
    3  0.002  0.000  0.005  0.007
    4  0.010  0.001  0.004  0.016
    5  0.000  0.000  0.004  0.005
    6  0.003  0.001  0.005  0.009
    7  0.002  0.000  0.005  0.007
    8  0.003  0.001  0.005  0.009
    9  0.000  0.001  0.008  0.009
   10  0.000  0.001  0.024  0.025
   11  0.001  0.001  0.019  0.022
   12  0.006  0.000  0.022  0.029
   13  0.001  0.001  0.019  0.022
   14  0.000  0.001  0.026  0.027
   15  0.013  0.002  0.021  0.036
   16  0.006  0.000  0.023  0.029
   17  0.013  0.002  0.021  0.036
   18  0.000  0.000  0.064  0.064
   19  0.011  0.001  0.020  0.032
   20  0.000  0.002  0.013  0.014
   21  0.001  0.001  0.021  0.022
   22  0.018  0.001  0.021  0.040
   23  0.001  0.001  0.021  0.022
   24  0.000  0.000  0.040  0.041
   25  0.000  0.000  0.062  0.063
   26  0.011  0.001  0.019  0.032
   27  0.018  0.001  0.021  0.040
   28  0.000  0.001  0.004  0.005
   29  0.007  0.001  0.004  0.012
   30  0.000  0.000  0.004  0.005
   31  0.007  0.001  0.004  0.012
   32  0.004  0.001  0.003  0.007
   33  0.000  0.000  0.004  0.005
   34  0.004  0.001  0.003  0.007
   35  0.000  0.001  0.009  0.010
   36  0.000  0.000  0.003  0.003
   37  0.000  0.000  0.000  0.000
tot    0.152  0.029  0.568  0.750
 
band    16 # energy   -5.41473937 # occ.  2.00000000
 
ion      s      p      d    tot
    1  0.000  0.001  0.014  0.014
    2  0.000  0.000  0.005  0.006
    3  0.008  0.001  0.005  0.014
    4  0.000  0.000  0.005  0.006
    5  0.000  0.000  0.004  0.005
    6  0.007  0.001  0.004  0.012
    7  0.008  0.001  0.005  0.014
    8  0.007  0.001  0.004  0.012
    9  0.000  0.001  0.008  0.009
   10  0.008  0.000  0.022  0.030
   11  0.000  0.001  0.023  0.025
   12  0.002  0.001  0.024  0.026
   13  0.000  0.001  0.023  0.025
   14  0.002  0.001  0.017  0.020
   15  0.004  0.001  0.050  0.055
   16  0.002  0.001  0.024  0.026
   17  0.004  0.001  0.050  0.055
   18  0.017  0.002  0.007  0.026
   19  0.004  0.001  0.048  0.052
   20  0.001  0.000  0.023  0.024
   21  0.000  0.001  0.015  0.017
   22  0.006  0.000  0.034  0.040
   23  0.000  0.001  0.015  0.017
   24  0.024  0.001  0.015  0.039
   25  0.015  0.001  0.005  0.022
   26  0.004  0.001  0.048  0.053
   27  0.006  0.000  0.034  0.040
   28  0.000  0.001  0.004  0.005
   29  0.001  0.000  0.003  0.004
   30  0.007  0.001  0.003  0.011
   31  0.001  0.000  0.003  0.004
   32  0.003  0.001  0.004  0.009
   33  0.007  0.001  0.003  0.011
   34  0.003  0.001  0.004  0.009
   35  0.000  0.001  0.009  0.010
   36  0.000  0.000  0.003  0.003
   37  0.000  0.000  0.000  0.000
tot    0.152  0.029  0.568  0.750
 
band    17 # energy   -5.10423907 # occ.  2.00000000
 
ion      s      p      d    tot
    1  0.007  0.000  0.003  0.010
    2  0.000  0.000  0.013  0.013
    3  0.000  0.000  0.013  0.013
    4  0.000  0.000  0.013  0.013
    5  0.000  0.000  0.002  0.003
    6  0.000  0.000  0.013  0.013
    7  0.000  0.000  0.013  0.013
    8  0.000  0.000  0.013  0.013
    9  0.007  0.000  0.007  0.014
   10  0.000  0.000  0.012  0.012
   11  0.000  0.001  0.025  0.026
   12  0.000  0.000  0.012  0.012
   13  0.000  0.001  0.025  0.026
   14  0.000  0.001  0.025  0.025
   15  0.000  0.000  0.025  0.026
   16  0.000  0.000  0.012  0.012
   17  0.000  0.000  0.025  0.026
   18  0.000  0.000  0.025  0.026
   19  0.000  0.000  0.034  0.034
   20  0.002  0.001  0.044  0.047
   21  0.002  0.001  0.044  0.047
   22  0.001  0.000  0.022  0.023
   23  0.002  0.001  0.044  0.047
   24  0.001  0.000  0.022  0.023
   25  0.000  0.000  0.034  0.034
   26  0.000  0.000  0.034  0.034
   27  0.001  0.000  0.022  0.023
   28  0.015  0.000  0.007  0.023
   29  0.000  0.001  0.013  0.014
   30  0.000  0.001  0.013  0.014
   31  0.000  0.001  0.013  0.014
   32  0.000  0.001  0.013  0.014
   33  0.000  0.001  0.013  0.014
   34  0.000  0.001  0.013  0.014
   35  0.000  0.000  0.001  0.001
   36  0.040  0.001  0.044  0.086
   37  0.025  0.001  0.000  0.026
tot    0.106  0.015  0.703  0.824
 
band    18 # energy   -5.04399170 # occ.  2.00000000
 
ion      s      p      d    tot
    1  0.015  0.000  0.010  0.025
    2  0.000  0.001  0.016  0.017
    3  0.000  0.001  0.016  0.017
    4  0.000  0.001  0.016  0.017
    5  0.000  0.000  0.010  0.011
    6  0.000  0.001  0.016  0.017
    7  0.000  0.001  0.016  0.017
    8  0.000  0.001  0.016  0.017
    9  0.016  0.001  0.000  0.017
   10  0.000  0.000  0.033  0.034
   11  0.000  0.000  0.043  0.043
   12  0.000  0.000  0.033  0.034
   13  0.000  0.000  0.043  0.043
   14  0.000  0.000  0.042  0.042
   15  0.000  0.000  0.029  0.029
   16  0.000  0.000  0.033  0.034
   17  0.000  0.000  0.029  0.029
   18  0.000  0.000  0.030  0.030
   19  0.000  0.000  0.020  0.020
   20  0.001  0.000  0.032  0.033
   21  0.001  0.000  0.032  0.033
   22  0.000  0.000  0.028  0.028
   23  0.001  0.000  0.032  0.033
   24  0.000  0.000  0.027  0.028
   25  0.000  0.000  0.020  0.021
   26  0.000  0.000  0.020  0.020
   27  0.000  0.000  0.028  0.028
   28  0.002  0.000  0.001  0.003
   29  0.000  0.001  0.012  0.013
   30  0.000  0.001  0.012  0.013
   31  0.000  0.001  0.012  0.013
   32  0.000  0.001  0.012  0.013
   33  0.000  0.001  0.012  0.013
   34  0.000  0.001  0.012  0.013
   35  0.014  0.001  0.002  0.016
   36  0.005  0.000  0.011  0.017
   37  0.000  0.000  0.000  0.000
tot    0.058  0.015  0.756  0.829
 
band    19 # energy   -5.03994901 # occ.  2.00000000
 
ion      s      p      d    tot
    1  0.000  0.001  0.014  0.014
    2  0.012  0.001  0.011  0.024
    3  0.002  0.001  0.011  0.014
    4  0.012  0.001  0.011  0.024
    5  0.000  0.000  0.033  0.033
    6  0.005  0.000  0.016  0.021
    7  0.002  0.001  0.011  0.014
    8  0.004  0.000  0.016  0.021
    9  0.000  0.001  0.012  0.013
   10  0.000  0.000  0.010  0.010
   11  0.000  0.001  0.032  0.032
   12  0.000  0.000  0.021  0.022
   13  0.000  0.001  0.032  0.032
   14  0.000  0.000  0.035  0.035
   15  0.000  0.000  0.052  0.053
   16  0.000  0.000  0.022  0.022
   17  0.000  0.000  0.052  0.053
   18  0.000  0.000  0.049  0.049
   19  0.000  0.000  0.013  0.014
   20  0.000  0.000  0.013  0.013
   21  0.001  0.000  0.027  0.028
   22  0.000  0.000  0.041  0.042
   23  0.001  0.000  0.027  0.028
   24  0.000  0.000  0.033  0.033
   25  0.000  0.000  0.013  0.014
   26  0.000  0.000  0.013  0.014
   27  0.000  0.000  0.041  0.042
   28  0.000  0.000  0.015  0.015
   29  0.004  0.001  0.006  0.011
   30  0.007  0.000  0.009  0.017
   31  0.004  0.001  0.006  0.010
   32  0.000  0.000  0.009  0.009
   33  0.007  0.000  0.009  0.017
   34  0.000  0.000  0.009  0.009
   35  0.000  0.001  0.017  0.018
   36  0.000  0.002  0.004  0.006
   37  0.000  0.000  0.000  0.000
tot    0.063  0.016  0.747  0.826
 
band    20 # energy   -5.03994777 # occ.  2.00000000
 
ion      s      p      d    tot
    1  0.000  0.001  0.014  0.014
    2  0.000  0.000  0.015  0.016
    3  0.010  0.001  0.015  0.026
    4  0.000  0.000  0.015  0.015
    5  0.000  0.000  0.033  0.033
    6  0.008  0.001  0.010  0.018
    7  0.010  0.001  0.015  0.026
    8  0.008  0.001  0.010  0.018
    9  0.000  0.002  0.012  0.013
   10  0.000  0.000  0.025  0.026
   11  0.000  0.000  0.033  0.034
   12  0.000  0.000  0.014  0.014
   13  0.000  0.000  0.033  0.034
   14  0.000  0.001  0.031  0.032
   15  0.000  0.000  0.050  0.050
   16  0.000  0.000  0.014  0.014
   17  0.000  0.000  0.050  0.050
   18  0.000  0.000  0.053  0.054
   19  0.000  0.000  0.013  0.014
   20  0.002  0.000  0.032  0.034
   21  0.000  0.000  0.017  0.018
   22  0.000  0.000  0.035  0.036
   23  0.000  0.000  0.017  0.018
   24  0.000  0.000  0.044  0.045
   25  0.000  0.000  0.013  0.014
   26  0.000  0.000  0.013  0.014
   27  0.000  0.000  0.035  0.036
   28  0.000  0.000  0.015  0.015
   29  0.004  0.000  0.010  0.014
   30  0.001  0.000  0.007  0.008
   31  0.004  0.000  0.010  0.014
   32  0.007  0.001  0.007  0.015
   33  0.001  0.000  0.007  0.008
   34  0.007  0.001  0.007  0.015
   35  0.000  0.001  0.017  0.018
   36  0.000  0.002  0.004  0.006
   37  0.000  0.000  0.000  0.000
tot    0.063  0.016  0.747  0.826
 
band    21 # energy   -5.02798990 # occ.  2.00000000
 
ion      s      p      d    tot
    1  0.000  0.001  0.028  0.029
    2  0.012  0.001  0.013  0.026
    3  0.002  0.001  0.012  0.015
    4  0.012  0.001  0.013  0.026
    5  0.000  0.002  0.006  0.007
    6  0.004  0.000  0.018  0.022
    7  0.002  0.001  0.012  0.015
    8  0.004  0.000  0.018  0.022
    9  0.000  0.000  0.028  0.028
   10  0.000  0.001  0.055  0.056
   11  0.000  0.000  0.033  0.034
   12  0.000  0.000  0.057  0.058
   13  0.000  0.000  0.033  0.034
   14  0.000  0.000  0.042  0.043
   15  0.000  0.000  0.015  0.015
   16  0.000  0.000  0.057  0.058
   17  0.000  0.000  0.015  0.015
   18  0.000  0.001  0.019  0.020
   19  0.000  0.000  0.029  0.029
   20  0.000  0.000  0.033  0.033
   21  0.000  0.000  0.026  0.026
   22  0.001  0.000  0.008  0.009
   23  0.000  0.000  0.026  0.026
   24  0.002  0.000  0.010  0.013
   25  0.001  0.000  0.042  0.043
   26  0.000  0.000  0.029  0.029
   27  0.001  0.000  0.008  0.009
   28  0.000  0.001  0.009  0.010
   29  0.004  0.001  0.005  0.010
   30  0.006  0.000  0.006  0.012
   31  0.004  0.001  0.005  0.010
   32  0.000  0.000  0.007  0.007
   33  0.006  0.000  0.006  0.012
   34  0.000  0.000  0.007  0.007
   35  0.000  0.001  0.007  0.008
   36  0.000  0.000  0.010  0.010