 vasp.6.2.0 18Jan21 (build Jun 12 2021 23:27:24) complex                        
  
 executed on             LinuxIFC date 2022.05.27  06:00:37
 running on   28 total cores
 distrk:  each k-point on   28 cores,    1 groups
 distr:  one band on NCORE=   1 cores,   28 groups


--------------------------------------------------------------------------------------------------------


 INCAR:
   ISMEAR = -5
   SIGMA = 0.1
   ISPIN = 1
   EDIFF = 1.d-5
   EDIFFG = -0.01
   NSW = 0
   NELM = 150
   ENCUT = 500
   ISIF = 2
   IBRION = 2
   LREAL = Auto
   ALGO = Fast
   ICHARG = 11
   LORBIT = 10
   LCHARG = .F.
   LWAVE = .F.

 POTCAR:    PAW_PBE Cu 22Jun2005                  
 POTCAR:    PAW_PBE Cr 06Sep2000                  
 POTCAR:    PAW_PBE N 08Apr2002                   
 -----------------------------------------------------------------------------
|                                                                             |
|           W    W    AA    RRRRR   N    N  II  N    N   GGGG   !!!           |
|           W    W   A  A   R    R  NN   N  II  NN   N  G    G  !!!           |
|           W    W  A    A  R    R  N N  N  II  N N  N  G       !!!           |
|           W WW W  AAAAAA  RRRRR   N  N N  II  N  N N  G  GGG   !            |
|           WW  WW  A    A  R   R   N   NN  II  N   NN  G    G                |
|           W    W  A    A  R    R  N    N  II  N    N   GGGG   !!!           |
|                                                                             |
|     For optimal performance we recommend to set                             |
|       NCORE = 2 up to number-of-cores-per-socket                            |
|     NCORE specifies how many cores store one orbital (NPAR=cpu/NCORE).      |
|     This setting can greatly improve the performance of VASP for DFT.       |
|     The default, NCORE=1 might be grossly inefficient on modern             |
|     multi-core architectures or massively parallel machines. Do your        |
|     own testing! More info at https://www.vasp.at/wiki/index.php/NCORE      |
|     Unfortunately you need to use the default for GW and RPA                |
|     calculations (for HF NCORE is supported but not extensively tested      |
|     yet).                                                                   |
|                                                                             |
 -----------------------------------------------------------------------------

 POTCAR:    PAW_PBE Cu 22Jun2005                  
   VRHFIN =Cu: d10 p1                                                                               
   LEXCH  = PE                                                                                      
   EATOM  =  1390.9808 eV,  102.2342 Ry                                                             
                                                                                                    
   TITEL  = PAW_PBE Cu 22Jun2005                                                                    
   LULTRA =        F    use ultrasoft PP ?                                                          
   IUNSCR =        1    unscreen: 0-lin 1-nonlin 2-no                                               
   RPACOR =    2.000    partial core radius                                                         
   POMASS =   63.546; ZVAL   =   11.000    mass and valenz                                          
   RCORE  =    2.300    outmost cutoff radius                                                       
   RWIGS  =    2.200; RWIGS  =    1.164    wigner-seitz radius (au A)                               
   ENMAX  =  295.446; ENMIN  =  221.585 eV                                                          
   ICORE  =        3    local potential                                                             
   LCOR   =        T    correct aug charges                                                         
   LPAW   =        T    paw PP                                                                      
   EAUG   =  586.980                                                                                
   DEXC   =    0.000                                                                                
   RMAX   =    2.344    core radius for proj-oper                                                   
   RAUG   =    1.300    factor for augmentation sphere                                              
   RDEP   =    2.302    radius for radial grids                                                     
   RDEPT  =    1.771    core radius for aug-charge                                                  
                                                                                                    
   Atomic configuration                                                                             
    9 entries                                                                                       
     n  l   j            E        occ.                                                              
     1  0  0.50     -8850.2468   2.0000                                                             
     2  0  0.50     -1062.3498   2.0000                                                             
     2  1  1.50      -916.8226   6.0000                                                             
     3  0  0.50      -114.6929   2.0000                                                             
     3  1  1.50       -72.1325   6.0000                                                             
     3  2  2.50        -5.0394  10.0000                                                             
     4  0  0.50        -4.6097   1.0000                                                             
     4  1  0.50        -4.0817   0.0000                                                             
     4  3  2.50        -1.3606   0.0000                                                             
   Description                                                                                      
     l       E           TYP  RCUT    TYP  RCUT                                                     
     2     -5.0393973     23  2.200                                                                 
     2     10.8846608     23  2.200                                                                 
     0     -4.6097109     23  2.200                                                                 
     0      8.2520465     23  2.200                                                                 
     1     -2.7211652     23  2.200                                                                 
     1     21.7055443     23  2.200                                                                 
     3      2.7211652     23  2.300                                                                 
  local pseudopotential read in
  partial core-charges read in
  partial kinetic energy density read in
  atomic valenz-charges read in
  non local Contribution for L=           2  read in
    real space projection operators read in
  non local Contribution for L=           2  read in
    real space projection operators read in
  non local Contribution for L=           0  read in
    real space projection operators read in
  non local Contribution for L=           0  read in
    real space projection operators read in
  non local Contribution for L=           1  read in
    real space projection operators read in
  non local Contribution for L=           1  read in
    real space projection operators read in
    PAW grid and wavefunctions read in
 
   number of l-projection  operators is LMAX  =           6
   number of lm-projection operators is LMMAX =          18
 
 POTCAR:    PAW_PBE Cr 06Sep2000                  
   VRHFIN =Cr : d5 s1                                                                               
   LEXCH  = PE                                                                                      
   EATOM  =   276.8859 eV,   20.3505 Ry                                                             
                                                                                                    
   TITEL  = PAW_PBE Cr 06Sep2000                                                                    
   LULTRA =        F    use ultrasoft PP ?                                                          
   IUNSCR =        1    unscreen: 0-lin 1-nonlin 2-no                                               
   RPACOR =    2.080    partial core radius                                                         
   POMASS =   51.996; ZVAL   =    6.000    mass and valenz                                          
   RCORE  =    2.500    outmost cutoff radius                                                       
   RWIGS  =    2.500; RWIGS  =    1.323    wigner-seitz radius (au A)                               
   ENMAX  =  227.080; ENMIN  =  170.310 eV                                                          
   RCLOC  =    1.721    cutoff for local pot                                                        
   LCOR   =        T    correct aug charges                                                         
   LPAW   =        T    paw PP                                                                      
   EAUG   =  402.108                                                                                
   DEXC   =    0.000                                                                                
   RMAX   =    2.552    core radius for proj-oper                                                   
   RAUG   =    1.300    factor for augmentation sphere                                              
   RDEP   =    2.609    radius for radial grids                                                     
   RDEPT  =    2.065    core radius for aug-charge                                                  
                                                                                                    
   Atomic configuration                                                                             
    9 entries                                                                                       
     n  l   j            E        occ.                                                              
     1  0  0.50     -5880.4963   2.0000                                                             
     2  0  0.50      -667.0865   2.0000                                                             
     2  1  1.50      -560.6250   6.0000                                                             
     3  0  0.50       -73.9860   2.0000                                                             
     3  1  1.50       -45.4378   6.0000                                                             
     3  2  2.50        -2.9137   5.0000                                                             
     4  0  0.50        -4.0071   1.0000                                                             
     4  1  0.50        -1.2789   0.0000                                                             
     4  3  2.50        -1.3606   0.0000                                                             
   Description                                                                                      
     l       E           TYP  RCUT    TYP  RCUT                                                     
     2     -2.9136677     23  2.500                                                                 
     2     -4.2742503     23  2.500                                                                 
     0     -4.0071322     23  2.500                                                                 
     0      9.4498801     23  2.500                                                                 
     1     -5.4423304     23  2.500                                                                 
     1     27.2116520     23  2.500                                                                 
  local pseudopotential read in
  partial core-charges read in
  partial kinetic energy density read in
  atomic valenz-charges read in
  non local Contribution for L=           2  read in
    real space projection operators read in
  non local Contribution for L=           2  read in
    real space projection operators read in
  non local Contribution for L=           0  read in
    real space projection operators read in
  non local Contribution for L=           0  read in
    real space projection operators read in
  non local Contribution for L=           1  read in
    real space projection operators read in
  non local Contribution for L=           1  read in
    real space projection operators read in
    PAW grid and wavefunctions read in
 
   number of l-projection  operators is LMAX  =           6
   number of lm-projection operators is LMMAX =          18
 
 POTCAR:    PAW_PBE N 08Apr2002                   
   VRHFIN =N: s2p3                                                                                  
   LEXCH  = PE                                                                                      
   EATOM  =   264.5486 eV,   19.4438 Ry                                                             
                                                                                                    
   TITEL  = PAW_PBE N 08Apr2002                                                                     
   LULTRA =        F    use ultrasoft PP ?                                                          
   IUNSCR =        1    unscreen: 0-lin 1-nonlin 2-no                                               
   RPACOR =    1.200    partial core radius                                                         
   POMASS =   14.001; ZVAL   =    5.000    mass and valenz                                          
   RCORE  =    1.500    outmost cutoff radius                                                       
   RWIGS  =    1.400; RWIGS  =    0.741    wigner-seitz radius (au A)                               
   ENMAX  =  400.000; ENMIN  =  300.000 eV                                                          
   ICORE  =        2    local potential                                                             
   LCOR   =        T    correct aug charges                                                         
   LPAW   =        T    paw PP                                                                      
   EAUG   =  627.112                                                                                
   DEXC   =    0.000                                                                                
   RMAX   =    1.529    core radius for proj-oper                                                   
   RAUG   =    1.300    factor for augmentation sphere                                              
   RDEP   =    1.514    radius for radial grids                                                     
   RDEPT  =    1.338    core radius for aug-charge                                                  
                                                                                                    
   Atomic configuration                                                                             
    4 entries                                                                                       
     n  l   j            E        occ.                                                              
     1  0  0.50      -384.7179   2.0000                                                             
     2  0  0.50       -18.5828   2.0000                                                             
     2  1  0.50        -7.0898   3.0000                                                             
     3  2  1.50        -6.8029   0.0000                                                             
   Description                                                                                      
     l       E           TYP  RCUT    TYP  RCUT                                                     
     0    -18.5828119     23  1.200                                                                 
     0    -13.5018863     23  1.200                                                                 
     1     -7.0897853     23  1.500                                                                 
     1      9.5240782     23  1.500                                                                 
     2     -6.8029130      7  1.500                                                                 
  local pseudopotential read in
  partial core-charges read in
  partial kinetic energy density read in
  atomic valenz-charges read in
  non local Contribution for L=           0  read in
    real space projection operators read in
  non local Contribution for L=           0  read in
    real space projection operators read in
  non local Contribution for L=           1  read in
    real space projection operators read in
  non local Contribution for L=           1  read in
    real space projection operators read in
    PAW grid and wavefunctions read in
 
   number of l-projection  operators is LMAX  =           4
   number of lm-projection operators is LMMAX =           8
 
 Optimization of the real space projectors (new method)

 maximal supplied QI-value         = 16.25
 optimisation between [QCUT,QGAM] = [ 11.38, 22.75] = [ 36.24,144.96] Ry 
 Optimized for a Real-space Cutoff    1.52 Angstroem

   l    n(q)    QCUT    max X(q) W(low)/X(q) W(high)/X(q)  e(spline) 
   2      9    11.376     4.610    0.21E-03    0.10E-03    0.26E-06
   2      9    11.376     8.522    0.33E-03    0.16E-03    0.37E-06
   0     10    11.376    51.609    0.62E-04    0.20E-04    0.13E-06
   0     10    11.376    27.747    0.54E-04    0.20E-04    0.13E-06
   1     10    11.376    20.408    0.13E-04    0.99E-04    0.19E-06
   1     10    11.376    13.425    0.12E-04    0.87E-04    0.17E-06
 Optimization of the real space projectors (new method)

 maximal supplied QI-value         = 15.12
 optimisation between [QCUT,QGAM] = [ 11.34, 22.83] = [ 36.00,145.93] Ry 
 Optimized for a Real-space Cutoff    1.43 Angstroem

   l    n(q)    QCUT    max X(q) W(low)/X(q) W(high)/X(q)  e(spline) 
   2      9    11.338    94.395    0.18E-03    0.10E-02    0.64E-06
   2      9    11.338    88.078    0.18E-03    0.10E-02    0.65E-06
   0     10    11.338    50.173    0.13E-03    0.16E-03    0.96E-07
   0     10    11.338    24.906    0.12E-03    0.14E-03    0.88E-07
   1      9    11.338    12.133    0.13E-03    0.15E-03    0.24E-06
   1      9    11.338     7.290    0.10E-03    0.10E-03    0.18E-06
 Optimization of the real space projectors (new method)

 maximal supplied QI-value         = 25.13
 optimisation between [QCUT,QGAM] = [ 11.31, 22.87] = [ 35.82,146.48] Ry 
 Optimized for a Real-space Cutoff    1.27 Angstroem

   l    n(q)    QCUT    max X(q) W(low)/X(q) W(high)/X(q)  e(spline) 
   0      9    11.310    79.467    0.75E-04    0.16E-03    0.36E-06
   0      9    11.310    66.151    0.74E-04    0.16E-03    0.36E-06
   1      8    11.310    17.416    0.35E-03    0.12E-03    0.95E-06
   1      8    11.310    12.382    0.37E-03    0.13E-03    0.98E-06
  PAW_PBE Cu 22Jun2005                  :
 energy of atom  1       EATOM=-1390.9808
 kinetic energy error for atom=    0.0043 (will be added to EATOM!!)
  PAW_PBE Cr 06Sep2000                  :
 energy of atom  2       EATOM= -276.8859
 kinetic energy error for atom=    0.0012 (will be added to EATOM!!)
  PAW_PBE N 08Apr2002                   :
 energy of atom  3       EATOM= -264.5486
 kinetic energy error for atom=    0.0138 (will be added to EATOM!!)
 
 
 POSCAR: Cu-Cr-N2
  positions in direct lattice
  velocities in cartesian coordinates
 exchange correlation table for  LEXCH =        8
   RHO(1)=    0.500       N(1)  =     2000
   RHO(2)=  100.500       N(2)  =     4000

 VTST: version 3.2, (02/03/18)

 CHAIN: initializing optimizer
 
 OPT: Using VASP Conjugate-Gradient optimizer
 CHAIN: Read ICHAIN            0
 
 POSCAR: Cu-Cr-N2
  positions in direct lattice
  velocities in cartesian coordinates
 


--------------------------------------------------------------------------------------------------------


 ion  position               nearest neighbor table
   1  0.000  0.000  0.252-   7 2.57   3 2.57   4 2.57   2 2.57   6 2.57   8 2.57  12 2.57  10 2.57
                            16 2.57
   2  0.333  0.000  0.252-   8 2.57   9 2.57   5 2.57   1 2.57   3 2.57  11 2.57   4 2.57  10 2.57
                            17 2.57
   3  0.667  0.000  0.252-   1 2.57   7 2.57   6 2.57   9 2.57   2 2.57  12 2.57   5 2.57  18 2.57
                            11 2.57
   4  0.000  0.333  0.252-   5 2.57   6 2.57   1 2.57   7 2.57   2 2.57  13 2.57   9 2.57  10 2.57
                            15 2.57
   5  0.333  0.333  0.252-   4 2.57   2 2.57   7 2.57  13 2.57   8 2.57   6 2.57   3 2.57  11 2.57
                            14 2.57
   6  0.667  0.333  0.252-   4 2.57   9 2.57  15 2.57   3 2.57   1 2.57   8 2.57  14 2.57   5 2.57
                            12 2.57
   7  0.000  0.667  0.252-   1 2.57   3 2.57  16 2.57  18 2.57   4 2.57   5 2.57   8 2.57   9 2.57
                            13 2.57
   8  0.333  0.667  0.252-   9 2.57   2 2.57  17 2.57   6 2.57   1 2.57   7 2.57   5 2.57  14 2.57
                            16 2.57
   9  0.667  0.667  0.252-   8 2.57   6 2.57   2 2.57  17 2.57   3 2.57   7 2.57   4 2.57  15 2.57
                            18 2.57
  10  0.111  0.111  0.351-  20 2.55  26 2.56  19 2.56  11 2.57  12 2.57  13 2.57   1 2.57   2 2.57
                             4 2.57  15 2.57  16 2.57  17 2.57
  11  0.444  0.111  0.351-  20 2.55  21 2.55  10 2.57  13 2.57   2 2.57  17 2.57  14 2.57  12 2.57
                             5 2.57   3 2.57  18 2.57  27 2.57
  12  0.778  0.111  0.351-  21 2.55  19 2.56  25 2.56  15 2.57  10 2.57  14 2.57  18 2.57   3 2.57
                             1 2.57  16 2.57  11 2.57   6 2.57
  13  0.111  0.444  0.351-  23 2.55  20 2.55  16 2.57  18 2.57  10 2.57  11 2.57  14 2.57   5 2.57
                             4 2.57   7 2.57  15 2.57  22 2.57
  14  0.444  0.444  0.351-  21 2.55  23 2.55  15 2.57  17 2.57  12 2.57  16 2.57  13 2.57  11 2.57
                             6 2.57   8 2.57   5 2.57  24 2.57
  15  0.778  0.444  0.351-  19 2.56  24 2.56  22 2.56  14 2.57  17 2.57  12 2.57   6 2.57  18 2.57
                            10 2.57   9 2.57  13 2.57   4 2.57
  16  0.111  0.778  0.351-  23 2.55  25 2.56  26 2.56  18 2.57  13 2.57   7 2.57  14 2.57  17 2.57
                            12 2.57  10 2.57   8 2.57   1 2.57
  17  0.444  0.778  0.351-  26 2.56  27 2.56  24 2.56  14 2.57  15 2.57   8 2.57   9 2.57  11 2.57
                            16 2.57  18 2.57  10 2.57   2 2.57
  18  0.778  0.778  0.351-  25 2.56  22 2.56  27 2.56  16 2.57  13 2.57   7 2.57  15 2.57  12 2.57
                            17 2.57   9 2.57   3 2.57  11 2.57
  19  0.889  0.222  0.449-  12 2.56  10 2.56  15 2.56  28 2.56  25 2.57  26 2.57  22 2.57  24 2.57
                            21 2.57  20 2.57  32 2.58  31 2.58
  20  0.222  0.222  0.448-  36 2.50  11 2.55  13 2.55  10 2.55  23 2.56  21 2.56  26 2.57  19 2.57
                            29 2.57  31 2.57  27 2.57  22 2.57
  21  0.555  0.222  0.448-  36 2.50  14 2.55  11 2.55  12 2.55  20 2.56  23 2.56  19 2.57  25 2.57
                            32 2.57  30 2.57  24 2.57  27 2.57
  22  0.888  0.556  0.449-  35 2.56  24 2.56  27 2.56  18 2.56  15 2.56  31 2.56  33 2.56  19 2.57
                            25 2.57  13 2.57  23 2.57  20 2.57
  23  0.222  0.555  0.448-  36 2.50  13 2.55  14 2.55  16 2.55  20 2.56  21 2.56  25 2.57  26 2.57
                            33 2.57  34 2.57  22 2.57  24 2.57
  24  0.556  0.556  0.449-  35 2.56  22 2.56  27 2.56  15 2.56  17 2.56  32 2.56  34 2.56  19 2.57
                            26 2.57  14 2.57  21 2.57  23 2.57
  25  0.889  0.889  0.449-  12 2.56  16 2.56  18 2.56  28 2.56  19 2.57  26 2.57  22 2.57  27 2.57
                            21 2.57  23 2.57  33 2.58  30 2.58
  26  0.222  0.889  0.449-  10 2.56  16 2.56  17 2.56  28 2.56  25 2.57  19 2.57  27 2.57  24 2.57
                            20 2.57  23 2.57  29 2.58  34 2.58
  27  0.556  0.888  0.449-  35 2.56  24 2.56  22 2.56  17 2.56  18 2.56  29 2.56  30 2.56  26 2.57
                            25 2.57  11 2.57  20 2.57  21 2.57
  28  0.000  0.000  0.547-  25 2.56  19 2.56  26 2.56  33 2.57  30 2.57  31 2.57  29 2.57  32 2.57
                            34 2.57
  29  0.333  0.002  0.547-  31 2.55  30 2.55  36 2.55  27 2.56  20 2.57  28 2.57  35 2.57  26 2.58
                            34 2.60
  30  0.665  0.002  0.547-  32 2.55  29 2.55  36 2.55  27 2.56  21 2.57  28 2.57  35 2.57  25 2.58
                            33 2.60
  31  0.002  0.333  0.547-  29 2.55  33 2.55  36 2.55  22 2.56  20 2.57  28 2.57  35 2.57  19 2.58
                            32 2.60
  32  0.665  0.333  0.547-  30 2.55  34 2.55  36 2.55  24 2.56  21 2.57  28 2.57  35 2.57  19 2.58
                            31 2.60
  33  0.002  0.665  0.547-  34 2.55  31 2.55  36 2.55  22 2.56  23 2.57  28 2.57  35 2.57  25 2.58
                            30 2.60
  34  0.333  0.665  0.547-  33 2.55  32 2.55  36 2.55  24 2.56  23 2.57  28 2.57  35 2.57  26 2.58
                            29 2.60
  35  0.667  0.667  0.547-  24 2.56  27 2.56  22 2.56  34 2.57  32 2.57  29 2.57  30 2.57  33 2.57
                            31 2.57
  36  0.333  0.333  0.543-  38 2.12  37 2.12  23 2.50  20 2.50  21 2.50  31 2.55  29 2.55  33 2.55
                            34 2.55  32 2.55  30 2.55
  37  0.257  0.334  0.639-  38 1.17  36 2.12
  38  0.409  0.334  0.639-  37 1.17  36 2.12
 
  LATTYP: Found a hexagonal cell.
 ALAT       =     7.6967864036
 C/A-ratio  =     2.7653617908
  
  Lattice vectors:
  
 A1 = (  -3.8483927580,  -6.6656128093,   0.0000000000)
 A2 = (   7.6967864037,   0.0000000000,   0.0000000000)
 A3 = (   0.0000000000,   0.0000000000,  21.2843990326)


Analysis of symmetry for initial positions (statically):
=====================================================================
 Subroutine PRICEL returns:
 Original cell was already a primitive cell.
 

 Routine SETGRP: Setting up the symmetry group for a 
 hexagonal supercell.


 Subroutine GETGRP returns: Found  2 space group operations
 (whereof  2 operations were pure point group operations)
 out of a pool of 24 trial point group operations.


The static configuration has the point symmetry C_1h.


Analysis of symmetry for dynamics (positions and initial velocities):
=====================================================================
 Subroutine PRICEL returns:
 Original cell was already a primitive cell.
 

 Routine SETGRP: Setting up the symmetry group for a 
 hexagonal supercell.


 Subroutine GETGRP returns: Found  2 space group operations
 (whereof  2 operations were pure point group operations)
 out of a pool of 24 trial point group operations.


The dynamic configuration has the point symmetry C_1h.


Analysis of constrained symmetry for selective dynamics:
=====================================================================
 Subroutine PRICEL returns:
 Original cell was already a primitive cell.
 

 Routine SETGRP: Setting up the symmetry group for a 
 hexagonal supercell.


 Subroutine GETGRP returns: Found  2 space group operations
 (whereof  2 operations were pure point group operations)
 out of a pool of 24 trial point group operations.


The constrained configuration has the point symmetry C_1h.


 Subroutine INISYM returns: Found  2 space group operations
 (whereof  2 operations are pure point group operations),
 and found     1 'primitive' translations


----------------------------------------------------------------------------------------

                                     Primitive cell                                     

  volume of cell :    1091.9705

  direct lattice vectors                    reciprocal lattice vectors
     7.696786404  0.000000000  0.000000000     0.129924354 -0.075011849  0.000000000
     3.848392758  6.665612809  0.000000000     0.000000000  0.150023716  0.000000000
     0.000000000  0.000000000 21.284399033     0.000000000  0.000000000  0.046982769

  length of vectors
     7.696786404  7.696786404 21.284399033     0.150023716  0.150023716  0.046982769

  position of ions in fractional coordinates (direct lattice)
     0.000000000  0.000000000  0.252370745
     0.333333343  0.000000000  0.252370745
     0.666666687  0.000000000  0.252370745
     1.000000000  0.333333343  0.252370745
     0.333333313  0.333333343  0.252370745
     0.666666687  0.333333343  0.252370745
     1.000000000  0.666666687  0.252370745
     0.333333373  0.666666687  0.252370745
     0.666666627  0.666666687  0.252370745
     0.111111119  0.111111112  0.350790262
     0.444444418  0.111111112  0.350790262
     0.777777791  0.111111112  0.350790262
     0.111111119  0.444444448  0.350790262
     0.444444478  0.444444448  0.350790262
     0.777777731  0.444444448  0.350790262
     0.111111112  0.777777731  0.350790262
     0.444444478  0.777777731  0.350790262
     0.777777851  0.777777731  0.350790262
     0.888897442  0.222205133  0.448768362
     0.222265583  0.222265568  0.448432901
     0.555468893  0.222265568  0.448432901
     0.888328893  0.555835524  0.449118745
     0.222265553  0.555468833  0.448432901
     0.555835584  0.555835524  0.449118745
     0.888897442  0.888897442  0.448768362
     0.222205148  0.888897442  0.448768362
     0.555835524  0.888328893  0.449118745
     0.000000000  0.000000000  0.546867683
     0.333215572  0.002074968  0.547367671
     0.664709491  0.002074968  0.547367671
     0.002074968  0.333215572  0.547367671
     0.664709491  0.333215572  0.547367671
     0.002074968  0.664709491  0.547367671
     0.333215602  0.664709491  0.547367671
     0.666666627  0.666666687  0.547114682
     0.333333313  0.333333343  0.542998502
     0.256765286  0.334230463  0.638512565
     0.409004219  0.334230463  0.638512565

  ion indices of the primitive-cell ions
   primitive index   ion index
                 1           1
                 2           2
                 3           3
                 4           4
                 5           5
                 6           6
                 7           7
                 8           8
                 9           9
                10          10
                11          11
                12          12
                13          13
                14          14
                15          15
                16          16
                17          17
                18          18
                19          19
                20          20
                21          21
                22          22
                23          23
                24          24
                25          25
                26          26
                27          27
                28          28
                29          29
                30          30
                31          31
                32          32
                33          33
                34          34
                35          35
                36          36
                37          37
                38          38

----------------------------------------------------------------------------------------

 
 
 KPOINTS: Automatic mesh                          

Automatic generation of k-mesh.
 Grid dimensions read from file:
 generate k-points for:    8    8    1

 Generating k-lattice:

  Cartesian coordinates                     Fractional coordinates (reciprocal lattice)
     0.016240544 -0.009376481  0.000000000     0.125000000 -0.000000000  0.000000000
     0.000000000  0.018752964  0.000000000     0.000000000  0.125000000  0.000000000
     0.000000000  0.000000000  0.046982769     0.000000000  0.000000000  1.000000000

  Length of vectors
     0.018752964  0.018752964  0.046982769

  Shift w.r.t. Gamma in fractional coordinates (k-lattice)
     0.000000000  0.000000000  0.000000000

 TETIRR: Found    100 inequivalent tetrahedra from      384
 
 Subroutine IBZKPT returns following result:
 ===========================================
 
 Found     21 irreducible k-points:
 
 Following reciprocal coordinates:
            Coordinates               Weight
  0.000000  0.000000  0.000000      1.000000
  0.125000 -0.000000  0.000000      4.000000
  0.000000  0.125000  0.000000      2.000000
  0.250000 -0.000000  0.000000      4.000000
  0.000000  0.250000  0.000000      2.000000
  0.375000 -0.000000  0.000000      4.000000
  0.000000  0.375000  0.000000      2.000000
  0.500000 -0.000000  0.000000      2.000000
  0.000000  0.500000  0.000000      1.000000
  0.250000  0.125000  0.000000      2.000000
  0.125000  0.250000  0.000000      4.000000
  0.375000  0.125000  0.000000      4.000000
  0.250000  0.375000  0.000000      4.000000
 -0.125000  0.250000  0.000000      4.000000
  0.500000  0.125000  0.000000      4.000000
  0.375000  0.500000  0.000000      4.000000
 -0.125000  0.375000  0.000000      4.000000
  0.500000  0.250000  0.000000      2.000000
  0.250000  0.500000  0.000000      4.000000
 -0.375000  0.250000  0.000000      4.000000
 -0.250000  0.375000  0.000000      2.000000
 
 Following cartesian coordinates:
            Coordinates               Weight
  0.000000  0.000000  0.000000      1.000000
  0.016241 -0.009376  0.000000      4.000000
  0.000000  0.018753  0.000000      2.000000
  0.032481 -0.018753  0.000000      4.000000
  0.000000  0.037506  0.000000      2.000000
  0.048722 -0.028129  0.000000      4.000000
  0.000000  0.056259  0.000000      2.000000
  0.064962 -0.037506  0.000000      2.000000
  0.000000  0.075012  0.000000      1.000000
  0.032481  0.000000  0.000000      2.000000
  0.016241  0.028129  0.000000      4.000000
  0.048722 -0.009376  0.000000      4.000000
  0.032481  0.037506  0.000000      4.000000
 -0.016241  0.046882  0.000000      4.000000
  0.064962 -0.018753  0.000000      4.000000
  0.048722  0.046882  0.000000      4.000000
 -0.016241  0.065635  0.000000      4.000000
  0.064962  0.000000  0.000000      2.000000
  0.032481  0.056259  0.000000      4.000000
 -0.048722  0.065635  0.000000      4.000000
 -0.032481  0.075012  0.000000      2.000000
 


--------------------------------------------------------------------------------------------------------




 Dimension of arrays:
   k-points           NKPTS =     21   k-points in BZ     NKDIM =     21   number of bands    NBANDS=    252
   number of dos      NEDOS =    301   number of ions     NIONS =     38
   non local maximal  LDIM  =      6   non local SUM 2l+1 LMDIM =     18
   total plane-waves  NPLWV = 211680
   max r-space proj   IRMAX =   2893   max aug-charges    IRDMAX=  10101
   dimension x,y,z NGX =    42 NGY =   42 NGZ =  120
   dimension x,y,z NGXF=    84 NGYF=   84 NGZF=  240
   support grid    NGXF=    84 NGYF=   84 NGZF=  240
   ions per type =              35   1   2
   NGX,Y,Z   is equivalent  to a cutoff of   9.07,  9.07,  9.37 a.u.
   NGXF,Y,Z  is equivalent  to a cutoff of  18.14, 18.14, 18.75 a.u.

 SYSTEM =  unknown system                          
 POSCAR =  Cu-Cr-N2                                

 Startparameter for this run:
   NWRITE =      2    write-flag & timer
   PREC   = normal    normal or accurate (medium, high low for compatibility)
   ISTART =      0    job   : 0-new  1-cont  2-samecut
   ICHARG =     11    charge: 1-file 2-atom 10-const
   ISPIN  =      1    spin polarized calculation?
   LNONCOLLINEAR =      F non collinear calculations
   LSORBIT =      F    spin-orbit coupling
   INIWAV =      1    electr: 0-lowe 1-rand  2-diag
   LASPH  =      F    aspherical Exc in radial PAW
   METAGGA=      F    non-selfconsistent MetaGGA calc.

 Electronic Relaxation 1
   ENCUT  =  500.0 eV  36.75 Ry    6.06 a.u.  14.03 14.03 38.81*2*pi/ulx,y,z
   ENINI  =  500.0     initial cutoff
   ENAUG  =  627.1 eV  augmentation charge cutoff
   NELM   =    150;   NELMIN=  2; NELMDL= -5     # of ELM steps 
   EDIFF  = 0.1E-04   stopping-criterion for ELM
   LREAL  =      T    real-space projection
   NLSPLINE    = F    spline interpolate recip. space projectors
   LCOMPAT=      F    compatible to vasp.4.4
   GGA_COMPAT  = T    GGA compatible to vasp.4.4-vasp.4.6
   LMAXPAW     = -100 max onsite density
   LMAXMIX     =    2 max onsite mixed and CHGCAR
   VOSKOWN=      0    Vosko Wilk Nusair interpolation
   ROPT   =   -0.00050  -0.00050  -0.00050
 Ionic relaxation
   EDIFFG = -.1E-01   stopping-criterion for IOM
   NSW    =      0    number of steps for IOM
   NBLOCK =      1;   KBLOCK =      1    inner block; outer block 
   IBRION =     -1    ionic relax: 0-MD 1-quasi-New 2-CG
   NFREE  =      1    steps in history (QN), initial steepest desc. (CG)
   ISIF   =      2    stress and relaxation
   IWAVPR =     10    prediction:  0-non 1-charg 2-wave 3-comb
   ISYM   =      2    0-nonsym 1-usesym 2-fastsym
   LCORR  =      T    Harris-Foulkes like correction to forces

   POTIM  = 0.5000    time-step for ionic-motion
   TEIN   =    0.0    initial temperature
   TEBEG  =    0.0;   TEEND  =   0.0 temperature during run
   SMASS  =  -3.00    Nose mass-parameter (am)
   estimated Nose-frequenzy (Omega)   =  0.10E-29 period in steps = 0.13E+47 mass=  -0.135E-26a.u.
   SCALEE = 1.0000    scale energy and forces
   NPACO  =    256;   APACO  = 16.0  distance and # of slots for P.C.
   PSTRESS=    0.0 pullay stress

  Mass of Ions in am
   POMASS =  63.55 52.00 14.00
  Ionic Valenz
   ZVAL   =  11.00  6.00  5.00
  Atomic Wigner-Seitz radii
   RWIGS  =  -1.00 -1.00 -1.00
  virtual crystal weights 
   VCA    =   1.00  1.00  1.00
   NELECT =     401.0000    total number of electrons
   NUPDOWN=      -1.0000    fix difference up-down

 DOS related values:
   EMIN   =  10.00;   EMAX   =-10.00  energy-range for DOS
   EFERMI =   0.00
   ISMEAR =    -5;   SIGMA  =   0.10  broadening in eV -4-tet -1-fermi 0-gaus

 Electronic relaxation 2 (details)
   IALGO  =     68    algorithm
   LDIAG  =      T    sub-space diagonalisation (order eigenvalues)
   LSUBROT=      F    optimize rotation matrix (better conditioning)
   TURBO    =      0    0=normal 1=particle mesh
   IRESTART =      0    0=no restart 2=restart with 2 vectors
   NREBOOT  =      0    no. of reboots
   NMIN     =      0    reboot dimension
   EREF     =   0.00    reference energy to select bands
   IMIX   =      4    mixing-type and parameters
     AMIX     =   0.40;   BMIX     =  1.00
     AMIX_MAG =   1.60;   BMIX_MAG =  1.00
     AMIN     =   0.10
     WC   =   100.;   INIMIX=   1;  MIXPRE=   1;  MAXMIX= -45

 Intra band minimization:
   WEIMIN = 0.0000     energy-eigenvalue tresh-hold
   EBREAK =  0.99E-08  absolut break condition
   DEPER  =   0.30     relativ break condition  

   TIME   =   0.40     timestep for ELM

  volume/ion in A,a.u.               =      28.74       193.92
  Fermi-wavevector in a.u.,A,eV,Ry     =   1.172337  2.215397 18.699510  1.374375
  Thomas-Fermi vector in A             =   2.308768
 
 Write flags
   LWAVE        =      F    write WAVECAR
   LDOWNSAMPLE  =      F    k-point downsampling of WAVECAR
   LCHARG       =      F    write CHGCAR
   LVTOT        =      F    write LOCPOT, total local potential
   LVHAR        =      F    write LOCPOT, Hartree potential only
   LELF         =      F    write electronic localiz. function (ELF)
   LORBIT       =     10    0 simple, 1 ext, 2 COOP (PROOUT), +10 PAW based schemes


 Dipole corrections
   LMONO  =      F    monopole corrections only (constant potential shift)
   LDIPOL =      F    correct potential (dipole corrections)
   IDIPOL =      0    1-x, 2-y, 3-z, 4-all directions 
   EPSILON=  1.0000000 bulk dielectric constant

 Exchange correlation treatment:
   GGA     =    --    GGA type
   LEXCH   =     8    internal setting for exchange type
   VOSKOWN=      0    Vosko Wilk Nusair interpolation
   LHFCALC =     F    Hartree Fock is set to
   LHFONE  =     F    Hartree Fock one center treatment
   AEXX    =    0.0000 exact exchange contribution

 Linear response parameters
   LEPSILON=     F    determine dielectric tensor
   LRPA    =     F    only Hartree local field effects (RPA)
   LNABLA  =     F    use nabla operator in PAW spheres
   LVEL    =     F    velocity operator in full k-point grid
   LINTERFAST=   F  fast interpolation
   KINTER  =     0    interpolate to denser k-point grid
   CSHIFT  =0.1000    complex shift for real part using Kramers Kronig
   OMEGAMAX=  -1.0    maximum frequency
   DEG_THRESHOLD= 0.2000000E-02 threshold for treating states as degnerate
   RTIME   =   -0.100 relaxation time in fs
  (WPLASMAI=    0.000 imaginary part of plasma frequency in eV, 0.658/RTIME)
   DFIELD  = 0.0000000 0.0000000 0.0000000 field for delta impulse in time
 
 Orbital magnetization related:
   ORBITALMAG=     F  switch on orbital magnetization
   LCHIMAG   =     F  perturbation theory with respect to B field
   DQ        =  0.001000  dq finite difference perturbation B field
   LLRAUG    =     F  two centre corrections for induced B field



--------------------------------------------------------------------------------------------------------


 Static calculation
 charge density and potential remain constant during run
 non-spin polarized calculation
 RMM-DIIS sequential band-by-band and
  variant of blocked Davidson during initial phase
 perform sub-space diagonalisation
    before iterative eigenvector-optimisation
 no mixing
 using additional bands           51
 real space projection scheme for non local part
 use partial core corrections
 calculate Harris-corrections to forces 
   (improved forces if not selfconsistent)
 use gradient corrections 
 WARNING: stress and forces are not correct
  (second derivative of E(xc) not defined)
 use of overlap-Matrix (Vanderbilt PP)
 Fermi weights with tetrahedron method with Bloechl corrections


--------------------------------------------------------------------------------------------------------


  energy-cutoff  :      500.00
  volume of cell :     1091.97
      direct lattice vectors                 reciprocal lattice vectors
     7.696786404  0.000000000  0.000000000     0.129924354 -0.075011849  0.000000000
     3.848392758  6.665612809  0.000000000     0.000000000  0.150023716  0.000000000
     0.000000000  0.000000000 21.284399033     0.000000000  0.000000000  0.046982769

  length of vectors
     7.696786404  7.696786404 21.284399033     0.150023716  0.150023716  0.046982769


 
 k-points in units of 2pi/SCALE and weight: Automatic mesh                          
   0.00000000  0.00000000  0.00000000       0.016
   0.01624054 -0.00937648  0.00000000       0.062
   0.00000000  0.01875296  0.00000000       0.031
   0.03248109 -0.01875296  0.00000000       0.062
   0.00000000  0.03750593  0.00000000       0.031
   0.04872163 -0.02812944  0.00000000       0.062
   0.00000000  0.05625889  0.00000000       0.031
   0.06496218 -0.03750592  0.00000000       0.031
   0.00000000  0.07501186  0.00000000       0.016
   0.03248109  0.00000000  0.00000000       0.031
   0.01624054  0.02812945  0.00000000       0.062
   0.04872163 -0.00937648  0.00000000       0.062
   0.03248109  0.03750593  0.00000000       0.062
  -0.01624054  0.04688241  0.00000000       0.062
   0.06496218 -0.01875296  0.00000000       0.062
   0.04872163  0.04688241  0.00000000       0.062
  -0.01624054  0.06563537  0.00000000       0.062
   0.06496218  0.00000000  0.00000000       0.031
   0.03248109  0.05625890  0.00000000       0.062
  -0.04872163  0.06563537  0.00000000       0.062
  -0.03248109  0.07501186  0.00000000       0.031
 
 k-points in reciprocal lattice and weights: Automatic mesh                          
   0.00000000  0.00000000  0.00000000       0.016
   0.12500000 -0.00000000  0.00000000       0.062
   0.00000000  0.12500000  0.00000000       0.031
   0.25000000 -0.00000000  0.00000000       0.062
   0.00000000  0.25000000  0.00000000       0.031
   0.37500000 -0.00000000  0.00000000       0.062
   0.00000000  0.37500000  0.00000000       0.031
   0.50000000 -0.00000000  0.00000000       0.031
   0.00000000  0.50000000  0.00000000       0.016
   0.25000000  0.12500000  0.00000000       0.031
   0.12500000  0.25000000  0.00000000       0.062
   0.37500000  0.12500000  0.00000000       0.062
   0.25000000  0.37500000  0.00000000       0.062
  -0.12500000  0.25000000  0.00000000       0.062
   0.50000000  0.12500000  0.00000000       0.062
   0.37500000  0.50000000  0.00000000       0.062
  -0.12500000  0.37500000  0.00000000       0.062
   0.50000000  0.25000000  0.00000000       0.031
   0.25000000  0.50000000  0.00000000       0.062
  -0.37500000  0.25000000  0.00000000       0.062
  -0.25000000  0.37500000  0.00000000       0.031
 
 position of ions in fractional coordinates (direct lattice) 
   0.00000000  0.00000000  0.25237075
   0.33333334  0.00000000  0.25237075
   0.66666669  0.00000000  0.25237075
   0.00000000  0.33333334  0.25237075
   0.33333331  0.33333334  0.25237075
   0.66666669  0.33333334  0.25237075
   0.00000000  0.66666669  0.25237075
   0.33333337  0.66666669  0.25237075
   0.66666663  0.66666669  0.25237075
   0.11111112  0.11111111  0.35079026
   0.44444442  0.11111111  0.35079026
   0.77777779  0.11111111  0.35079026
   0.11111112  0.44444445  0.35079026
   0.44444448  0.44444445  0.35079026
   0.77777773  0.44444445  0.35079026
   0.11111111  0.77777773  0.35079026
   0.44444448  0.77777773  0.35079026
   0.77777785  0.77777773  0.35079026
   0.88889744  0.22220513  0.44876836
   0.22226558  0.22226557  0.44843290
   0.55546889  0.22226557  0.44843290
   0.88832889  0.55583552  0.44911874
   0.22226555  0.55546883  0.44843290
   0.55583558  0.55583552  0.44911874
   0.88889744  0.88889744  0.44876836
   0.22220515  0.88889744  0.44876836
   0.55583552  0.88832889  0.44911874
   0.00000000  0.00000000  0.54686768
   0.33321557  0.00207497  0.54736767
   0.66470949  0.00207497  0.54736767
   0.00207497  0.33321557  0.54736767
   0.66470949  0.33321557  0.54736767
   0.00207497  0.66470949  0.54736767
   0.33321560  0.66470949  0.54736767
   0.66666663  0.66666669  0.54711468
   0.33333331  0.33333334  0.54299850
   0.25676529  0.33423046  0.63851256
   0.40900422  0.33423046  0.63851256
 
 position of ions in cartesian coordinates  (Angst):
   0.00000000  0.00000000  5.37155964
   2.56559554  0.00000000  5.37155964
   5.13119109  0.00000000  5.37155964
   1.28279762  2.22187100  5.37155964
   3.84839293  2.22187100  5.37155964
   6.41398872  2.22187100  5.37155964
   2.56559525  4.44374201  5.37155964
   5.13119102  4.44374201  5.37155964
   7.69678588  4.44374201  5.37155964
   1.28279775  0.74062365  7.46635991
   3.84839295  0.74062365  7.46635991
   6.41398873  0.74062365  7.46635991
   2.56559535  2.96249461  7.46635991
   5.13119101  2.96249461  7.46635991
   7.69678586  2.96249461  7.46635991
   3.84839268  5.18436521  7.46635991
   6.41398840  5.18436521  7.46635991
   8.97958418  5.18436521  7.46635991
   7.69678637  1.48113338  9.55176490
   2.56609593  1.48153622  9.54462481
   5.13069063  1.48153622  9.54462481
   8.97635115  3.70498439  9.55922258
   3.84839272  3.70254017  9.54462481
   6.41722117  3.70498439  9.55922258
  10.26248022  5.92504617  9.55176490
   5.13109204  5.92504617  9.55176490
   7.69678578  5.92125645  9.55922258
   0.00000000  0.00000000 11.63974998
   2.57267437  0.01383093 11.65039194
   5.12411226  0.01383093 11.65039194
   1.29831497  2.22108598 11.65039194
   6.39847136  2.22108598 11.65039194
   2.57403377  4.43069610 11.65039194
   5.12275250  4.43069610 11.65039194
   7.69678588  4.44374201 11.64500721
   3.84839293  2.22187100 11.55739679
   3.26251766  2.22785086 13.59035622
   4.43426821  2.22785086 13.59035622
 


--------------------------------------------------------------------------------------------------------


 k-point   1 :   0.0000 0.0000 0.0000  plane waves:   27671
 k-point   2 :   0.1250-0.0000 0.0000  plane waves:   27649
 k-point   3 :   0.0000 0.1250 0.0000  plane waves:   27649
 k-point   4 :   0.2500-0.0000 0.0000  plane waves:   27714
 k-point   5 :   0.0000 0.2500 0.0000  plane waves:   27714
 k-point   6 :   0.3750-0.0000 0.0000  plane waves:   27740
 k-point   7 :   0.0000 0.3750 0.0000  plane waves:   27740
 k-point   8 :   0.5000-0.0000 0.0000  plane waves:   27782
 k-point   9 :   0.0000 0.5000 0.0000  plane waves:   27782
 k-point  10 :   0.2500 0.1250 0.0000  plane waves:   27698
 k-point  11 :   0.1250 0.2500 0.0000  plane waves:   27698
 k-point  12 :   0.3750 0.1250 0.0000  plane waves:   27702
 k-point  13 :   0.2500 0.3750 0.0000  plane waves:   27702
 k-point  14 :  -0.1250 0.2500 0.0000  plane waves:   27702
 k-point  15 :   0.5000 0.1250 0.0000  plane waves:   27747
 k-point  16 :   0.3750 0.5000 0.0000  plane waves:   27747
 k-point  17 :  -0.1250 0.3750 0.0000  plane waves:   27747
 k-point  18 :   0.5000 0.2500 0.0000  plane waves:   27734
 k-point  19 :   0.2500 0.5000 0.0000  plane waves:   27734
 k-point  20 :  -0.3750 0.2500 0.0000  plane waves:   27782
 k-point  21 :  -0.2500 0.3750 0.0000  plane waves:   27782

 maximum and minimum number of plane-waves per node :     27782    27649

 maximum number of plane-waves:     27782
 maximum index in each direction: 
   IXMAX=   14   IYMAX=   14   IZMAX=   38
   IXMIN=  -14   IYMIN=  -14   IZMIN=  -38


 serial   3D FFT for wavefunctions
 parallel 3D FFT for charge:
    minimum data exchange during FFTs selected (reduces bandwidth)


 total amount of memory used by VASP MPI-rank0   149776. kBytes
=======================================================================

   base      :      30000. kBytes
   nonlr-proj:      17769. kBytes
   fftplans  :       2916. kBytes
   grid      :      12390. kBytes
   one-center:        590. kBytes
   wavefun   :      86111. kBytes
 
     INWAV:  cpu time    0.0000: real time    0.0000
 initial charge density was supplied:
 number of electron     401.0000123 magnetization 
 keeping initial charge density in first step


--------------------------------------------------------------------------------------------------------


 Maximum index for non-local projection operator         2775
 Maximum index for augmentation-charges          504 (set IRDMAX)


--------------------------------------------------------------------------------------------------------


 First call to EWALD:  gamma=   0.172
 Maximum number of real-space cells 4x 4x 2
 Maximum number of reciprocal cells 2x 2x 5

    FEWALD:  cpu time    0.0015: real time    0.0016


--------------------------------------- Iteration      1(   1)  ---------------------------------------


    POTLOK:  cpu time    0.0267: real time    0.0271
    SETDIJ:  cpu time    0.0044: real time    0.0045
     EDDAV:  cpu time   11.9791: real time   11.9810
 BZINTS: Fermi energy:   13.741250;  401.000000 electrons
         Band energy: 0.264583E+04;  BLOECHL correction:   -0.041013
       DOS:  cpu time    0.0302: real time    0.0302
    --------------------------------------------
      LOOP:  cpu time   12.0404: real time   12.0428

 eigenvalue-minimisations  : 10584
 total energy-change (2. order) : 0.3632110E+04  (-0.1722934E+05)
 number of electron     401.0000123 magnetization 
 augmentation part      401.0000123 magnetization 

 Free energy of the ion-electron system (eV)
  ---------------------------------------------------
  alpha Z        PSCENC =       895.64038959
  Ewald energy   TEWEN  =    145425.57083152
  -Hartree energ DENC   =   -192652.06339498
  -exchange      EXHF   =         0.00000000
  -V(xc)+E(xc)   XCENC  =      1577.98769488
  PAW double counting   =     46957.86976108   -50708.85767439
  entropy T*S    EENTRO =         0.00000000
  eigenvalues    EBANDS =      2645.82859782
  atomic energy  EATOM  =     49490.13347510
  Solvation  Ediel_sol  =         0.00000000
  ---------------------------------------------------
  free energy    TOTEN  =      3632.10968061 eV

  energy without entropy =     3632.10968061  energy(sigma->0) =     3632.10968061


--------------------------------------------------------------------------------------------------------




--------------------------------------- Iteration      1(   2)  ---------------------------------------


     EDDAV:  cpu time   11.9604: real time   11.9607
 BZINTS: Fermi energy:    3.081871;  401.000000 electrons
         Band energy:-0.622424E+03;  BLOECHL correction:   -0.006509
       DOS:  cpu time    0.0311: real time    0.0311
    --------------------------------------------
      LOOP:  cpu time   11.9914: real time   11.9918

 eigenvalue-minimisations  : 10584
 total energy-change (2. order) :-0.3268253E+04  (-0.3144945E+04)
 number of electron     401.0000123 magnetization 
 augmentation part      401.0000123 magnetization 

 Free energy of the ion-electron system (eV)
  ---------------------------------------------------
  alpha Z        PSCENC =       895.64038959
  Ewald energy   TEWEN  =    145425.57083152
  -Hartree energ DENC   =   -192652.06339498
  -exchange      EXHF   =         0.00000000
  -V(xc)+E(xc)   XCENC  =      1577.98769488
  PAW double counting   =     46957.86976108   -50708.85767439
  entropy T*S    EENTRO =         0.00000000
  eigenvalues    EBANDS =      -622.42408866
  atomic energy  EATOM  =     49490.13347510
  Solvation  Ediel_sol  =         0.00000000
  ---------------------------------------------------
  free energy    TOTEN  =       363.85699413 eV

  energy without entropy =      363.85699413  energy(sigma->0) =      363.85699413


--------------------------------------------------------------------------------------------------------




--------------------------------------- Iteration      1(   3)  ---------------------------------------


     EDDAV:  cpu time   12.8965: real time   12.8967
 BZINTS: Fermi energy:    0.348248;  401.000000 electrons
         Band energy:-0.109650E+04;  BLOECHL correction:   -0.022337
       DOS:  cpu time    0.0295: real time    0.0295
    --------------------------------------------
      LOOP:  cpu time   12.9259: real time   12.9261

 eigenvalue-minimisations  : 11592
 total energy-change (2. order) :-0.4740756E+03  (-0.4426067E+03)
 number of electron     401.0000123 magnetization 
 augmentation part      401.0000123 magnetization 

 Free energy of the ion-electron system (eV)
  ---------------------------------------------------
  alpha Z        PSCENC =       895.64038959
  Ewald energy   TEWEN  =    145425.57083152
  -Hartree energ DENC   =   -192652.06339498
  -exchange      EXHF   =         0.00000000
  -V(xc)+E(xc)   XCENC  =      1577.98769488
  PAW double counting   =     46957.86976108   -50708.85767439
  entropy T*S    EENTRO =         0.00000000
  eigenvalues    EBANDS =     -1096.49971661
  atomic energy  EATOM  =     49490.13347510
  Solvation  Ediel_sol  =         0.00000000
  ---------------------------------------------------
  free energy    TOTEN  =      -110.21863381 eV

  energy without entropy =     -110.21863381  energy(sigma->0) =     -110.21863381


--------------------------------------------------------------------------------------------------------




--------------------------------------- Iteration      1(   4)  ---------------------------------------


     EDDAV:  cpu time   17.0317: real time   17.0318
 BZINTS: Fermi energy:    0.176171;  401.000000 electrons
         Band energy:-0.113168E+04;  BLOECHL correction:   -0.024046
       DOS:  cpu time    0.0309: real time    0.0309
    --------------------------------------------
      LOOP:  cpu time   17.0626: real time   17.0627

 eigenvalue-minimisations  : 16128
 total energy-change (2. order) :-0.3517925E+02  (-0.3445430E+02)
 number of electron     401.0000123 magnetization 
 augmentation part      401.0000123 magnetization 

 Free energy of the ion-electron system (eV)
  ---------------------------------------------------
  alpha Z        PSCENC =       895.64038959
  Ewald energy   TEWEN  =    145425.57083152
  -Hartree energ DENC   =   -192652.06339498
  -exchange      EXHF   =         0.00000000
  -V(xc)+E(xc)   XCENC  =      1577.98769488
  PAW double counting   =     46957.86976108   -50708.85767439
  entropy T*S    EENTRO =         0.00000000
  eigenvalues    EBANDS =     -1131.67897024
  atomic energy  EATOM  =     49490.13347510
  Solvation  Ediel_sol  =         0.00000000
  ---------------------------------------------------
  free energy    TOTEN  =      -145.39788744 eV

  energy without entropy =     -145.39788744  energy(sigma->0) =     -145.39788744


--------------------------------------------------------------------------------------------------------




--------------------------------------- Iteration      1(   5)  ---------------------------------------


     EDDAV:  cpu time   13.5357: real time   13.5360
 BZINTS: Fermi energy:    0.171772;  401.000000 electrons
         Band energy:-0.113236E+04;  BLOECHL correction:   -0.023520
       DOS:  cpu time    0.0303: real time    0.0303
    --------------------------------------------
      LOOP:  cpu time   13.5660: real time   13.5663

 eigenvalue-minimisations  : 12320
 total energy-change (2. order) :-0.6850842E+00  (-0.6840564E+00)
 number of electron     401.0000123 magnetization 
 augmentation part      401.0000123 magnetization 

 Free energy of the ion-electron system (eV)
  ---------------------------------------------------
  alpha Z        PSCENC =       895.64038959
  Ewald energy   TEWEN  =    145425.57083152
  -Hartree energ DENC   =   -192652.06339498
  -exchange      EXHF   =         0.00000000
  -V(xc)+E(xc)   XCENC  =      1577.98769488
  PAW double counting   =     46957.86976108   -50708.85767439
  entropy T*S    EENTRO =         0.00000000
  eigenvalues    EBANDS =     -1132.36405447
  atomic energy  EATOM  =     49490.13347510
  Solvation  Ediel_sol  =         0.00000000
  ---------------------------------------------------
  free energy    TOTEN  =      -146.08297167 eV

  energy without entropy =     -146.08297167  energy(sigma->0) =     -146.08297167


--------------------------------------------------------------------------------------------------------




--------------------------------------- Iteration      1(   6)  ---------------------------------------


    EDDIAG:  cpu time    2.2254: real time    2.2339
  RMM-DIIS:  cpu time    6.5429: real time    6.5429
    ORTHCH:  cpu time    0.4365: real time    0.4365
 BZINTS: Fermi energy:    0.171754;  401.000000 electrons
         Band energy:-0.113238E+04;  BLOECHL correction:   -0.023517
       DOS:  cpu time    0.0258: real time    0.0258
    --------------------------------------------
      LOOP:  cpu time    9.2306: real time    9.2391

 eigenvalue-minimisations  : 11378
 total energy-change (2. order) :-0.1211866E-01  (-0.1211986E-01)
 number of electron     401.0000123 magnetization 
 augmentation part      401.0000123 magnetization 

 Free energy of the ion-electron system (eV)
  ---------------------------------------------------
  alpha Z        PSCENC =       895.64038959
  Ewald energy   TEWEN  =    145425.57083152
  -Hartree energ DENC   =   -192652.06339498
  -exchange      EXHF   =         0.00000000
  -V(xc)+E(xc)   XCENC  =      1577.98769488
  PAW double counting   =     46957.86976108   -50708.85767439
  entropy T*S    EENTRO =         0.00000000
  eigenvalues    EBANDS =     -1132.37617313
  atomic energy  EATOM  =     49490.13347510
  Solvation  Ediel_sol  =         0.00000000
  ---------------------------------------------------
  free energy    TOTEN  =      -146.09509033 eV

  energy without entropy =     -146.09509033  energy(sigma->0) =     -146.09509033


--------------------------------------------------------------------------------------------------------




--------------------------------------- Iteration      1(   7)  ---------------------------------------


    EDDIAG:  cpu time    2.2256: real time    2.2257
  RMM-DIIS:  cpu time    9.0676: real time    9.0676
    ORTHCH:  cpu time    0.4365: real time    0.4365
 BZINTS: Fermi energy:    0.171748;  401.000000 electrons
         Band energy:-0.113238E+04;  BLOECHL correction:   -0.023516
       DOS:  cpu time    0.0290: real time    0.0290
    --------------------------------------------
      LOOP:  cpu time   11.7587: real time   11.7588

 eigenvalue-minimisations  : 16247
 total energy-change (2. order) :-0.5435828E-02  (-0.5261944E-02)
 number of electron     401.0000123 magnetization 
 augmentation part      401.0000123 magnetization 

 Free energy of the ion-electron system (eV)
  ---------------------------------------------------
  alpha Z        PSCENC =       895.64038959
  Ewald energy   TEWEN  =    145425.57083152
  -Hartree energ DENC   =   -192652.06339498
  -exchange      EXHF   =         0.00000000
  -V(xc)+E(xc)   XCENC  =      1577.98769488
  PAW double counting   =     46957.86976108   -50708.85767439
  entropy T*S    EENTRO =         0.00000000
  eigenvalues    EBANDS =     -1132.38160896
  atomic energy  EATOM  =     49490.13347510
  Solvation  Ediel_sol  =         0.00000000
  ---------------------------------------------------
  free energy    TOTEN  =      -146.10052616 eV

  energy without entropy =     -146.10052616  energy(sigma->0) =     -146.10052616


--------------------------------------------------------------------------------------------------------




--------------------------------------- Iteration      1(   8)  ---------------------------------------


    EDDIAG:  cpu time    2.2279: real time    2.2282
  RMM-DIIS:  cpu time    7.9307: real time    7.9307
    ORTHCH:  cpu time    0.4364: real time    0.4364
 BZINTS: Fermi energy:    0.171747;  401.000000 electrons
         Band energy:-0.113238E+04;  BLOECHL correction:   -0.023516
       DOS:  cpu time    0.0303: real time    0.0303
    --------------------------------------------
      LOOP:  cpu time   10.6252: real time   10.6255

 eigenvalue-minimisations  : 14228
 total energy-change (2. order) :-0.4122887E-03  (-0.4449007E-03)
 number of electron     401.0000123 magnetization 
 augmentation part      401.0000123 magnetization 

 Free energy of the ion-electron system (eV)
  ---------------------------------------------------
  alpha Z        PSCENC =       895.64038959
  Ewald energy   TEWEN  =    145425.57083152
  -Hartree energ DENC   =   -192652.06339498
  -exchange      EXHF   =         0.00000000
  -V(xc)+E(xc)   XCENC  =      1577.98769488
  PAW double counting   =     46957.86976108   -50708.85767439
  entropy T*S    EENTRO =         0.00000000
  eigenvalues    EBANDS =     -1132.38202125
  atomic energy  EATOM  =     49490.13347510
  Solvation  Ediel_sol  =         0.00000000
  ---------------------------------------------------
  free energy    TOTEN  =      -146.10093845 eV

  energy without entropy =     -146.10093845  energy(sigma->0) =     -146.10093845


--------------------------------------------------------------------------------------------------------




--------------------------------------- Iteration      1(   9)  ---------------------------------------


    EDDIAG:  cpu time    2.2249: real time    2.2251
  RMM-DIIS:  cpu time    8.9181: real time    8.9181
    ORTHCH:  cpu time    0.4365: real time    0.4366
 BZINTS: Fermi energy:    0.171747;  401.000000 electrons
         Band energy:-0.113238E+04;  BLOECHL correction:   -0.023516
       DOS:  cpu time    0.0304: real time    0.0304
    --------------------------------------------
      LOOP:  cpu time   11.6100: real time   11.6102

 eigenvalue-minimisations  : 15615
 total energy-change (2. order) :-0.7244549E-04  (-0.7179447E-04)
 number of electron     401.0000123 magnetization 
 augmentation part      401.0000123 magnetization 

 Free energy of the ion-electron system (eV)
  ---------------------------------------------------
  alpha Z        PSCENC =       895.64038959
  Ewald energy   TEWEN  =    145425.57083152
  -Hartree energ DENC   =   -192652.06339498
  -exchange      EXHF   =         0.00000000
  -V(xc)+E(xc)   XCENC  =      1577.98769488
  PAW double counting   =     46957.86976108   -50708.85767439
  entropy T*S    EENTRO =         0.00000000
  eigenvalues    EBANDS =     -1132.38209369
  atomic energy  EATOM  =     49490.13347510
  Solvation  Ediel_sol  =         0.00000000
  ---------------------------------------------------
  free energy    TOTEN  =      -146.10101089 eV

  energy without entropy =     -146.10101089  energy(sigma->0) =     -146.10101089


--------------------------------------------------------------------------------------------------------




--------------------------------------- Iteration      1(  10)  ---------------------------------------


    EDDIAG:  cpu time    2.2265: real time    2.2266
  RMM-DIIS:  cpu time    5.8047: real time    5.8047
    ORTHCH:  cpu time    0.4361: real time    0.4361
 BZINTS: Fermi energy:    0.171747;  401.000000 electrons
         Band energy:-0.113238E+04;  BLOECHL correction:   -0.023516
       DOS:  cpu time    0.0303: real time    0.0303
    --------------------------------------------
      LOOP:  cpu time    8.4977: real time    8.4978

 eigenvalue-minimisations  :  9275
 total energy-change (2. order) :-0.6314222E-05  (-0.6347606E-05)
 number of electron     401.0000123 magnetization 
 augmentation part      401.0000123 magnetization 

 Free energy of the ion-electron system (eV)
  ---------------------------------------------------
  alpha Z        PSCENC =       895.64038959
  Ewald energy   TEWEN  =    145425.57083152
  -Hartree energ DENC   =   -192652.06339498
  -exchange      EXHF   =         0.00000000
  -V(xc)+E(xc)   XCENC  =      1577.98769488
  PAW double counting   =     46957.86976108   -50708.85767439
  entropy T*S    EENTRO =         0.00000000
  eigenvalues    EBANDS =     -1132.38210001
  atomic energy  EATOM  =     49490.13347510
  Solvation  Ediel_sol  =         0.00000000
  ---------------------------------------------------
  free energy    TOTEN  =      -146.10101721 eV

  energy without entropy =     -146.10101721  energy(sigma->0) =     -146.10101721


--------------------------------------------------------------------------------------------------------




 average (electrostatic) potential at core
  the test charge radii are     0.9430  1.1394  0.7089
  (the norm of the test charge is              1.0000)
       1 -70.8145       2 -70.8032       3 -70.8031       4 -70.8013       5 -70.8190
       6 -70.8010       7 -70.7998       8 -70.7995       9 -70.8063      10 -71.0826
      11 -71.0468      12 -71.0826      13 -71.0465      14 -71.0462      15 -71.0682
      16 -71.0897      17 -71.0669      18 -71.0672      19 -71.0668      20 -71.2071
      21 -71.2073      22 -71.0512      23 -71.2004      24 -71.0509      25 -71.0437
      26 -71.0432      27 -71.0363      28 -70.8239      29 -70.8924      30 -70.8927
      31 -70.8907      32 -70.8906      33 -70.9029      34 -70.9026      35 -70.8137
      36 -48.6968      37 -70.7032      38 -70.7028
 
 
 
 E-fermi :   0.1717     XC(G=0):  -6.0077     alpha+bet : -5.4143

 Fermi energy:         0.1717471297

 k-point     1 :       0.0000    0.0000    0.0000
  band No.  band energies     occupation 
      1     -22.3977      2.00000
      2      -9.1888      2.00000
      3      -8.6468      2.00000
      4      -7.4876      2.00000
      5      -6.8702      2.00000
      6      -6.4443      2.00000
      7      -5.7491      2.00000
      8      -5.6506      2.00000
      9      -5.6487      2.00000
     10      -5.6321      2.00000
     11      -5.6243      2.00000
     12      -5.6235      2.00000
     13      -5.5493      2.00000
     14      -5.1626      2.00000
     15      -4.8746      2.00000
     16      -4.8690      2.00000
     17      -4.8677      2.00000
     18      -4.8623      2.00000
     19      -4.8612      2.00000
     20      -4.8125      2.00000
     21      -4.6721      2.00000
     22      -4.1941      2.00000
     23      -4.1838      2.00000
     24      -4.1759      2.00000
     25      -4.1681      2.00000
     26      -4.1659      2.00000
     27      -4.0665      2.00000
     28      -3.9084      2.00000
     29      -3.8934      2.00000
     30      -3.8902      2.00000
     31      -3.8718      2.00000
     32      -3.8703      2.00000
     33      -3.8582      2.00000
     34      -3.7162      2.00000
     35      -3.7158      2.00000
     36      -3.7105      2.00000
     37      -3.7086      2.00000
     38      -3.7024      2.00000
     39      -3.7008      2.00000
     40      -3.6684      2.00000
     41      -3.6547      2.00000
     42      -3.6529      2.00000
     43      -3.6502      2.00000
     44      -3.6493      2.00000
     45      -3.6183      2.00000
     46      -3.5826      2.00000
     47      -3.5815      2.00000
     48      -3.5561      2.00000
     49      -3.5552      2.00000
     50      -3.4476      2.00000
     51      -3.4438      2.00000
     52      -3.3817      2.00000
     53      -3.3673      2.00000
     54      -3.3661      2.00000
     55      -3.3562      2.00000
     56      -3.3528      2.00000
     57      -3.3425      2.00000
     58      -3.3161      2.00000
     59      -3.3142      2.00000
     60      -3.0279      2.00000
     61      -3.0277      2.00000
     62      -3.0275      2.00000
     63      -3.0245      2.00000
     64      -2.9998      2.00000
     65      -2.9974      2.00000
     66      -2.9252      2.00000
     67      -2.9233      2.00000
     68      -2.9158      2.00000
     69      -2.9083      2.00000
     70      -2.9076      2.00000
     71      -2.8870      2.00000
     72      -2.8864      2.00000
     73      -2.8695      2.00000
     74      -2.8694      2.00000
     75      -2.8586      2.00000
     76      -2.8515      2.00000
     77      -2.7901      2.00000
     78      -2.7831      2.00000
     79      -2.7829      2.00000
     80      -2.7279      2.00000
     81      -2.7277      2.00000
     82      -2.6872      2.00000
     83      -2.6864      2.00000
     84      -2.6773      2.00000
     85      -2.6674      2.00000
     86      -2.6672      2.00000
     87      -2.6549      2.00000
     88      -2.6119      2.00000
     89      -2.6100      2.00000
     90      -2.6085      2.00000
     91      -2.5926      2.00000
     92      -2.5882      2.00000
     93      -2.5703      2.00000
     94      -2.5703      2.00000
     95      -2.5647      2.00000
     96      -2.5479      2.00000
     97      -2.5411      2.00000
     98      -2.5233      2.00000
     99      -2.5202      2.00000
    100      -2.4957      2.00000
    101      -2.4918      2.00000
    102      -2.4918      2.00000
    103      -2.4651      2.00000
    104      -2.4623      2.00000
    105      -2.4408      2.00000
    106      -2.4402      2.00000
    107      -2.4274      2.00000
    108      -2.3876      2.00000
    109      -2.3766      2.00000
    110      -2.3648      2.00000
    111      -2.3633      2.00000
    112      -2.3358      2.00000
    113      -2.1966      2.00000
    114      -2.1944      2.00000
    115      -2.1808      2.00000
    116      -2.1793      2.00000
    117      -2.1751      2.00000
    118      -2.1727      2.00000
    119      -2.1674      2.00000
    120      -2.1502      2.00000
    121      -2.1489      2.00000
    122      -2.1308      2.00000
    123      -2.1307      2.00000
    124      -2.1301      2.00000
    125      -2.1163      2.00000
    126      -2.1083      2.00000
    127      -1.9969      2.00000
    128      -1.9965      2.00000
    129      -1.9793      2.00000
    130      -1.9719      2.00000
    131      -1.9712      2.00000
    132      -1.9692      2.00000
    133      -1.9623      2.00000
    134      -1.9303      2.00000
    135      -1.9298      2.00000
    136      -1.9183      2.00000
    137      -1.9078      2.00000
    138      -1.8865      2.00000
    139      -1.8661      2.00000
    140      -1.8637      2.00000
    141      -1.8575      2.00000
    142      -1.8486      2.00000
    143      -1.8482      2.00000
    144      -1.8279      2.00000
    145      -1.7983      2.00000
    146      -1.7958      2.00000
    147      -1.7453      2.00000
    148      -1.7434      2.00000
    149      -1.7259      2.00000
    150      -1.7249      2.00000
    151      -1.7151      2.00000
    152      -1.7126      2.00000
    153      -1.7075      2.00000
    154      -1.7060      2.00000
    155      -1.6941      2.00000
    156      -1.6817      2.00000
    157      -1.6804      2.00000
    158      -1.6653      2.00000
    159      -1.6485      2.00000
    160      -1.6167      2.00000
    161      -1.6063      2.00000
    162      -1.5986      2.00000
    163      -1.5956      2.00000
    164      -1.5838      2.00000
    165      -1.5828      2.00000
    166      -1.5756      2.00000
    167      -1.5725      2.00000
    168      -1.5710      2.00000
    169      -1.5686      2.00000
    170      -1.5611      2.00000
    171      -1.5502      2.00000
    172      -1.5501      2.00000
    173      -1.5398      2.00000
    174      -1.5363      2.00000
    175      -1.5192      2.00000
    176      -1.5150      2.00000
    177      -1.5107      2.00000
    178      -1.5046      2.00000
    179      -1.5045      2.00000
    180      -1.5005      2.00000
    181      -1.4995      2.00000
    182      -1.4991      2.00000
    183      -1.4945      2.00000
    184      -1.4891      2.00000
    185      -1.4884      2.00000
    186      -1.4859      2.00000
    187      -1.4683      2.00000
    188      -1.4387      2.00000
    189      -1.4360      2.00000
    190      -1.3937      2.00000
    191      -1.3924      2.00000
    192      -1.3868      2.00000
    193      -1.3768      2.00000
    194      -1.3757      2.00000
    195      -1.3744      2.00000
    196      -0.7980      2.00000
    197      -0.4232      2.00000
    198      -0.4161      2.00000
    199      -0.2759      2.00000
    200      -0.2270      2.00000
    201      -0.1697      2.00000
    202      -0.1345      2.00000
    203       0.0390      2.82580
    204       0.1617      0.18434
    205       0.2469      0.00000
    206       0.2958      0.00000
    207       0.3583      0.00000
    208       1.1657      0.00000
    209       1.8380      0.00000
    210       2.1479      0.00000
    211       2.1571      0.00000
    212       2.3999      0.00000
    213       2.4327      0.00000
    214       2.6768      0.00000
    215       3.0621      0.00000
    216       3.4225      0.00000
    217       3.5625      0.00000
    218       3.6641      0.00000
    219       3.8350      0.00000
    220       3.8456      0.00000
    221       3.9253      0.00000
    222       4.0830      0.00000
    223       4.5570      0.00000
    224       4.6441      0.00000
    225       4.6491      0.00000
    226       4.6631      0.00000
    227       4.6768      0.00000
    228       4.7603      0.00000
    229       4.8314      0.00000
    230       4.8466      0.00000
    231       4.8936      0.00000
    232       4.8970      0.00000
    233       5.1865      0.00000
    234       5.3221      0.00000
    235       5.5272      0.00000
    236       5.6201      0.00000
    237       6.0652      0.00000
    238       6.2977      0.00000
    239       6.4685      0.00000
    240       6.4841      0.00000
    241       6.6169      0.00000
    242       6.7523      0.00000
    243       6.9606      0.00000
    244       6.9981      0.00000
    245       7.0564      0.00000
    246       7.0954      0.00000
    247       7.1709      0.00000
    248       7.2770      0.00000
    249       7.5650      0.00000
    250       7.5957      0.00000
    251       7.6254      0.00000
    252       7.6941      0.00000

 k-point     2 :       0.1250   -0.0000    0.0000
  band No.  band energies     occupation 
      1     -22.3977      2.00000
      2      -9.1903      2.00000
      3      -8.5913      2.00000
      4      -7.4460      2.00000
      5      -6.8638      2.00000
      6      -6.4481      2.00000
      7      -6.1891      2.00000
      8      -5.8795      2.00000
      9      -5.8646      2.00000
     10      -5.6684      2.00000
     11      -5.3507      2.00000
     12      -5.3307      2.00000
     13      -5.1967      2.00000
     14      -5.1602      2.00000
     15      -5.1333      2.00000
     16      -4.9859      2.00000
     17      -4.9400      2.00000
     18      -4.7685      2.00000
     19      -4.7052      2.00000
     20      -4.6581      2.00000
     21      -4.6104      2.00000
     22      -4.2234      2.00000
     23      -4.1782      2.00000
     24      -4.1643      2.00000
     25      -4.1573      2.00000
     26      -4.1483      2.00000
     27      -4.0575      2.00000
     28      -3.9498      2.00000
     29      -3.9053      2.00000
     30      -3.9004      2.00000
     31      -3.8519      2.00000
     32      -3.8410      2.00000
     33      -3.8298      2.00000
     34      -3.8228      2.00000
     35      -3.8184      2.00000
     36      -3.7834      2.00000
     37      -3.7790      2.00000
     38      -3.7357      2.00000
     39      -3.6849      2.00000
     40      -3.6789      2.00000
     41      -3.6695      2.00000
     42      -3.6634      2.00000
     43      -3.5967      2.00000
     44      -3.5884      2.00000
     45      -3.5788      2.00000
     46      -3.5709      2.00000
     47      -3.5649      2.00000
     48      -3.5024      2.00000
     49      -3.5005      2.00000
     50      -3.4576      2.00000
     51      -3.4537      2.00000
     52      -3.4484      2.00000
     53      -3.4041      2.00000
     54      -3.3954      2.00000
     55      -3.3158      2.00000
     56      -3.3080      2.00000
     57      -3.2943      2.00000
     58      -3.2925      2.00000
     59      -3.2686      2.00000
     60      -3.1132      2.00000
     61      -3.0851      2.00000
[...]
  0.000   0.000   0.000   0.000   0.000   0.000   0.000   0.000   0.000   0.000   0.000   0.000   0.000   0.000   0.000   0.000
  0.000   0.000   0.000   0.000   0.000   0.000   0.000   0.000   0.000   0.000   0.000   0.000   0.000   0.000   0.000   0.000
  0.000   0.000   0.000   0.000   0.000   0.000   0.000   0.000   0.000   0.000   1.000   0.000   0.000   0.000   0.000   0.000
  0.000   0.000   0.000   0.000   0.000   0.000   0.000   0.000   0.000   0.000   0.000   0.000   0.000   0.000   0.000   0.000
  0.000   0.000   0.000   0.000   0.000   0.000   0.000   0.000   0.000   0.000   0.000   0.000   0.000   0.000   0.000   0.000
  0.000   0.000   0.000   0.000   0.000   0.000   0.000   0.000   0.000   0.000   0.000   0.000   0.000   0.000   0.000   0.000
  0.000   0.000   0.000   0.000   0.000   0.000   0.000   0.000   0.000   0.000   0.000   0.000   0.000   0.000   0.000   0.000
  0.000   0.000   0.000   0.000   0.000   0.000   0.000   0.000   0.000   0.000   0.000   0.000   0.000   0.000   0.000   0.000
  0.000   0.000   0.000   0.000   0.000   0.000   0.000   0.000   0.000   0.000   0.000   0.000   0.000   0.000   0.000   0.000
  0.000   0.000   0.000   0.000   0.000   0.000   0.000   0.000   0.000   0.000   0.000   0.000   0.000   0.000   0.000   0.000


------------------------ aborting loop because EDIFF is reached ----------------------------------------





 total charge

# of ion       s       p       d       tot
------------------------------------------
    1        0.450   0.283   9.189   9.922
    2        0.448   0.286   9.185   9.920
    3        0.448   0.286   9.185   9.920
    4        0.449   0.285   9.187   9.921
    5        0.449   0.285   9.183   9.917
    6        0.449   0.285   9.187   9.921
    7        0.448   0.285   9.187   9.920
    8        0.448   0.285   9.187   9.920
    9        0.447   0.284   9.189   9.920
   10        0.442   0.372   9.178   9.992
   11        0.443   0.367   9.185   9.994
   12        0.442   0.372   9.178   9.992
   13        0.442   0.367   9.184   9.993
   14        0.442   0.367   9.184   9.993
   15        0.439   0.370   9.178   9.987
   16        0.445   0.371   9.175   9.991
   17        0.438   0.371   9.179   9.988
   18        0.438   0.371   9.179   9.988
   19        0.438   0.369   9.181   9.988
   20        0.461   0.397   9.158  10.016
   21        0.461   0.397   9.158  10.016
   22        0.432   0.375   9.180   9.987
   23        0.464   0.393   9.163  10.020
   24        0.432   0.375   9.180   9.987
   25        0.443   0.366   9.184   9.993
   26        0.443   0.366   9.184   9.993
   27        0.434   0.373   9.182   9.989
   28        0.448   0.285   9.186   9.919
   29        0.464   0.301   9.176   9.940
   30        0.464   0.301   9.176   9.940
   31        0.458   0.293   9.181   9.932
   32        0.458   0.293   9.181   9.932
   33        0.463   0.299   9.177   9.940
   34        0.463   0.299   9.177   9.940
   35        0.442   0.290   9.185   9.917
   36        0.444   0.524   4.380   5.348
   37        1.345   2.443   0.000   3.788
   38        1.345   2.443   0.000   3.788
--------------------------------------------------
tot         18.810  17.070 325.690 361.569
 
    CHARGE:  cpu time    0.4198: real time    0.4200
    FORLOC:  cpu time    0.0075: real time    0.0075
    FORNL :  cpu time    2.4178: real time    2.4179
    STRESS:  cpu time    7.2195: real time    7.2196
    FORCOR:  cpu time    0.0282: real time    0.0282
    FORHAR:  cpu time    0.0115: real time    0.0115
    OFIELD:  cpu time    0.0001: real time    0.0001

  FORCE on cell =-STRESS in cart. coord.  units (eV):
  Direction    XX          YY          ZZ          XY          YZ          ZX
  --------------------------------------------------------------------------------------
  Alpha Z   895.64039   895.64039   895.64039
  Ewald  171413.13413171110.77297************     0.00040    -0.38663     0.00018
  Hartree184399.67186184291.24476************     0.00005    -0.12344     0.00007
  E(xc)   -2314.38023 -2315.23440 -2319.31145    -0.00026     0.08706    -0.00004
  Local  ************************368578.61383     0.02010     0.86494    -0.00075
  n-local  -789.87623  -777.68720  -795.95895     1.66414     0.16254     0.04537
  augment  3337.83027  3335.93644  3356.88135    -0.01832    -0.33412     0.00028
  Kinetic  3360.11350  3371.08823  3400.18933     0.96840    -0.39884    -0.15565
  Fock        0.00000     0.00000     0.00000     0.00000     0.00000     0.00000
  -------------------------------------------------------------------------------------
  Total      -4.47350    -4.62402     1.74401     0.00000    -0.12849     0.00000
  in kB      -6.56368    -6.78452     2.55888     0.00000    -0.18853     0.00000
  external pressure =       -3.60 kB  Pullay stress =        0.00 kB


 VOLUME and BASIS-vectors are now :
 -----------------------------------------------------------------------------
  energy-cutoff  :      500.00
  volume of cell :     1091.97
      direct lattice vectors                 reciprocal lattice vectors
     7.696786404  0.000000000  0.000000000     0.129924354 -0.075011849  0.000000000
     3.848392758  6.665612809  0.000000000     0.000000000  0.150023716  0.000000000
     0.000000000  0.000000000 21.284399033     0.000000000  0.000000000  0.046982769

  length of vectors
     7.696786404  7.696786404 21.284399033     0.150023716  0.150023716  0.046982769


 FORCES acting on ions
    electron-ion (+dipol)            ewald-force                    non-local-force                 convergence-correction
 -----------------------------------------------------------------------------------------------
   -.408E-04 0.206E-02 0.349E+04   0.580E-04 -.157E-01 -.349E+04   -.210E-08 0.316E-01 -.256E+01   -.156E-03 -.195E-01 -.281E+00
   -.530E+00 -.192E+00 0.349E+04   0.253E+00 0.139E+00 -.349E+04   0.173E+00 0.859E-01 -.184E+01   0.988E-01 -.281E-01 -.267E+00
   0.530E+00 -.192E+00 0.349E+04   -.253E+00 0.139E+00 -.349E+04   -.173E+00 0.859E-01 -.184E+01   -.982E-01 -.256E-01 -.267E+00
   -.286E+00 -.220E+00 0.349E+04   0.260E+00 0.140E+00 -.349E+04   0.698E-01 -.110E-01 -.191E+01   -.167E-01 0.842E-01 -.246E+00
   -.624E-04 -.133E+00 0.349E+04   0.116E-03 -.140E-02 -.349E+04   -.351E-08 0.527E-01 -.170E+01   0.121E-01 0.807E-01 -.160E+00
   0.286E+00 -.220E+00 0.349E+04   -.260E+00 0.140E+00 -.349E+04   -.698E-01 -.110E-01 -.191E+01   0.152E-01 0.856E-01 -.245E+00
   -.241E+00 0.447E+00 0.349E+04   0.824E-02 -.279E+00 -.349E+04   0.171E+00 -.110E+00 -.183E+01   0.586E-01 -.578E-01 -.264E+00
   0.241E+00 0.447E+00 0.349E+04   -.851E-02 -.279E+00 -.349E+04   -.171E+00 -.110E+00 -.183E+01   -.550E-01 -.591E-01 -.264E+00
   -.143E-03 0.840E-01 0.349E+04   0.263E-03 0.171E-01 -.349E+04   0.256E-08 -.384E-01 -.224E+01   -.133E-01 -.626E-01 -.233E+00
   -.109E+01 -.580E+00 0.119E+04   0.154E+01 0.755E+00 -.119E+04   -.483E+00 -.222E+00 -.103E+01   0.282E-01 0.595E-01 0.185E+00
   -.905E-04 -.155E+01 0.119E+04   0.189E-03 0.107E+01 -.119E+04   -.189E-07 0.284E+00 -.337E+00   0.108E-01 0.132E+00 0.231E+00
   0.109E+01 -.580E+00 0.119E+04   -.154E+01 0.755E+00 -.119E+04   0.483E+00 -.222E+00 -.103E+01   -.288E-01 0.608E-01 0.182E+00
   -.150E+01 0.821E+00 0.119E+04   0.105E+01 -.520E+00 -.119E+04   0.330E+00 -.230E+00 -.470E+00   0.949E-01 -.502E-01 0.194E+00
   0.150E+01 0.821E+00 0.119E+04   -.105E+01 -.520E+00 -.119E+04   -.330E+00 -.230E+00 -.470E+00   -.712E-01 -.504E-01 0.192E+00
   -.143E-03 -.930E+00 0.119E+04   0.298E-03 0.572E+00 -.119E+04   -.120E-07 0.180E+00 -.943E+00   -.299E-02 0.158E+00 0.245E+00
   -.921E-04 0.123E+01 0.119E+04   0.186E-03 -.173E+01 -.119E+04   -.387E-07 0.582E+00 -.901E+00   -.880E-04 -.778E-01 0.118E+00
   -.582E+00 0.389E+00 0.119E+04   0.430E+00 -.191E+00 -.119E+04   0.873E-01 -.880E-01 -.837E+00   0.486E-01 -.106E+00 0.158E+00
   0.582E+00 0.389E+00 0.119E+04   -.430E+00 -.191E+00 -.119E+04   -.873E-01 -.880E-01 -.837E+00   -.482E-01 -.104E+00 0.157E+00
   -.630E-04 -.316E+01 -.111E+04   0.697E-04 0.287E+01 0.111E+04   -.888E-08 0.133E+00 0.129E+01   0.134E-01 0.158E+00 0.708E+00
   -.283E+02 -.157E+02 -.114E+04   0.293E+02 0.161E+02 0.114E+04   -.132E+01 -.582E+00 -.733E+00   0.292E+00 0.247E+00 0.102E+01
   0.283E+02 -.157E+02 -.114E+04   -.293E+02 0.161E+02 0.114E+04   0.132E+01 -.582E+00 -.733E+00   -.314E+00 0.250E+00 0.102E+01
   -.132E+02 0.705E+01 -.112E+04   0.128E+02 -.653E+01 0.112E+04   0.407E+00 -.361E+00 0.831E+00   0.382E-01 -.197E+00 0.548E+00
   -.806E-04 0.316E+02 -.114E+04   0.147E-03 -.327E+02 0.114E+04   -.107E-06 0.161E+01 -.939E+00   -.104E-01 -.475E+00 0.891E+00
   0.132E+02 0.705E+01 -.112E+04   -.128E+02 -.653E+01 0.112E+04   -.407E+00 -.361E+00 0.831E+00   -.596E-01 -.193E+00 0.548E+00
   0.311E+01 0.198E+01 -.112E+04   -.298E+01 -.202E+01 0.111E+04   -.561E-01 0.185E-01 0.109E+01   -.486E-01 0.234E-01 0.568E+00
   -.311E+01 0.198E+01 -.112E+04   0.298E+01 -.202E+01 0.111E+04   0.561E-01 0.185E-01 0.109E+01   0.740E-01 0.245E-01 0.568E+00
   -.123E-03 -.155E+02 -.112E+04   0.241E-03 0.148E+02 0.112E+04   -.423E-07 0.635E+00 0.808E+00   -.146E-01 0.160E+00 0.506E+00
   -.332E-04 0.332E+01 -.338E+04   0.350E-04 -.379E+01 0.338E+04   -.127E-07 0.191E+00 0.199E+01   0.789E-03 0.245E+00 0.542E+00
   -.548E+01 -.306E+01 -.335E+04   0.572E+01 0.248E+01 0.335E+04   -.595E+00 -.234E+00 0.217E+01   0.230E+00 0.618E+00 0.524E+00
   0.548E+01 -.306E+01 -.335E+04   -.572E+01 0.248E+01 0.335E+04   0.595E+00 -.234E+00 0.217E+01   -.230E+00 0.620E+00 0.526E+00
   -.117E+01 0.132E+01 -.334E+04   0.694E+00 -.121E+01 0.334E+04   -.205E+00 -.123E+00 0.351E+01   0.515E+00 0.162E-01 0.565E+00
   0.117E+01 0.132E+01 -.334E+04   -.694E+00 -.121E+01 0.334E+04   0.205E+00 -.123E+00 0.351E+01   -.516E+00 0.183E-01 0.567E+00
   -.715E+01 0.149E+01 -.335E+04   0.697E+01 -.104E+01 0.335E+04   -.231E+00 0.408E+00 0.233E+01   0.284E+00 -.646E+00 0.594E+00
   0.715E+01 0.149E+01 -.335E+04   -.697E+01 -.104E+01 0.335E+04   0.231E+00 0.408E+00 0.233E+01   -.280E+00 -.646E+00 0.593E+00
   -.132E-03 -.372E+01 -.339E+04   0.255E-03 0.408E+01 0.339E+04   0.397E-08 -.597E-01 0.232E+01   -.134E-01 -.247E+00 0.555E+00
   -.478E-04 0.331E+00 -.167E+04   0.773E-04 -.494E+00 0.167E+04   0.304E-09 -.456E-02 0.280E+01   0.120E-02 0.240E-01 0.382E+00
   0.203E+03 0.143E+00 -.173E+04   -.243E+03 -.124E+00 0.174E+04   0.401E+02 -.475E-01 -.915E+01   0.178E+00 0.296E-01 -.292E+00
   -.203E+03 0.143E+00 -.173E+04   0.243E+03 -.125E+00 0.174E+04   -.401E+02 -.475E-01 -.915E+01   -.176E+00 0.296E-01 -.292E+00
 -----------------------------------------------------------------------------------------------
   -.137E-03 -.684E+00 0.607E+01   0.199E-12 0.321E-12 0.341E-11   -.402E-07 0.604E+00 -.161E+02   -.356E-02 0.785E-01 0.101E+02
 
 
 POSITION                                       TOTAL-FORCE (eV/Angst)
 -----------------------------------------------------------------------------------
      0.00000      0.00000      5.37156         0.000000     -0.001551     -0.015320
      2.56560      0.00000      5.37156        -0.006641      0.006681      0.071567
      5.13119      0.00000      5.37156         0.006641      0.006681      0.071567
      1.28280      2.22187      5.37156         0.028526     -0.006446      0.055172
      3.84839      2.22187      5.37156         0.000000     -0.001018      0.024185
      6.41399      2.22187      5.37156        -0.028526     -0.006446      0.055172
      2.56560      4.44374      5.37156        -0.004648      0.000199      0.071995
      5.13119      4.44374      5.37156         0.004648      0.000199      0.071995
      7.69679      4.44374      5.37156        -0.000000      0.000121      0.020110
      1.28280      0.74062      7.46636        -0.006381      0.013418     -0.071250
      3.84839      0.74062      7.46636         0.000000     -0.063083     -0.068601
      6.41399      0.74062      7.46636         0.006381      0.013418     -0.071250
      2.56560      2.96249      7.46636        -0.040889      0.020590     -0.073042
      5.13119      2.96249      7.46636         0.040889      0.020590     -0.073042
      7.69679      2.96249      7.46636         0.000000     -0.020364     -0.019420
      3.84839      5.18437      7.46636        -0.000000      0.004618     -0.060404
      6.41399      5.18437      7.46636        -0.016816      0.005040      0.005167
      8.97958      5.18437      7.46636         0.016816      0.005040      0.005167
      7.69679      1.48113      9.55176         0.000000     -0.003067      0.065250
      2.56610      1.48154      9.54462        -0.039812      0.004977     -0.095704
      5.13069      1.48154      9.54462         0.039812      0.004977     -0.095704
      8.97635      3.70498      9.55922         0.058845     -0.035968      0.024286
      3.84839      3.70254      9.54462        -0.000000      0.075455     -0.121159
      6.41722      3.70498      9.55922        -0.058845     -0.035968      0.024286
     10.26248      5.92505      9.55176         0.007044      0.002689      0.016373
      5.13109      5.92505      9.55176        -0.007044      0.002689      0.016373
      7.69679      5.92126      9.55922        -0.000000      0.070125      0.005463
      0.00000      0.00000     11.63975         0.000000     -0.040134     -0.042772
      2.57267      0.01383     11.65039        -0.124851     -0.198621     -0.200285
      5.12411      0.01383     11.65039         0.124851     -0.198621     -0.200285
      1.29831      2.22109     11.65039        -0.170726      0.009241     -0.082948
      6.39847      2.22109     11.65039         0.170726      0.009241     -0.082948
      2.57403      4.43070     11.65039        -0.136014      0.212889     -0.232003
      5.12275      4.43070     11.65039         0.136014      0.212889     -0.232003
      7.69679      4.44374     11.64501        -0.000000      0.050740     -0.020444
      3.84839      2.22187     11.55740         0.000000     -0.142805      1.309685
      3.26252      2.22785     13.59036        -0.005426      0.000793     -0.027614
      4.43427      2.22785     13.59036         0.005426      0.000793     -0.027614
 -----------------------------------------------------------------------------------
    total drift:                               -0.003699     -0.001227     -0.004768


--------------------------------------------------------------------------------------------------------



  FREE ENERGIE OF THE ION-ELECTRON SYSTEM (eV)
  ---------------------------------------------------
  free  energy   TOTEN  =      -146.10101721 eV

  energy  without entropy=     -146.10101721  energy(sigma->0) =     -146.10101721
 


--------------------------------------------------------------------------------------------------------


    POTLOK:  cpu time    0.0288: real time    0.0289


--------------------------------------------------------------------------------------------------------


 stress matrix after NEB project (eV)
     -4.47350      0.00000      0.00000
      0.00000     -4.62402     -0.12849
      0.00000     -0.12849      1.74401
  FORCES: max atom, RMS     0.028153    0.006459
  FORCE total and by dimension    0.039815    0.027614
  Stress total and by dimension    6.668461    4.624017
     LOOP+:  cpu time  129.5265: real time  129.5466
 -----------------------------------------------------------------------------
|                                                                             |
|           W    W    AA    RRRRR   N    N  II  N    N   GGGG   !!!           |
|           W    W   A  A   R    R  NN   N  II  NN   N  G    G  !!!           |
|           W    W  A    A  R    R  N N  N  II  N N  N  G       !!!           |
|           W WW W  AAAAAA  RRRRR   N  N N  II  N  N N  G  GGG   !            |
|           WW  WW  A    A  R   R   N   NN  II  N   NN  G    G                |
|           W    W  A    A  R    R  N    N  II  N    N   GGGG   !!!           |
|                                                                             |
|     Tetrahedron method does not include variations of the Fermi             |
|     occupations, so forces and stress will be inaccurate. We suggest        |
|     using a different smearing scheme ISMEAR = 1 or 2 for metals in         |
|     relaxations.                                                            |
|                                                                             |
 -----------------------------------------------------------------------------

    4ORBIT:  cpu time    0.0000: real time    0.0000



 total charge

# of ion       s       p       d       tot
------------------------------------------
    1        0.450   0.283   9.189   9.922
    2        0.448   0.286   9.185   9.920
    3        0.448   0.286   9.185   9.920
    4        0.449   0.285   9.187   9.921
    5        0.449   0.285   9.183   9.917
    6        0.449   0.285   9.187   9.921
    7        0.448   0.285   9.187   9.920
    8        0.448   0.285   9.187   9.920
    9        0.447   0.284   9.189   9.920
   10        0.442   0.372   9.178   9.992
   11        0.443   0.367   9.185   9.994
   12        0.442   0.372   9.178   9.992
   13        0.442   0.367   9.184   9.993
   14        0.442   0.367   9.184   9.993
   15        0.439   0.370   9.178   9.987
   16        0.445   0.371   9.175   9.991
   17        0.438   0.371   9.179   9.988
   18        0.438   0.371   9.179   9.988
   19        0.438   0.369   9.181   9.988
   20        0.461   0.397   9.158  10.016
   21        0.461   0.397   9.158  10.016
   22        0.432   0.375   9.180   9.987
   23        0.464   0.393   9.163  10.020
   24        0.432   0.375   9.180   9.987
   25        0.443   0.366   9.184   9.993
   26        0.443   0.366   9.184   9.993
   27        0.434   0.373   9.182   9.989
   28        0.448   0.285   9.186   9.919
   29        0.464   0.301   9.176   9.940
   30        0.464   0.301   9.176   9.940
   31        0.458   0.293   9.181   9.932
   32        0.458   0.293   9.181   9.932
   33        0.463   0.299   9.177   9.940
   34        0.463   0.299   9.177   9.940
   35        0.442   0.290   9.185   9.917
   36        0.444   0.524   4.380   5.348
   37        1.345   2.443   0.000   3.788
   38        1.345   2.443   0.000   3.788
--------------------------------------------------
tot         18.810  17.070 325.690 361.569
 
 BZINTS: Fermi energy:    0.171747;  401.000000 electrons
         Band energy:-0.113238E+04;  BLOECHL correction:   -0.023516

 total amount of memory used by VASP MPI-rank0   149776. kBytes
=======================================================================

   base      :      30000. kBytes
   nonlr-proj:      17769. kBytes
   fftplans  :       2916. kBytes
   grid      :      12390. kBytes
   one-center:        590. kBytes
   wavefun   :      86111. kBytes
 
  
  
 General timing and accounting informations for this job:
 ========================================================
  
                  Total CPU time used (sec):      140.647
                            User time (sec):      135.186
                          System time (sec):        5.461
                         Elapsed time (sec):      141.064
  
                   Maximum memory used (kb):      396048.
                   Average memory used (kb):          N/A
  
                          Minor page faults:        94186
                          Major page faults:            0
                 Voluntary context switches:        13937
