PROCAR new format
# of k-points:   10         # of bands:  252         # of ions:   36

 k-point     1 :    0.00000000 0.00000000 0.00000000     weight = 0.01562500

band     1 # energy   -6.31068147 # occ.  2.00000000
 
ion      s      p      d    tot
    1  0.006  0.001  0.000  0.007
    2  0.006  0.001  0.000  0.007
    3  0.006  0.001  0.000  0.007
    4  0.006  0.001  0.000  0.007
    5  0.006  0.001  0.000  0.007
    6  0.006  0.001  0.000  0.007
    7  0.006  0.001  0.000  0.007
    8  0.006  0.001  0.000  0.007
    9  0.006  0.001  0.000  0.007
   10  0.024  0.000  0.000  0.024
   11  0.024  0.000  0.000  0.024
   12  0.024  0.000  0.000  0.024
   13  0.024  0.000  0.000  0.024
   14  0.024  0.000  0.000  0.024
   15  0.023  0.000  0.000  0.024
   16  0.024  0.000  0.000  0.024
   17  0.023  0.000  0.000  0.024
   18  0.023  0.000  0.000  0.024
   19  0.022  0.000  0.000  0.023
   20  0.024  0.000  0.000  0.024
   21  0.024  0.000  0.000  0.024
   22  0.023  0.000  0.000  0.023
   23  0.024  0.000  0.000  0.024
   24  0.023  0.000  0.000  0.023
   25  0.022  0.000  0.000  0.023
   26  0.022  0.000  0.000  0.023
   27  0.023  0.000  0.000  0.023
   28  0.005  0.001  0.000  0.006
   29  0.005  0.001  0.000  0.006
   30  0.005  0.001  0.000  0.006
   31  0.005  0.001  0.000  0.006
   32  0.005  0.001  0.000  0.006
   33  0.005  0.001  0.000  0.006
   34  0.005  0.001  0.000  0.006
   35  0.005  0.001  0.000  0.006
   36  0.007  0.001  0.000  0.008
tot    0.525  0.013  0.006  0.544
 
band     2 # energy   -5.43941885 # occ.  2.00000000
 
ion      s      p      d    tot
    1  0.008  0.000  0.000  0.009
    2  0.008  0.000  0.000  0.009
    3  0.008  0.000  0.000  0.009
    4  0.008  0.000  0.000  0.009
    5  0.008  0.000  0.000  0.009
    6  0.008  0.000  0.000  0.009
    7  0.008  0.000  0.000  0.009
    8  0.008  0.000  0.000  0.009
    9  0.008  0.000  0.000  0.009
   10  0.011  0.001  0.015  0.027
   11  0.011  0.001  0.015  0.027
   12  0.011  0.001  0.015  0.027
   13  0.011  0.001  0.015  0.027
   14  0.011  0.001  0.015  0.027
   15  0.011  0.001  0.014  0.026
   16  0.011  0.001  0.015  0.027
   17  0.011  0.001  0.014  0.026
   18  0.011  0.001  0.014  0.026
   19  0.012  0.001  0.016  0.029
   20  0.013  0.001  0.018  0.032
   21  0.013  0.001  0.018  0.032
   22  0.012  0.001  0.015  0.028
   23  0.013  0.001  0.018  0.032
   24  0.012  0.001  0.015  0.028
   25  0.012  0.001  0.016  0.029
   26  0.012  0.001  0.016  0.029
   27  0.012  0.001  0.015  0.028
   28  0.007  0.000  0.000  0.008
   29  0.007  0.000  0.000  0.007
   30  0.007  0.000  0.000  0.007
   31  0.007  0.000  0.000  0.007
   32  0.007  0.000  0.000  0.007
   33  0.007  0.000  0.000  0.007
   34  0.007  0.000  0.000  0.007
   35  0.007  0.000  0.000  0.007
   36  0.008  0.001  0.000  0.008
tot    0.342  0.025  0.285  0.653
 
band     3 # energy   -5.15566041 # occ.  2.00000000
 
ion      s      p      d    tot
    1  0.014  0.000  0.026  0.040
    2  0.015  0.000  0.024  0.039
    3  0.015  0.000  0.024  0.039
    4  0.015  0.000  0.024  0.039
    5  0.015  0.000  0.023  0.038
    6  0.015  0.000  0.024  0.039
    7  0.015  0.000  0.024  0.039
    8  0.015  0.000  0.024  0.039
    9  0.016  0.000  0.023  0.039
   10  0.001  0.000  0.020  0.022
   11  0.001  0.000  0.023  0.024
   12  0.001  0.000  0.020  0.022
   13  0.001  0.000  0.023  0.024
   14  0.001  0.000  0.023  0.024
   15  0.000  0.000  0.022  0.022
   16  0.001  0.000  0.020  0.022
   17  0.000  0.000  0.022  0.022
   18  0.000  0.000  0.022  0.022
   19  0.000  0.000  0.009  0.009
   20  0.000  0.000  0.013  0.013
   21  0.000  0.000  0.013  0.013
   22  0.000  0.000  0.011  0.011
   23  0.000  0.000  0.013  0.013
   24  0.000  0.000  0.011  0.011
   25  0.000  0.000  0.009  0.009
   26  0.000  0.000  0.009  0.009
   27  0.000  0.000  0.011  0.011
   28  0.005  0.000  0.008  0.013
   29  0.006  0.000  0.007  0.013
   30  0.006  0.000  0.007  0.013
   31  0.006  0.000  0.007  0.013
   32  0.006  0.000  0.007  0.013
   33  0.006  0.000  0.007  0.013
   34  0.006  0.000  0.007  0.013
   35  0.006  0.000  0.008  0.014
   36  0.006  0.000  0.001  0.007
tot    0.192  0.006  0.567  0.765
 
band     4 # energy   -5.04600971 # occ.  2.00000000
 
ion      s      p      d    tot
    1  0.008  0.001  0.002  0.011
    2  0.000  0.000  0.005  0.006
    3  0.000  0.000  0.005  0.006
    4  0.000  0.000  0.005  0.006
    5  0.000  0.000  0.004  0.004
    6  0.000  0.000  0.005  0.006
    7  0.000  0.000  0.005  0.006
    8  0.000  0.000  0.005  0.006
    9  0.001  0.001  0.004  0.006
   10  0.006  0.000  0.055  0.061
   11  0.000  0.001  0.030  0.030
   12  0.006  0.000  0.055  0.061
   13  0.000  0.001  0.030  0.030
   14  0.000  0.001  0.030  0.030
   15  0.012  0.001  0.007  0.020
   16  0.006  0.000  0.055  0.061
   17  0.012  0.001  0.007  0.020
   18  0.012  0.001  0.007  0.020
   19  0.001  0.001  0.024  0.025
   20  0.006  0.000  0.065  0.071
   21  0.006  0.000  0.065  0.071
   22  0.014  0.001  0.010  0.025
   23  0.006  0.000  0.065  0.071
   24  0.014  0.001  0.010  0.025
   25  0.001  0.001  0.024  0.025
   26  0.001  0.001  0.024  0.025
   27  0.014  0.001  0.010  0.025
   28  0.000  0.000  0.002  0.002
   29  0.000  0.000  0.006  0.006
   30  0.000  0.000  0.006  0.006
   31  0.000  0.000  0.006  0.006
   32  0.000  0.000  0.006  0.006
   33  0.000  0.000  0.006  0.006
   34  0.000  0.000  0.006  0.006
   35  0.002  0.001  0.004  0.007
   36  0.008  0.002  0.001  0.010
tot    0.135  0.017  0.653  0.805
 
band     5 # energy   -5.02964561 # occ.  2.00000000
 
ion      s      p      d    tot
    1  0.000  0.000  0.000  0.001
    2  0.000  0.000  0.006  0.006
    3  0.000  0.000  0.005  0.006
    4  0.000  0.000  0.006  0.006
    5  0.004  0.001  0.004  0.009
    6  0.000  0.000  0.005  0.006
    7  0.000  0.000  0.005  0.006
    8  0.000  0.000  0.005  0.006
    9  0.001  0.000  0.005  0.007
   10  0.007  0.001  0.007  0.015
   11  0.014  0.001  0.039  0.054
   12  0.007  0.001  0.007  0.015
   13  0.014  0.001  0.039  0.054
   14  0.014  0.001  0.039  0.053
   15  0.002  0.000  0.058  0.060
   16  0.007  0.001  0.007  0.015
   17  0.002  0.000  0.058  0.060
   18  0.001  0.000  0.059  0.060
   19  0.011  0.001  0.032  0.043
   20  0.007  0.001  0.013  0.020
   21  0.007  0.001  0.012  0.020
   22  0.000  0.000  0.044  0.044
   23  0.007  0.001  0.012  0.020
   24  0.000  0.000  0.044  0.044
   25  0.010  0.001  0.032  0.043
   26  0.011  0.001  0.032  0.043
   27  0.000  0.000  0.044  0.044
   28  0.004  0.001  0.004  0.009
   29  0.000  0.000  0.004  0.004
   30  0.000  0.000  0.004  0.004
   31  0.000  0.000  0.004  0.004
   32  0.000  0.000  0.004  0.004
   33  0.000  0.000  0.004  0.004
   34  0.000  0.000  0.004  0.004
   35  0.002  0.000  0.003  0.005
   36  0.000  0.000  0.000  0.000
tot    0.131  0.017  0.651  0.799
 
band     6 # energy   -5.02784744 # occ.  2.00000000
 
ion      s      p      d    tot
    1  0.000  0.000  0.001  0.001
    2  0.000  0.000  0.003  0.003
    3  0.001  0.001  0.006  0.008
    4  0.000  0.000  0.003  0.004
    5  0.000  0.000  0.009  0.009
    6  0.001  0.000  0.004  0.005
    7  0.001  0.001  0.006  0.008
    8  0.001  0.000  0.004  0.005
    9  0.000  0.000  0.005  0.005
   10  0.001  0.000  0.026  0.027
   11  0.007  0.000  0.078  0.085
   12  0.000  0.001  0.050  0.051
   13  0.006  0.000  0.080  0.087
   14  0.027  0.001  0.005  0.033
   15  0.005  0.001  0.020  0.026
   16  0.000  0.001  0.050  0.051
   17  0.004  0.001  0.020  0.025
   18  0.018  0.000  0.035  0.054
   19  0.001  0.000  0.037  0.038
   20  0.005  0.000  0.033  0.038
   21  0.001  0.001  0.023  0.025
   22  0.005  0.001  0.031  0.036
   23  0.001  0.001  0.023  0.025
   24  0.019  0.001  0.012  0.032
   25  0.005  0.001  0.010  0.016
   26  0.001  0.000  0.037  0.039
   27  0.005  0.001  0.030  0.036
   28  0.000  0.000  0.002  0.002
   29  0.001  0.000  0.003  0.005
   30  0.000  0.000  0.002  0.002
   31  0.001  0.000  0.003  0.005
   32  0.001  0.000  0.003  0.004
   33  0.000  0.000  0.002  0.002
   34  0.001  0.000  0.003  0.004
   35  0.000  0.000  0.008  0.008
   36  0.000  0.000  0.000  0.001
tot    0.121  0.016  0.667  0.804
 
band     7 # energy   -5.02784224 # occ.  2.00000000
 
ion      s      p      d    tot
    1  0.000  0.000  0.001  0.001
    2  0.002  0.001  0.006  0.008
    3  0.000  0.000  0.002  0.003
    4  0.002  0.001  0.005  0.008
    5  0.000  0.000  0.009  0.009
    6  0.001  0.000  0.005  0.006
    7  0.000  0.000  0.002  0.003
    8  0.001  0.000  0.005  0.006
    9  0.000  0.000  0.005  0.005
   10  0.000  0.001  0.058  0.059
   11  0.020  0.001  0.031  0.051
   12  0.000  0.000  0.034  0.035
   13  0.020  0.001  0.029  0.050
   14  0.000  0.000  0.104  0.104
   15  0.014  0.001  0.030  0.044
   16  0.000  0.000  0.034  0.035
   17  0.014  0.001  0.030  0.045
   18  0.000  0.002  0.014  0.016
   19  0.004  0.000  0.020  0.024
   20  0.000  0.001  0.020  0.021
   21  0.004  0.001  0.030  0.034
   22  0.015  0.001  0.018  0.033
   23  0.004  0.001  0.029  0.034
   24  0.000  0.001  0.036  0.037
   25  0.000  0.000  0.046  0.046
   26  0.004  0.000  0.019  0.023
   27  0.014  0.001  0.019  0.034
   28  0.000  0.000  0.002  0.002
   29  0.000  0.000  0.002  0.002
   30  0.001  0.000  0.003  0.005
   31  0.000  0.000  0.002  0.002
   32  0.001  0.000  0.003  0.003
   33  0.001  0.000  0.003  0.005
   34  0.001  0.000  0.003  0.003
   35  0.000  0.000  0.008  0.008
   36  0.000  0.000  0.000  0.001
tot    0.121  0.016  0.667  0.804
 
band     8 # energy   -5.02262026 # occ.  2.00000000
 
ion      s      p      d    tot
    1  0.000  0.000  0.009  0.010
    2  0.000  0.000  0.003  0.004
    3  0.002  0.001  0.005  0.007
    4  0.000  0.000  0.003  0.004
    5  0.000  0.000  0.002  0.002
    6  0.000  0.000  0.003  0.004
    7  0.002  0.001  0.005  0.007
    8  0.000  0.000  0.003  0.004
    9  0.000  0.000  0.004  0.004
   10  0.000  0.001  0.046  0.047
   11  0.004  0.001  0.031  0.035
   12  0.019  0.001  0.023  0.043
   13  0.004  0.001  0.031  0.035
   14  0.000  0.001  0.015  0.016
   15  0.006  0.000  0.025  0.032
   16  0.018  0.001  0.024  0.043
   17  0.006  0.000  0.024  0.031
   18  0.000  0.000  0.074  0.074
   19  0.013  0.001  0.026  0.039
   20  0.000  0.000  0.087  0.087
   21  0.015  0.001  0.025  0.041
   22  0.000  0.000  0.030  0.030
   23  0.015  0.001  0.026  0.042
   24  0.000  0.001  0.042  0.043
   25  0.000  0.001  0.019  0.020
   26  0.013  0.001  0.026  0.040
   27  0.000  0.000  0.030  0.030
   28  0.000  0.000  0.005  0.005
   29  0.001  0.000  0.004  0.005
   30  0.000  0.000  0.002  0.002
   31  0.001  0.000  0.004  0.005
   32  0.001  0.000  0.004  0.005
   33  0.000  0.000  0.002  0.002
   34  0.001  0.000  0.004  0.005
   35  0.000  0.000  0.001  0.001
   36  0.000  0.000  0.001  0.002
tot    0.121  0.017  0.667  0.805
 
band     9 # energy   -5.02261305 # occ.  2.00000000
 
ion      s      p      d    tot
    1  0.000  0.000  0.009  0.010
    2  0.001  0.001  0.004  0.006
    3  0.000  0.000  0.003  0.003
    4  0.001  0.000  0.004  0.006
    5  0.000  0.000  0.002  0.002
    6  0.001  0.000  0.004  0.006
    7  0.000  0.000  0.003  0.003
    8  0.001  0.000  0.004  0.006
    9  0.000  0.000  0.003  0.004
   10  0.025  0.001  0.016  0.042
   11  0.001  0.001  0.020  0.023
   12  0.006  0.001  0.039  0.046
   13  0.001  0.001  0.020  0.022
   14  0.005  0.000  0.036  0.041
   15  0.002  0.000  0.057  0.059
   16  0.006  0.001  0.038  0.046
   17  0.002  0.000  0.058  0.060
   18  0.008  0.001  0.009  0.017
   19  0.004  0.001  0.021  0.027
   20  0.020  0.001  0.005  0.027
   21  0.005  0.000  0.067  0.072
   22  0.000  0.001  0.038  0.039
   23  0.005  0.000  0.066  0.071
   24  0.000  0.000  0.026  0.026
   25  0.017  0.001  0.028  0.046
   26  0.004  0.001  0.021  0.026
   27  0.000  0.001  0.038  0.039
   28  0.000  0.000  0.005  0.005
   29  0.000  0.000  0.002  0.003
   30  0.001  0.000  0.005  0.006
   31  0.000  0.000  0.003  0.003
   32  0.000  0.000  0.002  0.003
   33  0.001  0.000  0.005  0.006
   34  0.000  0.000  0.002  0.003
   35  0.000  0.000  0.001  0.001
   36  0.000  0.000  0.001  0.002
tot    0.121  0.017  0.667  0.805
 
band    10 # energy   -5.00461601 # occ.  2.00000000
 
ion      s      p      d    tot
    1  0.000  0.000  0.013  0.014
    2  0.000  0.000  0.009  0.010
    3  0.000  0.000  0.009  0.010
    4  0.000  0.000  0.009  0.010
    5  0.001  0.000  0.002  0.003
    6  0.000  0.000  0.009  0.010
    7  0.000  0.000  0.009  0.010
    8  0.000  0.000  0.009  0.010
    9  0.007  0.001  0.000  0.008
   10  0.003  0.000  0.040  0.044
   11  0.000  0.000  0.053  0.053
   12  0.003  0.000  0.040  0.044
   13  0.000  0.000  0.053  0.053
   14  0.000  0.000  0.053  0.053
   15  0.003  0.000  0.010  0.013
   16  0.003  0.000  0.040  0.044
   17  0.003  0.000  0.010  0.013
   18  0.003  0.000  0.010  0.013
   19  0.003  0.000  0.007  0.011
   20  0.001  0.000  0.055  0.055
   21  0.001  0.000  0.055  0.055
   22  0.003  0.000  0.044  0.047
   23  0.001  0.000  0.055  0.055
   24  0.003  0.000  0.044  0.047
   25  0.003  0.000  0.007  0.011
   26  0.003  0.000  0.007  0.011
   27  0.003  0.000  0.044  0.047
   28  0.008  0.001  0.000  0.009
   29  0.001  0.000  0.010  0.011
   30  0.001  0.000  0.010  0.011
   31  0.001  0.000  0.010  0.011
   32  0.001  0.000  0.010  0.011
   33  0.001  0.000  0.010  0.011
   34  0.001  0.000  0.010  0.011
   35  0.000  0.000  0.015  0.015
   36  0.001  0.000  0.000  0.001
tot    0.061  0.007  0.773  0.842
 
band    11 # energy   -4.98910628 # occ.  2.00000000
 
ion      s      p      d    tot
    1  0.006  0.000  0.005  0.011
    2  0.000  0.000  0.010  0.010
    3  0.000  0.000  0.010  0.010
    4  0.000  0.000  0.010  0.010
    5  0.001  0.000  0.004  0.006
    6  0.000  0.000  0.010  0.010
    7  0.000  0.000  0.010  0.010
    8  0.000  0.000  0.010  0.010
    9  0.000  0.000  0.004  0.004
   10  0.000  0.000  0.042  0.042
   11  0.004  0.000  0.009  0.014
   12  0.000  0.000  0.042  0.042
   13  0.004  0.000  0.009  0.014
   14  0.004  0.000  0.009  0.014
   15  0.001  0.000  0.052  0.053
   16  0.000  0.000  0.042  0.042
   17  0.001  0.000  0.052  0.053
   18  0.001  0.000  0.052  0.053
   19  0.003  0.000  0.062  0.065
   20  0.002  0.001  0.010  0.013
   21  0.002  0.001  0.010  0.013
   22  0.001  0.000  0.040  0.041
   23  0.002  0.001  0.010  0.013
   24  0.001  0.000  0.040  0.041
   25  0.003  0.000  0.062  0.065
   26  0.003  0.000  0.062  0.065
   27  0.001  0.000  0.040  0.041
   28  0.001  0.000  0.018  0.019
   29  0.001  0.000  0.009  0.009
   30  0.001  0.000  0.008  0.009
   31  0.001  0.000  0.009  0.009
   32  0.001  0.000  0.009  0.009
   33  0.001  0.000  0.008  0.009
   34  0.001  0.000  0.009  0.009
   35  0.001  0.000  0.000  0.001
   36  0.006  0.001  0.000  0.007
tot    0.052  0.007  0.789  0.848
 
band    12 # energy   -4.98611691 # occ.  2.00000000
 
ion      s      p      d    tot
    1  0.000  0.000  0.018  0.018
    2  0.000  0.000  0.009  0.010
    3  0.003  0.001  0.005  0.009
    4  0.000  0.000  0.009  0.010
    5  0.000  0.000  0.009  0.009
    6  0.001  0.000  0.008  0.010
    7  0.003  0.001  0.005  0.009
    8  0.001  0.000  0.009  0.010
    9  0.000  0.000  0.005  0.006
   10  0.006  0.000  0.029  0.036
   11  0.000  0.000  0.023  0.023
   12  0.001  0.000  0.048  0.050
   13  0.000  0.000  0.022  0.022
   14  0.000  0.000  0.042  0.042
   15  0.002  0.000  0.058  0.060
   16  0.002  0.000  0.047  0.049
   17  0.002  0.000  0.061  0.063
   18  0.008  0.000  0.007  0.015
   19  0.001  0.000  0.035  0.037
   20  0.008  0.000  0.007  0.015
   21  0.002  0.000  0.063  0.065
   22  0.000  0.000  0.023  0.023
   23  0.002  0.000  0.060  0.062
   24  0.001  0.000  0.031  0.032
   25  0.004  0.000  0.032  0.036
   26  0.001  0.000  0.036  0.037
   27  0.000  0.000  0.024  0.024
   28  0.000  0.000  0.012  0.013
   29  0.003  0.000  0.004  0.007
   30  0.000  0.000  0.007  0.007
   31  0.002  0.001  0.004  0.007
   32  0.001  0.000  0.006  0.007
   33  0.000  0.000  0.007  0.007
   34  0.001  0.000  0.005  0.007
   35  0.000  0.000  0.005  0.005
   36  0.000  0.001  0.001  0.001
tot    0.059  0.008  0.776  0.843
 
band    13 # energy   -4.98611569 # occ.  2.00000000
 
ion      s      p      d    tot
    1  0.000  0.000  0.018  0.018
    2  0.003  0.000  0.006  0.009
    3  0.000  0.000  0.010  0.010
    4  0.003  0.000  0.006  0.009
    5  0.000  0.000  0.009  0.009
    6  0.002  0.001  0.007  0.009
    7  0.000  0.000  0.010  0.010
    8  0.002  0.001  0.007  0.009
    9  0.000  0.000  0.005  0.006
   10  0.000  0.000  0.054  0.054
   11  0.000  0.000  0.035  0.035
   12  0.005  0.000  0.035  0.040
   13  0.000  0.000  0.036  0.036
   14  0.000  0.000  0.016  0.016
   15  0.006  0.000  0.026  0.032
   16  0.005  0.000  0.036  0.041
   17  0.006  0.000  0.023  0.029
   18  0.000  0.000  0.077  0.077
   19  0.003  0.000  0.033  0.036
   20  0.000  0.000  0.080  0.080
   21  0.006  0.000  0.023  0.030
   22  0.001  0.000  0.029  0.029
   23  0.006  0.000  0.027  0.033
   24  0.000  0.000  0.021  0.021
   25  0.000  0.000  0.037  0.037
   26  0.003  0.000  0.033  0.036
   27  0.001  0.000  0.028  0.029
   28  0.000  0.000  0.012  0.013
   29  0.000  0.000  0.007  0.007
   30  0.003  0.000  0.004  0.007
   31  0.000  0.000  0.007  0.007
   32  0.001  0.000  0.005  0.007
   33  0.003  0.000  0.004  0.007
   34  0.001  0.000  0.006  0.007
   35  0.000  0.000  0.005  0.005
   36  0.000  0.001  0.001  0.001
tot    0.059  0.008  0.776  0.843
 
band    14 # energy   -4.97453035 # occ.  2.00000000
 
ion      s      p      d    tot
    1  0.000  0.000  0.005  0.005
    2  0.003  0.000  0.007  0.010
    3  0.001  0.000  0.009  0.010
    4  0.004  0.000  0.006  0.010
    5  0.000  0.000  0.012  0.012
    6  0.002  0.000  0.007  0.009
    7  0.000  0.000  0.010  0.010
    8  0.001  0.000  0.007  0.009
    9  0.000  0.000  0.019  0.019
   10  0.004  0.000  0.020  0.024
   11  0.001  0.000  0.046  0.047
   12  0.001  0.000  0.029  0.030
   13  0.001  0.000  0.043  0.045
   14  0.005  0.000  0.012  0.017
   15  0.000  0.000  0.027  0.027
   16  0.001  0.000  0.030  0.031
   17  0.000  0.000  0.028  0.028
   18  0.000  0.000  0.041  0.042
   19  0.002  0.000  0.064  0.065
   20  0.001  0.000  0.048  0.049
   21  0.000  0.000  0.020  0.021
   22  0.004  0.000  0.062  0.066
   23  0.000  0.000  0.018  0.019
   24  0.014  0.000  0.017  0.031
   25  0.007  0.000  0.010  0.018
   26  0.002  0.000  0.060  0.062
   27  0.003  0.000  0.065  0.068
   28  0.000  0.000  0.004  0.004
   29  0.000  0.000  0.007  0.007
   30  0.001  0.000  0.002  0.004
   31  0.000  0.000  0.008  0.008
   32  0.001  0.001  0.007  0.009
   33  0.002  0.000  0.002  0.004
   34  0.001  0.001  0.007  0.009
   35  0.000  0.000  0.010  0.010
   36  0.000  0.000  0.001  0.001
tot    0.063  0.008  0.771  0.841
 
band    15 # energy   -4.97451714 # occ.  2.00000000
 
ion      s      p      d    tot
    1  0.000  0.000  0.005  0.005
    2  0.000  0.000  0.009  0.009
    3  0.003  0.001  0.006  0.010
    4  0.000  0.000  0.009  0.009
    5  0.000  0.000  0.012  0.012
    6  0.002  0.000  0.008  0.011
    7  0.003  0.001  0.006  0.010
    8  0.002  0.000  0.008  0.011
    9  0.000  0.000  0.020  0.020
   10  0.000  0.000  0.032  0.032
   11  0.004  0.000  0.022  0.026
   12  0.003  0.000  0.023  0.027
   13  0.004  0.000  0.024  0.028
   14  0.000  0.000  0.055  0.056
   15  0.000  0.000  0.037  0.037
   16  0.003  0.000  0.023  0.026
   17  0.000  0.000  0.036  0.036
   18  0.000  0.000  0.022  0.022
   19  0.005  0.000  0.026  0.031
   20  0.000  0.000  0.010  0.010
   21  0.001  0.000  0.037  0.038
   22  0.010  0.000  0.034  0.045
   23  0.001  0.000  0.039  0.040
   24  0.000  0.000  0.079  0.079
   25  0.000  0.000  0.079  0.079
   26  0.005  0.000  0.029  0.035
   27  0.011  0.000  0.031  0.042
   28  0.000  0.000  0.004  0.004
   29  0.002  0.001  0.004  0.006
   30  0.000  0.000  0.009  0.010
   31  0.002  0.001  0.003  0.006
   32  0.001  0.000  0.004  0.005
   33  0.000  0.000  0.009  0.009
   34  0.001  0.000  0.004  0.005
   35  0.000  0.000  0.010  0.010
   36  0.000  0.000  0.001  0.001
tot    0.063  0.008  0.771  0.841
 
band    16 # energy   -4.96200846 # occ.  2.00000000
 
ion      s      p      d    tot
    1  0.002  0.000  0.006  0.007
    2  0.003  0.000  0.012  0.015
    3  0.003  0.000  0.012  0.015
    4  0.003  0.000  0.012  0.015
    5  0.007  0.000  0.010  0.016
    6  0.003  0.000  0.012  0.015
    7  0.003  0.000  0.012  0.015
    8  0.003  0.000  0.012  0.015
    9  0.002  0.000  0.017  0.019
   10  0.002  0.000  0.004  0.006
   11  0.001  0.000  0.009  0.010
   12  0.002  0.000  0.004  0.006
   13  0.001  0.000  0.009  0.010
   14  0.001  0.000  0.009  0.010
   15  0.002  0.000  0.014  0.015
   16  0.002  0.000  0.004  0.006
   17  0.002  0.000  0.014  0.015
   18  0.002  0.000  0.014  0.015
   19  0.002  0.001  0.015  0.018
   20  0.003  0.001  0.031  0.034
   21  0.003  0.001  0.031  0.034
   22  0.000  0.001  0.018  0.018
   23  0.003  0.001  0.031  0.034
   24  0.000  0.001  0.018  0.018
   25  0.002  0.001  0.015  0.018
   26  0.002  0.001  0.015  0.018
   27  0.000  0.001  0.018  0.018
   28  0.009  0.000  0.020  0.030
   29  0.013  0.000  0.028  0.041
   30  0.013  0.000  0.028  0.041
   31  0.013  0.000  0.028  0.041
   32  0.013  0.000  0.028  0.041
   33  0.013  0.000  0.028  0.041
   34  0.013  0.000  0.028  0.041
   35  0.022  0.000  0.026  0.049
   36  0.008  0.000  0.004  0.013
tot    0.173  0.009  0.595  0.777
 
band    17 # energy   -4.82826868 # occ.  2.00000000
 
ion      s      p      d    tot
    1  0.001  0.000  0.001  0.002
    2  0.000  0.000  0.008  0.008
    3  0.000  0.000  0.008  0.008
    4  0.000  0.000  0.008  0.008
    5  0.000  0.000  0.016  0.017
    6  0.000  0.000  0.008  0.008
    7  0.000  0.000  0.008  0.008
    8  0.000  0.000  0.008  0.008
    9  0.003  0.001  0.004  0.007
   10  0.001  0.000  0.019  0.020
   11  0.000  0.001  0.069  0.070
   12  0.001  0.000  0.019  0.020
   13  0.000  0.001  0.069  0.070
   14  0.000  0.001  0.069  0.070
   15  0.000  0.000  0.033  0.034
   16  0.001  0.000  0.019  0.020
   17  0.000  0.000  0.033  0.034
   18  0.000  0.000  0.033  0.034
   19  0.000  0.001  0.033  0.033
   20  0.001  0.000  0.067  0.068
   21  0.001  0.000  0.066  0.068
   22  0.001  0.000  0.014  0.016
   23  0.001  0.000  0.066  0.068
   24  0.001  0.000  0.014  0.016
   25  0.000  0.001  0.033  0.033
   26  0.000  0.001  0.033  0.033
   27  0.001  0.000  0.014  0.016
   28  0.006  0.001  0.001  0.008
   29  0.000  0.000  0.009  0.010
   30  0.000  0.000  0.009  0.010
   31  0.000  0.000  0.009  0.010
   32  0.000  0.000  0.009  0.010
   33  0.000  0.000  0.009  0.010
   34  0.000  0.000  0.009  0.010
   35  0.001  0.000  0.000  0.001
   36  0.000  0.001  0.002  0.003
tot    0.024  0.014  0.830  0.867
 
band    18 # energy   -4.82061368 # occ.  2.00000000
 
ion      s      p      d    tot
    1  0.001  0.001  0.007  0.009
    2  0.000  0.000  0.011  0.012
    3  0.000  0.000  0.011  0.012
    4  0.000  0.000  0.011  0.012
    5  0.004  0.001  0.000  0.005
    6  0.000  0.000  0.011  0.012
    7  0.000  0.000  0.011  0.012
    8  0.000  0.000  0.011  0.012
    9  0.001  0.000  0.005  0.006
   10  0.001  0.001  0.055  0.057
   11  0.000  0.000  0.018  0.019
   12  0.001  0.001  0.055  0.057
   13  0.000  0.000  0.018  0.019
   14  0.000  0.000  0.018  0.018
   15  0.002  0.000  0.036  0.039
   16  0.001  0.001  0.055  0.056
   17  0.002  0.000  0.036  0.039
   18  0.002  0.000  0.036  0.039
   19  0.002  0.000  0.044  0.046
   20  0.000  0.000  0.016  0.017
   21  0.000  0.000  0.016  0.017
   22  0.001  0.001  0.049  0.051
   23  0.000  0.000  0.016  0.017
   24  0.001  0.001  0.049  0.051
   25  0.002  0.000  0.044  0.046
   26  0.002  0.000  0.044  0.046
   27  0.001  0.001  0.049  0.051
   28  0.001  0.000  0.010  0.011
   29  0.000  0.000  0.010  0.010
   30  0.000  0.000  0.010  0.010
   31  0.000  0.000  0.010  0.010
   32  0.000  0.000  0.010  0.010
   33  0.000  0.000  0.010  0.010
   34  0.000  0.000  0.010  0.010
   35  0.002  0.001  0.005  0.008
   36  0.003  0.001  0.000  0.004
tot    0.031  0.016  0.810  0.858
 
band    19 # energy   -4.81914154 # occ.  2.00000000
 
ion      s      p      d    tot
    1  0.000  0.000  0.002  0.002
    2  0.000  0.000  0.009  0.009
    3  0.001  0.001  0.005  0.007
    4  0.000  0.000  0.009  0.010
    5  0.000  0.001  0.018  0.019
    6  0.001  0.001  0.009  0.011
    7  0.001  0.001  0.005  0.007
    8  0.001  0.001  0.009  0.010
    9  0.000  0.000  0.009  0.009
   10  0.000  0.000  0.048  0.049
   11  0.002  0.000  0.054  0.056
   12  0.000  0.001  0.030  0.030
   13  0.002  0.000  0.058  0.059
   14  0.000  0.000  0.086  0.087
   15  0.002  0.001  0.032  0.034
   16  0.000  0.001  0.028  0.028
   17  0.001  0.001  0.029  0.031
   18  0.000  0.000  0.004  0.004
   19  0.002  0.001  0.033  0.037
   20  0.000  0.000  0.088  0.088
   21  0.002  0.000  0.052  0.054
   22  0.000  0.001  0.021  0.022
   23  0.002  0.000  0.048  0.050
   24  0.000  0.000  0.022  0.023
   25  0.000  0.000  0.015  0.015
   26  0.002  0.001  0.032  0.034
   27  0.000  0.001  0.021  0.022
   28  0.000  0.000  0.012  0.012
   29  0.001  0.000  0.007  0.008
   30  0.002  0.001  0.005  0.007
   31  0.001  0.000  0.007  0.008
   32  0.000  0.000  0.006  0.006
   33  0.002  0.001  0.004  0.007
   34  0.000  0.000  0.005  0.006
   35  0.000  0.000  0.000  0.000
   36  0.000  0.001  0.002  0.003
tot    0.025  0.016  0.824  0.864
 
band    20 # energy   -4.81913346 # occ.  2.00000000
 
ion      s      p      d    tot
    1  0.000  0.000  0.002  0.002
    2  0.002  0.001  0.006  0.009
    3  0.000  0.000  0.011  0.011
    4  0.002  0.001  0.006  0.008
    5  0.000  0.001  0.018  0.019
    6  0.001  0.000  0.006  0.007
    7  0.000  0.000  0.011  0.011
    8  0.001  0.000  0.007  0.008
    9  0.000  0.000  0.009  0.009
   10  0.000  0.001  0.022  0.023
   11  0.000  0.000  0.078  0.078
   12  0.000  0.000  0.041  0.041
   13  0.001  0.000  0.075  0.075
   14  0.002  0.000  0.046  0.048
   15  0.000  0.000  0.011  0.012
   16  0.000  0.000  0.043  0.043
   17  0.001  0.000  0.014  0.015
   18  0.002  0.001  0.039  0.042
   19  0.001  0.000  0.020  0.021
   20  0.002  0.000  0.037  0.040
   21  0.001  0.000  0.073  0.074
   22  0.000  0.000  0.022  0.022
   23  0.000  0.000  0.077  0.078
   24  0.000  0.001  0.021  0.022
   25  0.003  0.001  0.039  0.042
   26  0.001  0.000  0.022  0.023
   27  0.000  0.000  0.022  0.022
   28  0.000  0.000  0.012  0.012
   29  0.001  0.000  0.004  0.006
   30  0.000  0.000  0.007  0.007
   31  0.001  0.000  0.004  0.006
   32  0.002  0.001  0.006  0.008
   33  0.000  0.000  0.007  0.007
   34  0.002  0.001  0.006  0.008
   35  0.000  0.000  0.000  0.000
   36  0.000  0.001  0.002  0.003
tot    0.025  0.016  0.824  0.864
 
band    21 # energy   -4.80909709 # occ.  2.00000000
 
ion      s      p      d    tot
    1  0.000  0.001  0.017  0.018
    2  0.000  0.000  0.009  0.009
    3  0.001  0.000  0.005  0.006
    4  0.000  0.000  0.010  0.010
    5  0.000  0.000  0.001  0.001
    6  0.001  0.001  0.010  0.012
    7  0.002  0.001  0.005  0.007
    8  0.001  0.001  0.009  0.011
    9  0.000  0.000  0.010  0.011
   10  0.002  0.000  0.053  0.056
   11  0.000  0.000  0.012  0.012
   12  0.001  0.000  0.045  0.046
   13  0.000  0.001  0.015  0.016
   14  0.000  0.001  0.028  0.030
   15  0.000  0.000  0.077  0.078
   16  0.000  0.000  0.043  0.044
   17  0.000  0.000  0.067  0.067
   18  0.001  0.000  0.028  0.029
   19  0.000  0.000  0.056  0.056
   20  0.001  0.001  0.032  0.035
   21  0.000  0.000  0.011  0.012
   22  0.001  0.000  0.051  0.052
   23  0.000  0.000  0.006  0.006
   24  0.003  0.000  0.044  0.047
   25  0.000  0.000  0.022  0.023
   26  0.000  0.000  0.048  0.049
   27  0.001  0.000  0.053  0.054
   28  0.000  0.000  0.005  0.005
   29  0.001  0.000  0.008  0.009
   30  0.001  0.001  0.004  0.006
   31  0.000  0.000  0.008  0.009
   32  0.000  0.000  0.007  0.007
   33  0.001  0.001  0.004  0.006
   34  0.000  0.000  0.006  0.006
   35  0.000  0.001  0.017  0.018
   36  0.000  0.000  0.001  0.001
tot    0.022  0.015  0.829  0.865
 
band    22 # energy   -4.80909090 # occ.  2.00000000
 
ion      s      p      d    tot
    1  0.000  0.001  0.017  0.018
    2  0.002  0.001  0.007  0.009
    3  0.000  0.000  0.011  0.012
    4  0.002  0.001  0.006  0.008
    5  0.000  0.000  0.001  0.001
    6  0.001  0.000  0.006  0.007
    7  0.000  0.000  0.011  0.011
    8  0.000  0.000  0.007  0.007
    9  0.000  0.000  0.010  0.011
   10  0.000  0.000  0.041  0.041
   11  0.000  0.001  0.025  0.026
   12  0.002  0.000  0.049  0.051
   13  0.000  0.001  0.022  0.023
   14  0.000  0.000  0.009  0.009
   15  0.001  0.000  0.037  0.039
   16  0.002  0.000  0.051  0.054