 vasp.6.2.0 18Jan21 (build Jun 12 2021 23:27:24) complex                        
  
 executed on             LinuxIFC date 2022.05.27  06:13:17
 running on   28 total cores
 distrk:  each k-point on   28 cores,    1 groups
 distr:  one band on NCORE=   1 cores,   28 groups


--------------------------------------------------------------------------------------------------------


 INCAR:
   ISMEAR = -5
   SIGMA = 0.1
   ISPIN = 1
   EDIFF = 1.d-5
   EDIFFG = -0.01
   NSW = 0
   NELM = 150
   ENCUT = 500
   ISIF = 2
   IBRION = 2
   LREAL = Auto
   ALGO = Fast
   ICHARG = 11
   LORBIT = 10
   LCHARG = .F.
   LWAVE = .F.

 POTCAR:    PAW_PBE Cu 22Jun2005                  
 POTCAR:    PAW_PBE Pd 04Jan2005                  
 POTCAR:    PAW_PBE H 15Jun2001                   
 -----------------------------------------------------------------------------
|                                                                             |
|           W    W    AA    RRRRR   N    N  II  N    N   GGGG   !!!           |
|           W    W   A  A   R    R  NN   N  II  NN   N  G    G  !!!           |
|           W    W  A    A  R    R  N N  N  II  N N  N  G       !!!           |
|           W WW W  AAAAAA  RRRRR   N  N N  II  N  N N  G  GGG   !            |
|           WW  WW  A    A  R   R   N   NN  II  N   NN  G    G                |
|           W    W  A    A  R    R  N    N  II  N    N   GGGG   !!!           |
|                                                                             |
|     For optimal performance we recommend to set                             |
|       NCORE = 2 up to number-of-cores-per-socket                            |
|     NCORE specifies how many cores store one orbital (NPAR=cpu/NCORE).      |
|     This setting can greatly improve the performance of VASP for DFT.       |
|     The default, NCORE=1 might be grossly inefficient on modern             |
|     multi-core architectures or massively parallel machines. Do your        |
|     own testing! More info at https://www.vasp.at/wiki/index.php/NCORE      |
|     Unfortunately you need to use the default for GW and RPA                |
|     calculations (for HF NCORE is supported but not extensively tested      |
|     yet).                                                                   |
|                                                                             |
 -----------------------------------------------------------------------------

 POTCAR:    PAW_PBE Cu 22Jun2005                  
   VRHFIN =Cu: d10 p1                                                                               
   LEXCH  = PE                                                                                      
   EATOM  =  1390.9808 eV,  102.2342 Ry                                                             
                                                                                                    
   TITEL  = PAW_PBE Cu 22Jun2005                                                                    
   LULTRA =        F    use ultrasoft PP ?                                                          
   IUNSCR =        1    unscreen: 0-lin 1-nonlin 2-no                                               
   RPACOR =    2.000    partial core radius                                                         
   POMASS =   63.546; ZVAL   =   11.000    mass and valenz                                          
   RCORE  =    2.300    outmost cutoff radius                                                       
   RWIGS  =    2.200; RWIGS  =    1.164    wigner-seitz radius (au A)                               
   ENMAX  =  295.446; ENMIN  =  221.585 eV                                                          
   ICORE  =        3    local potential                                                             
   LCOR   =        T    correct aug charges                                                         
   LPAW   =        T    paw PP                                                                      
   EAUG   =  586.980                                                                                
   DEXC   =    0.000                                                                                
   RMAX   =    2.344    core radius for proj-oper                                                   
   RAUG   =    1.300    factor for augmentation sphere                                              
   RDEP   =    2.302    radius for radial grids                                                     
   RDEPT  =    1.771    core radius for aug-charge                                                  
                                                                                                    
   Atomic configuration                                                                             
    9 entries                                                                                       
     n  l   j            E        occ.                                                              
     1  0  0.50     -8850.2468   2.0000                                                             
     2  0  0.50     -1062.3498   2.0000                                                             
     2  1  1.50      -916.8226   6.0000                                                             
     3  0  0.50      -114.6929   2.0000                                                             
     3  1  1.50       -72.1325   6.0000                                                             
     3  2  2.50        -5.0394  10.0000                                                             
     4  0  0.50        -4.6097   1.0000                                                             
     4  1  0.50        -4.0817   0.0000                                                             
     4  3  2.50        -1.3606   0.0000                                                             
   Description                                                                                      
     l       E           TYP  RCUT    TYP  RCUT                                                     
     2     -5.0393973     23  2.200                                                                 
     2     10.8846608     23  2.200                                                                 
     0     -4.6097109     23  2.200                                                                 
     0      8.2520465     23  2.200                                                                 
     1     -2.7211652     23  2.200                                                                 
     1     21.7055443     23  2.200                                                                 
     3      2.7211652     23  2.300                                                                 
  local pseudopotential read in
  partial core-charges read in
  partial kinetic energy density read in
  atomic valenz-charges read in
  non local Contribution for L=           2  read in
    real space projection operators read in
  non local Contribution for L=           2  read in
    real space projection operators read in
  non local Contribution for L=           0  read in
    real space projection operators read in
  non local Contribution for L=           0  read in
    real space projection operators read in
  non local Contribution for L=           1  read in
    real space projection operators read in
  non local Contribution for L=           1  read in
    real space projection operators read in
    PAW grid and wavefunctions read in
 
   number of l-projection  operators is LMAX  =           6
   number of lm-projection operators is LMMAX =          18
 
 POTCAR:    PAW_PBE Pd 04Jan2005                  
   VRHFIN =Pd : s1 d9                                                                               
   LEXCH  = PE                                                                                      
   EATOM  =   809.7530 eV,   59.5152 Ry                                                             
                                                                                                    
   TITEL  = PAW_PBE Pd 04Jan2005                                                                    
   LULTRA =        F    use ultrasoft PP ?                                                          
   IUNSCR =        1    unscreen: 0-lin 1-nonlin 2-no                                               
   RPACOR =    2.000    partial core radius                                                         
   POMASS =  106.420; ZVAL   =   10.000    mass and valenz                                          
   RCORE  =    2.600    outmost cutoff radius                                                       
   RWIGS  =    2.710; RWIGS  =    1.434    wigner-seitz radius (au A)                               
   ENMAX  =  250.925; ENMIN  =  188.194 eV                                                          
   ICORE  =        3    local potential                                                             
   LCOR   =        T    correct aug charges                                                         
   LPAW   =        T    paw PP                                                                      
   EAUG   =  416.230                                                                                
   DEXC   =    0.000                                                                                
   RMAX   =    2.653    core radius for proj-oper                                                   
   RAUG   =    1.300    factor for augmentation sphere                                              
   RDEP   =    2.734    radius for radial grids                                                     
   RDEPT  =    2.103    core radius for aug-charge                                                  
                                                                                                    
   Atomic configuration                                                                             
   12 entries                                                                                       
     n  l   j            E        occ.                                                              
     1  0  0.50    -24164.6631   2.0000                                                             
     2  0  0.50     -3530.9218   2.0000                                                             
     2  1  1.50     -3165.6822   6.0000                                                             
     3  0  0.50      -639.4577   2.0000                                                             
     3  1  1.50      -519.4532   6.0000                                                             
     3  2  2.50      -328.9757  10.0000                                                             
     4  0  0.50       -88.7014   2.0000                                                             
     4  1  1.50       -54.4540   6.0000                                                             
     4  2  2.50        -6.6878   9.0000                                                             
     5  0  0.50        -4.3543   1.0000                                                             
     5  1  0.50        -1.3606   0.0000                                                             
     4  3  2.50        -1.3606   0.0000                                                             
   Description                                                                                      
     l       E           TYP  RCUT    TYP  RCUT                                                     
     2     -6.6878251     23  2.400                                                                 
     2     -8.0484077     23  2.400                                                                 
     0     -4.3542939     23  2.400                                                                 
     0      4.3406793     23  2.400                                                                 
     1     -4.0817478     23  2.600                                                                 
     1     15.8380318     23  2.600                                                                 
     3     -4.0817478     23  2.400                                                                 
  local pseudopotential read in
  partial core-charges read in
  partial kinetic energy density read in
  atomic valenz-charges read in
  non local Contribution for L=           2  read in
    real space projection operators read in
  non local Contribution for L=           2  read in
    real space projection operators read in
  non local Contribution for L=           0  read in
    real space projection operators read in
  non local Contribution for L=           0  read in
    real space projection operators read in
  non local Contribution for L=           1  read in
    real space projection operators read in
  non local Contribution for L=           1  read in
    real space projection operators read in
    PAW grid and wavefunctions read in
 
   number of l-projection  operators is LMAX  =           6
   number of lm-projection operators is LMMAX =          18
 
 POTCAR:    PAW_PBE H 15Jun2001                   
   VRHFIN =H: ultrasoft test                                                                        
   LEXCH  = PE                                                                                      
   EATOM  =    12.4884 eV,    0.9179 Ry                                                             
                                                                                                    
   TITEL  = PAW_PBE H 15Jun2001                                                                     
   LULTRA =        F    use ultrasoft PP ?                                                          
   IUNSCR =        0    unscreen: 0-lin 1-nonlin 2-no                                               
   RPACOR =    0.000    partial core radius                                                         
   POMASS =    1.000; ZVAL   =    1.000    mass and valenz                                          
   RCORE  =    1.100    outmost cutoff radius                                                       
   RWIGS  =    0.700; RWIGS  =    0.370    wigner-seitz radius (au A)                               
   ENMAX  =  250.000; ENMIN  =  200.000 eV                                                          
   RCLOC  =    0.701    cutoff for local pot                                                        
   LCOR   =        T    correct aug charges                                                         
   LPAW   =        T    paw PP                                                                      
   EAUG   =  400.000                                                                                
   RMAX   =    1.123    core radius for proj-oper                                                   
   RAUG   =    1.200    factor for augmentation sphere                                              
   RDEP   =    1.112    radius for radial grids                                                     
   RDEPT  =    0.926    core radius for aug-charge                                                  
                                                                                                    
   Atomic configuration                                                                             
    2 entries                                                                                       
     n  l   j            E        occ.                                                              
     1  0  0.50        -6.4927   1.0000                                                             
     2  1  0.50        -3.4015   0.0000                                                             
   Description                                                                                      
     l       E           TYP  RCUT    TYP  RCUT                                                     
     0     -6.4927494     23  1.100                                                                 
     0      6.8029130     23  1.100                                                                 
     1     -4.0817478     23  1.100                                                                 
  local pseudopotential read in
  atomic valenz-charges read in
  non local Contribution for L=           0  read in
    real space projection operators read in
  non local Contribution for L=           0  read in
    real space projection operators read in
  non local Contribution for L=           1  read in
    real space projection operators read in
    PAW grid and wavefunctions read in
 
   number of l-projection  operators is LMAX  =           3
   number of lm-projection operators is LMMAX =           5
 
 Optimization of the real space projectors (new method)

 maximal supplied QI-value         = 16.25
 optimisation between [QCUT,QGAM] = [ 11.38, 22.75] = [ 36.24,144.96] Ry 
 Optimized for a Real-space Cutoff    1.52 Angstroem

   l    n(q)    QCUT    max X(q) W(low)/X(q) W(high)/X(q)  e(spline) 
   2      9    11.376     4.610    0.21E-03    0.10E-03    0.26E-06
   2      9    11.376     8.522    0.33E-03    0.16E-03    0.37E-06
   0     10    11.376    51.609    0.62E-04    0.20E-04    0.13E-06
   0     10    11.376    27.747    0.54E-04    0.20E-04    0.13E-06
   1     10    11.376    20.408    0.13E-04    0.99E-04    0.19E-06
   1     10    11.376    13.425    0.12E-04    0.87E-04    0.17E-06
 Optimization of the real space projectors (new method)

 maximal supplied QI-value         = 14.36
 optimisation between [QCUT,QGAM] = [ 11.35, 22.84] = [ 36.05,146.02] Ry 
 Optimized for a Real-space Cutoff    1.47 Angstroem

   l    n(q)    QCUT    max X(q) W(low)/X(q) W(high)/X(q)  e(spline) 
   2      9    11.346    59.108    0.74E-04    0.81E-04    0.26E-06
   2      9    11.346    58.101    0.74E-04    0.83E-04    0.27E-06
   0     10    11.346   102.235    0.26E-04    0.31E-04    0.16E-06
   0     10    11.346    58.388    0.23E-04    0.29E-04    0.15E-06
   1     10    11.346    22.191    0.23E-03    0.26E-03    0.14E-06
   1     10    11.346    15.590    0.19E-03    0.22E-03    0.12E-06
 Optimization of the real space projectors (new method)

 maximal supplied QI-value         = 34.20
 optimisation between [QCUT,QGAM] = [ 11.29, 22.57] = [ 35.68,142.71] Ry 
 Optimized for a Real-space Cutoff    1.16 Angstroem

   l    n(q)    QCUT    max X(q) W(low)/X(q) W(high)/X(q)  e(spline) 
   0      8    11.287    19.460    0.40E-03    0.73E-03    0.16E-06
   0      8    11.287    12.209    0.38E-03    0.70E-03    0.15E-06
   1      7    11.287     4.655    0.22E-03    0.25E-04    0.22E-06
  PAW_PBE Cu 22Jun2005                  :
 energy of atom  1       EATOM=-1390.9808
 kinetic energy error for atom=    0.0043 (will be added to EATOM!!)
  PAW_PBE Pd 04Jan2005                  :
 energy of atom  2       EATOM= -809.7530
 kinetic energy error for atom=    0.0049 (will be added to EATOM!!)
  PAW_PBE H 15Jun2001                   :
 energy of atom  3       EATOM=  -12.4884
 kinetic energy error for atom=    0.0020 (will be added to EATOM!!)
 
 
 POSCAR: Cu-Pd-H2
  positions in direct lattice
  velocities in cartesian coordinates
 exchange correlation table for  LEXCH =        8
   RHO(1)=    0.500       N(1)  =     2000
   RHO(2)=  100.500       N(2)  =     4000

 VTST: version 3.2, (02/03/18)

 CHAIN: initializing optimizer
 
 OPT: Using VASP Conjugate-Gradient optimizer
 CHAIN: Read ICHAIN            0
 
 POSCAR: Cu-Pd-H2
  positions in direct lattice
  velocities in cartesian coordinates
 


--------------------------------------------------------------------------------------------------------


 ion  position               nearest neighbor table
   1  0.000  0.000  0.252-   7 2.57   3 2.57   4 2.57   2 2.57   6 2.57   8 2.57  12 2.57  10 2.57
                            16 2.57
   2  0.333  0.000  0.252-   8 2.57   9 2.57   5 2.57   1 2.57   3 2.57  11 2.57   4 2.57  10 2.57
                            17 2.57
   3  0.667  0.000  0.252-   1 2.57   7 2.57   6 2.57   9 2.57   2 2.57  12 2.57   5 2.57  18 2.57
                            11 2.57
   4  0.000  0.333  0.252-   5 2.57   6 2.57   1 2.57   7 2.57   2 2.57  13 2.57   9 2.57  10 2.57
                            15 2.57
   5  0.333  0.333  0.252-   4 2.57   2 2.57   7 2.57  13 2.57   8 2.57   6 2.57   3 2.57  11 2.57
                            14 2.57
   6  0.667  0.333  0.252-   4 2.57   9 2.57  15 2.57   3 2.57   1 2.57   8 2.57  14 2.57   5 2.57
                            12 2.57
   7  0.000  0.667  0.252-   1 2.57   3 2.57  16 2.57  18 2.57   4 2.57   5 2.57   8 2.57   9 2.57
                            13 2.57
   8  0.333  0.667  0.252-   9 2.57   2 2.57  17 2.57   6 2.57   1 2.57   7 2.57   5 2.57  14 2.57
                            16 2.57
   9  0.667  0.667  0.252-   8 2.57   6 2.57   2 2.57  17 2.57   3 2.57   7 2.57   4 2.57  15 2.57
                            18 2.57
  10  0.111  0.111  0.351-  20 2.54  26 2.55  19 2.55  11 2.57  12 2.57  13 2.57   1 2.57   2 2.57
                             4 2.57  15 2.57  16 2.57  17 2.57
  11  0.444  0.111  0.351-  20 2.55  21 2.55  27 2.55  10 2.57  13 2.57   2 2.57  17 2.57  14 2.57
                            12 2.57   5 2.57   3 2.57  18 2.57
  12  0.778  0.111  0.351-  21 2.54  19 2.55  25 2.55  15 2.57  10 2.57  14 2.57  18 2.57   3 2.57
                             1 2.57  16 2.57  11 2.57   6 2.57
  13  0.111  0.444  0.351-  23 2.55  20 2.55  22 2.55  16 2.57  18 2.57  10 2.57  11 2.57  14 2.57
                             5 2.57   4 2.57   7 2.57  15 2.57
  14  0.444  0.444  0.351-  21 2.55  23 2.55  24 2.55  15 2.57  17 2.57  12 2.57  16 2.57  13 2.57
                            11 2.57   6 2.57   8 2.57   5 2.57
  15  0.778  0.444  0.351-  19 2.55  24 2.55  22 2.55  14 2.57  17 2.57  12 2.57   6 2.57  18 2.57
                            10 2.57   9 2.57  13 2.57   4 2.57
  16  0.111  0.778  0.351-  23 2.54  25 2.55  26 2.55  18 2.57  13 2.57   7 2.57  14 2.57  17 2.57
                            12 2.57  10 2.57   8 2.57   1 2.57
  17  0.444  0.778  0.351-  26 2.55  27 2.55  24 2.55  14 2.57  15 2.57   8 2.57   9 2.57  11 2.57
                            16 2.57  18 2.57  10 2.57   2 2.57
  18  0.778  0.778  0.351-  25 2.55  22 2.55  27 2.55  16 2.57  13 2.57   7 2.57  15 2.57  12 2.57
                            17 2.57   9 2.57   3 2.57  11 2.57
  19  0.889  0.222  0.448-  32 2.54  31 2.54  28 2.55  15 2.55  12 2.55  10 2.55  21 2.56  20 2.56
                            22 2.56  24 2.56  25 2.57  26 2.57
  20  0.222  0.222  0.448-  10 2.54  11 2.55  13 2.55  26 2.56  19 2.56  27 2.56  22 2.56  29 2.57
                            31 2.57  23 2.58  21 2.58  36 2.62
  21  0.557  0.222  0.448-  12 2.54  14 2.55  11 2.55  19 2.56  25 2.56  24 2.56  27 2.56  32 2.57
                            30 2.57  20 2.58  23 2.58  36 2.62
  22  0.889  0.555  0.449-  35 2.54  31 2.55  33 2.55  13 2.55  18 2.55  15 2.55  23 2.56  20 2.56
                            19 2.56  25 2.56  24 2.57  27 2.57
  23  0.222  0.557  0.448-  16 2.54  13 2.55  14 2.55  25 2.56  26 2.56  22 2.56  24 2.56  33 2.57
                            34 2.57  20 2.58  21 2.58  36 2.62
  24  0.555  0.555  0.449-  35 2.54  32 2.55  34 2.55  14 2.55  15 2.55  17 2.55  21 2.56  23 2.56
                            19 2.56  26 2.56  22 2.57  27 2.57
  25  0.889  0.889  0.448-  33 2.54  30 2.54  28 2.55  18 2.55  16 2.55  12 2.55  21 2.56  23 2.56
                            22 2.56  27 2.56  19 2.57  26 2.57
  26  0.222  0.889  0.448-  29 2.54  34 2.54  28 2.55  17 2.55  10 2.55  16 2.55  20 2.56  23 2.56
                            27 2.56  24 2.56  25 2.57  19 2.57
  27  0.555  0.889  0.449-  35 2.54  29 2.55  30 2.55  11 2.55  17 2.55  18 2.55  20 2.56  21 2.56
                            26 2.56  25 2.56  24 2.57  22 2.57
  28  0.000  0.000  0.545-  25 2.55  19 2.55  26 2.55  33 2.55  30 2.55  31 2.55  29 2.55  32 2.55
                            34 2.55
  29  0.333  0.996  0.546-  34 2.51  26 2.54  28 2.55  27 2.55  35 2.55  20 2.57  31 2.59  36 2.60
                            30 2.60
  30  0.671  0.996  0.546-  33 2.51  25 2.54  28 2.55  27 2.55  35 2.55  21 2.57  32 2.59  36 2.60
                            29 2.60
  31  0.996  0.333  0.546-  32 2.51  19 2.54  28 2.55  22 2.55  35 2.55  20 2.57  29 2.59  36 2.60
                            33 2.60
  32  0.671  0.333  0.546-  31 2.51  19 2.54  28 2.55  24 2.55  35 2.55  21 2.57  30 2.59  36 2.60
                            34 2.60
  33  0.996  0.671  0.546-  30 2.51  25 2.54  28 2.55  22 2.55  35 2.55  23 2.57  34 2.59  36 2.60
                            31 2.60
  34  0.333  0.671  0.546-  29 2.51  26 2.54  28 2.55  24 2.55  35 2.55  23 2.57  33 2.59  36 2.60
                            32 2.60
  35  0.667  0.667  0.546-  24 2.54  27 2.54  22 2.54  34 2.55  32 2.55  29 2.55  30 2.55  33 2.55
                            31 2.55
  36  0.333  0.333  0.549-  37 1.86  38 1.86  31 2.60  29 2.60  33 2.60  34 2.60  32 2.60  30 2.60
                            23 2.62  20 2.62  21 2.62
  37  0.280  0.333  0.635-  38 0.82  36 1.86
  38  0.387  0.333  0.635-  37 0.82  36 1.86
 
  LATTYP: Found a hexagonal cell.
 ALAT       =     7.6967864036
 C/A-ratio  =     2.7653617908
  
  Lattice vectors:
  
 A1 = (  -3.8483927580,  -6.6656128093,   0.0000000000)
 A2 = (   7.6967864037,   0.0000000000,   0.0000000000)
 A3 = (   0.0000000000,   0.0000000000,  21.2843990326)


Analysis of symmetry for initial positions (statically):
=====================================================================
 Subroutine PRICEL returns:
 Original cell was already a primitive cell.
 

 Routine SETGRP: Setting up the symmetry group for a 
 hexagonal supercell.


 Subroutine GETGRP returns: Found  2 space group operations
 (whereof  2 operations were pure point group operations)
 out of a pool of 24 trial point group operations.


The static configuration has the point symmetry C_1h.


Analysis of symmetry for dynamics (positions and initial velocities):
=====================================================================
 Subroutine PRICEL returns:
 Original cell was already a primitive cell.
 

 Routine SETGRP: Setting up the symmetry group for a 
 hexagonal supercell.


 Subroutine GETGRP returns: Found  2 space group operations
 (whereof  2 operations were pure point group operations)
 out of a pool of 24 trial point group operations.


The dynamic configuration has the point symmetry C_1h.


Analysis of constrained symmetry for selective dynamics:
=====================================================================
 Subroutine PRICEL returns:
 Original cell was already a primitive cell.
 

 Routine SETGRP: Setting up the symmetry group for a 
 hexagonal supercell.


 Subroutine GETGRP returns: Found  2 space group operations
 (whereof  2 operations were pure point group operations)
 out of a pool of 24 trial point group operations.


The constrained configuration has the point symmetry C_1h.


 Subroutine INISYM returns: Found  2 space group operations
 (whereof  2 operations are pure point group operations),
 and found     1 'primitive' translations


----------------------------------------------------------------------------------------

                                     Primitive cell                                     

  volume of cell :    1091.9705

  direct lattice vectors                    reciprocal lattice vectors
     7.696786404  0.000000000  0.000000000     0.129924354 -0.075011849  0.000000000
     3.848392758  6.665612809  0.000000000     0.000000000  0.150023716  0.000000000
     0.000000000  0.000000000 21.284399033     0.000000000  0.000000000  0.046982769

  length of vectors
     7.696786404  7.696786404 21.284399033     0.150023716  0.150023716  0.046982769

  position of ions in fractional coordinates (direct lattice)
     0.000000000  0.000000000  0.252370745
     0.333333343  0.000000000  0.252370745
     0.666666687  0.000000000  0.252370745
     1.000000000  0.333333343  0.252370745
     0.333333313  0.333333343  0.252370745
     0.666666687  0.333333343  0.252370745
     1.000000000  0.666666687  0.252370745
     0.333333373  0.666666687  0.252370745
     0.666666627  0.666666687  0.252370745
     0.111111119  0.111111112  0.350790262
     0.444444418  0.111111112  0.350790262
     0.777777791  0.111111112  0.350790262
     0.111111119  0.444444448  0.350790262
     0.444444478  0.444444448  0.350790262
     0.777777731  0.444444448  0.350790262
     0.111111112  0.777777731  0.350790262
     0.444444478  0.777777731  0.350790262
     0.777777851  0.777777731  0.350790262
     0.888815442  0.222369132  0.448213960
     0.221692367  0.221692352  0.448208639
     0.556615327  0.221692352  0.448208639
     0.889042275  0.555478833  0.448559563
     0.221692337  0.556615267  0.448208639
     0.555478893  0.555478833  0.448559563
     0.888815442  0.888815442  0.448213960
     0.222369147  0.888815442  0.448213960
     0.555478833  0.889042275  0.448559563
     0.000000000  0.000000000  0.545478605
     0.333095982  0.996307002  0.546040504
     0.670597045  0.996307002  0.546040504
     0.996307002  0.333095982  0.546040504
     0.670597045  0.333095982  0.546040504
     0.996307002  0.670597045  0.546040504
     0.333096012  0.670597045  0.546040504
     0.666666627  0.666666687  0.545524233
     0.333333313  0.333333343  0.549484442
     0.280306832  0.332867093  0.634916097
     0.386826044  0.332867093  0.634916097

  ion indices of the primitive-cell ions
   primitive index   ion index
                 1           1
                 2           2
                 3           3
                 4           4
                 5           5
                 6           6
                 7           7
                 8           8
                 9           9
                10          10
                11          11
                12          12
                13          13
                14          14
                15          15
                16          16
                17          17
                18          18
                19          19
                20          20
                21          21
                22          22
                23          23
                24          24
                25          25
                26          26
                27          27
                28          28
                29          29
                30          30
                31          31
                32          32
                33          33
                34          34
                35          35
                36          36
                37          37
                38          38

----------------------------------------------------------------------------------------

 
 
 KPOINTS: Automatic mesh                          

Automatic generation of k-mesh.
 Grid dimensions read from file:
 generate k-points for:    8    8    1

 Generating k-lattice:

  Cartesian coordinates                     Fractional coordinates (reciprocal lattice)
     0.016240544 -0.009376481  0.000000000     0.125000000 -0.000000000  0.000000000
     0.000000000  0.018752964  0.000000000     0.000000000  0.125000000  0.000000000
     0.000000000  0.000000000  0.046982769     0.000000000  0.000000000  1.000000000

  Length of vectors
     0.018752964  0.018752964  0.046982769

  Shift w.r.t. Gamma in fractional coordinates (k-lattice)
     0.000000000  0.000000000  0.000000000

 TETIRR: Found    100 inequivalent tetrahedra from      384
 
 Subroutine IBZKPT returns following result:
 ===========================================
 
 Found     21 irreducible k-points:
 
 Following reciprocal coordinates:
            Coordinates               Weight
  0.000000  0.000000  0.000000      1.000000
  0.125000 -0.000000  0.000000      4.000000
  0.000000  0.125000  0.000000      2.000000
  0.250000 -0.000000  0.000000      4.000000
  0.000000  0.250000  0.000000      2.000000
  0.375000 -0.000000  0.000000      4.000000
  0.000000  0.375000  0.000000      2.000000
  0.500000 -0.000000  0.000000      2.000000
  0.000000  0.500000  0.000000      1.000000
  0.250000  0.125000  0.000000      2.000000
  0.125000  0.250000  0.000000      4.000000
  0.375000  0.125000  0.000000      4.000000
  0.250000  0.375000  0.000000      4.000000
 -0.125000  0.250000  0.000000      4.000000
  0.500000  0.125000  0.000000      4.000000
  0.375000  0.500000  0.000000      4.000000
 -0.125000  0.375000  0.000000      4.000000
  0.500000  0.250000  0.000000      2.000000
  0.250000  0.500000  0.000000      4.000000
 -0.375000  0.250000  0.000000      4.000000
 -0.250000  0.375000  0.000000      2.000000
 
 Following cartesian coordinates:
            Coordinates               Weight
  0.000000  0.000000  0.000000      1.000000
  0.016241 -0.009376  0.000000      4.000000
  0.000000  0.018753  0.000000      2.000000
  0.032481 -0.018753  0.000000      4.000000
  0.000000  0.037506  0.000000      2.000000
  0.048722 -0.028129  0.000000      4.000000
  0.000000  0.056259  0.000000      2.000000
  0.064962 -0.037506  0.000000      2.000000
  0.000000  0.075012  0.000000      1.000000
  0.032481  0.000000  0.000000      2.000000
  0.016241  0.028129  0.000000      4.000000
  0.048722 -0.009376  0.000000      4.000000
  0.032481  0.037506  0.000000      4.000000
 -0.016241  0.046882  0.000000      4.000000
  0.064962 -0.018753  0.000000      4.000000
  0.048722  0.046882  0.000000      4.000000
 -0.016241  0.065635  0.000000      4.000000
  0.064962  0.000000  0.000000      2.000000
  0.032481  0.056259  0.000000      4.000000
 -0.048722  0.065635  0.000000      4.000000
 -0.032481  0.075012  0.000000      2.000000
 


--------------------------------------------------------------------------------------------------------




 Dimension of arrays:
   k-points           NKPTS =     21   k-points in BZ     NKDIM =     21   number of bands    NBANDS=    252
   number of dos      NEDOS =    301   number of ions     NIONS =     38
   non local maximal  LDIM  =      6   non local SUM 2l+1 LMDIM =     18
   total plane-waves  NPLWV = 211680
   max r-space proj   IRMAX =   2893   max aug-charges    IRDMAX=   9602
   dimension x,y,z NGX =    42 NGY =   42 NGZ =  120
   dimension x,y,z NGXF=    84 NGYF=   84 NGZF=  240
   support grid    NGXF=    84 NGYF=   84 NGZF=  240
   ions per type =              35   1   2
   NGX,Y,Z   is equivalent  to a cutoff of   9.07,  9.07,  9.37 a.u.
   NGXF,Y,Z  is equivalent  to a cutoff of  18.14, 18.14, 18.75 a.u.

 SYSTEM =  unknown system                          
 POSCAR =  Cu-Pd-H2                                

 Startparameter for this run:
   NWRITE =      2    write-flag & timer
   PREC   = normal    normal or accurate (medium, high low for compatibility)
   ISTART =      0    job   : 0-new  1-cont  2-samecut
   ICHARG =     11    charge: 1-file 2-atom 10-const
   ISPIN  =      1    spin polarized calculation?
   LNONCOLLINEAR =      F non collinear calculations
   LSORBIT =      F    spin-orbit coupling
   INIWAV =      1    electr: 0-lowe 1-rand  2-diag
   LASPH  =      F    aspherical Exc in radial PAW
   METAGGA=      F    non-selfconsistent MetaGGA calc.

 Electronic Relaxation 1
   ENCUT  =  500.0 eV  36.75 Ry    6.06 a.u.  14.03 14.03 38.81*2*pi/ulx,y,z
   ENINI  =  500.0     initial cutoff
   ENAUG  =  587.0 eV  augmentation charge cutoff
   NELM   =    150;   NELMIN=  2; NELMDL= -5     # of ELM steps 
   EDIFF  = 0.1E-04   stopping-criterion for ELM
   LREAL  =      T    real-space projection
   NLSPLINE    = F    spline interpolate recip. space projectors
   LCOMPAT=      F    compatible to vasp.4.4
   GGA_COMPAT  = T    GGA compatible to vasp.4.4-vasp.4.6
   LMAXPAW     = -100 max onsite density
   LMAXMIX     =    2 max onsite mixed and CHGCAR
   VOSKOWN=      0    Vosko Wilk Nusair interpolation
   ROPT   =   -0.00050  -0.00050  -0.00050
 Ionic relaxation
   EDIFFG = -.1E-01   stopping-criterion for IOM
   NSW    =      0    number of steps for IOM
   NBLOCK =      1;   KBLOCK =      1    inner block; outer block 
   IBRION =     -1    ionic relax: 0-MD 1-quasi-New 2-CG
   NFREE  =      1    steps in history (QN), initial steepest desc. (CG)
   ISIF   =      2    stress and relaxation
   IWAVPR =     10    prediction:  0-non 1-charg 2-wave 3-comb
   ISYM   =      2    0-nonsym 1-usesym 2-fastsym
   LCORR  =      T    Harris-Foulkes like correction to forces

   POTIM  = 0.5000    time-step for ionic-motion
   TEIN   =    0.0    initial temperature
   TEBEG  =    0.0;   TEEND  =   0.0 temperature during run
   SMASS  =  -3.00    Nose mass-parameter (am)
   estimated Nose-frequenzy (Omega)   =  0.10E-29 period in steps = 0.13E+47 mass=  -0.135E-26a.u.
   SCALEE = 1.0000    scale energy and forces
   NPACO  =    256;   APACO  = 16.0  distance and # of slots for P.C.
   PSTRESS=    0.0 pullay stress

  Mass of Ions in am
   POMASS =  63.55106.42  1.00
  Ionic Valenz
   ZVAL   =  11.00 10.00  1.00
  Atomic Wigner-Seitz radii
   RWIGS  =  -1.00 -1.00 -1.00
  virtual crystal weights 
   VCA    =   1.00  1.00  1.00
   NELECT =     397.0000    total number of electrons
   NUPDOWN=      -1.0000    fix difference up-down

 DOS related values:
   EMIN   =  10.00;   EMAX   =-10.00  energy-range for DOS
   EFERMI =   0.00
   ISMEAR =    -5;   SIGMA  =   0.10  broadening in eV -4-tet -1-fermi 0-gaus

 Electronic relaxation 2 (details)
   IALGO  =     68    algorithm
   LDIAG  =      T    sub-space diagonalisation (order eigenvalues)
   LSUBROT=      F    optimize rotation matrix (better conditioning)
   TURBO    =      0    0=normal 1=particle mesh
   IRESTART =      0    0=no restart 2=restart with 2 vectors
   NREBOOT  =      0    no. of reboots
   NMIN     =      0    reboot dimension
   EREF     =   0.00    reference energy to select bands
   IMIX   =      4    mixing-type and parameters
     AMIX     =   0.40;   BMIX     =  1.00
     AMIX_MAG =   1.60;   BMIX_MAG =  1.00
     AMIN     =   0.10
     WC   =   100.;   INIMIX=   1;  MIXPRE=   1;  MAXMIX= -45

 Intra band minimization:
   WEIMIN = 0.0000     energy-eigenvalue tresh-hold
   EBREAK =  0.99E-08  absolut break condition
   DEPER  =   0.30     relativ break condition  

   TIME   =   0.40     timestep for ELM

  volume/ion in A,a.u.               =      28.74       193.92
  Fermi-wavevector in a.u.,A,eV,Ry     =   1.168426  2.208006 18.574949  1.365220
  Thomas-Fermi vector in A             =   2.304913
 
 Write flags
   LWAVE        =      F    write WAVECAR
   LDOWNSAMPLE  =      F    k-point downsampling of WAVECAR
   LCHARG       =      F    write CHGCAR
   LVTOT        =      F    write LOCPOT, total local potential
   LVHAR        =      F    write LOCPOT, Hartree potential only
   LELF         =      F    write electronic localiz. function (ELF)
   LORBIT       =     10    0 simple, 1 ext, 2 COOP (PROOUT), +10 PAW based schemes


 Dipole corrections
   LMONO  =      F    monopole corrections only (constant potential shift)
   LDIPOL =      F    correct potential (dipole corrections)
   IDIPOL =      0    1-x, 2-y, 3-z, 4-all directions 
   EPSILON=  1.0000000 bulk dielectric constant

 Exchange correlation treatment:
   GGA     =    --    GGA type
   LEXCH   =     8    internal setting for exchange type
   VOSKOWN=      0    Vosko Wilk Nusair interpolation
   LHFCALC =     F    Hartree Fock is set to
   LHFONE  =     F    Hartree Fock one center treatment
   AEXX    =    0.0000 exact exchange contribution

 Linear response parameters
   LEPSILON=     F    determine dielectric tensor
   LRPA    =     F    only Hartree local field effects (RPA)
   LNABLA  =     F    use nabla operator in PAW spheres
   LVEL    =     F    velocity operator in full k-point grid
   LINTERFAST=   F  fast interpolation
   KINTER  =     0    interpolate to denser k-point grid
   CSHIFT  =0.1000    complex shift for real part using Kramers Kronig
   OMEGAMAX=  -1.0    maximum frequency
   DEG_THRESHOLD= 0.2000000E-02 threshold for treating states as degnerate
   RTIME   =   -0.100 relaxation time in fs
  (WPLASMAI=    0.000 imaginary part of plasma frequency in eV, 0.658/RTIME)
   DFIELD  = 0.0000000 0.0000000 0.0000000 field for delta impulse in time
 
 Orbital magnetization related:
   ORBITALMAG=     F  switch on orbital magnetization
   LCHIMAG   =     F  perturbation theory with respect to B field
   DQ        =  0.001000  dq finite difference perturbation B field
   LLRAUG    =     F  two centre corrections for induced B field



--------------------------------------------------------------------------------------------------------


 Static calculation
 charge density and potential remain constant during run
 non-spin polarized calculation
 RMM-DIIS sequential band-by-band and
  variant of blocked Davidson during initial phase
 perform sub-space diagonalisation
    before iterative eigenvector-optimisation
 no mixing
 using additional bands           53
 real space projection scheme for non local part
 use partial core corrections
 calculate Harris-corrections to forces 
   (improved forces if not selfconsistent)
 use gradient corrections 
 WARNING: stress and forces are not correct
  (second derivative of E(xc) not defined)
 use of overlap-Matrix (Vanderbilt PP)
 Fermi weights with tetrahedron method with Bloechl corrections


--------------------------------------------------------------------------------------------------------


  energy-cutoff  :      500.00
  volume of cell :     1091.97
      direct lattice vectors                 reciprocal lattice vectors
     7.696786404  0.000000000  0.000000000     0.129924354 -0.075011849  0.000000000
     3.848392758  6.665612809  0.000000000     0.000000000  0.150023716  0.000000000
     0.000000000  0.000000000 21.284399033     0.000000000  0.000000000  0.046982769

  length of vectors
     7.696786404  7.696786404 21.284399033     0.150023716  0.150023716  0.046982769


 
 k-points in units of 2pi/SCALE and weight: Automatic mesh                          
   0.00000000  0.00000000  0.00000000       0.016
   0.01624054 -0.00937648  0.00000000       0.062
   0.00000000  0.01875296  0.00000000       0.031
   0.03248109 -0.01875296  0.00000000       0.062
   0.00000000  0.03750593  0.00000000       0.031
   0.04872163 -0.02812944  0.00000000       0.062
   0.00000000  0.05625889  0.00000000       0.031
   0.06496218 -0.03750592  0.00000000       0.031
   0.00000000  0.07501186  0.00000000       0.016
   0.03248109  0.00000000  0.00000000       0.031
   0.01624054  0.02812945  0.00000000       0.062
   0.04872163 -0.00937648  0.00000000       0.062
   0.03248109  0.03750593  0.00000000       0.062
  -0.01624054  0.04688241  0.00000000       0.062
   0.06496218 -0.01875296  0.00000000       0.062
   0.04872163  0.04688241  0.00000000       0.062
  -0.01624054  0.06563537  0.00000000       0.062
   0.06496218  0.00000000  0.00000000       0.031
   0.03248109  0.05625890  0.00000000       0.062
  -0.04872163  0.06563537  0.00000000       0.062
  -0.03248109  0.07501186  0.00000000       0.031
 
 k-points in reciprocal lattice and weights: Automatic mesh                          
   0.00000000  0.00000000  0.00000000       0.016
   0.12500000 -0.00000000  0.00000000       0.062
   0.00000000  0.12500000  0.00000000       0.031
   0.25000000 -0.00000000  0.00000000       0.062
   0.00000000  0.25000000  0.00000000       0.031
   0.37500000 -0.00000000  0.00000000       0.062
   0.00000000  0.37500000  0.00000000       0.031
   0.50000000 -0.00000000  0.00000000       0.031
   0.00000000  0.50000000  0.00000000       0.016
   0.25000000  0.12500000  0.00000000       0.031
   0.12500000  0.25000000  0.00000000       0.062
   0.37500000  0.12500000  0.00000000       0.062
   0.25000000  0.37500000  0.00000000       0.062
  -0.12500000  0.25000000  0.00000000       0.062
   0.50000000  0.12500000  0.00000000       0.062
   0.37500000  0.50000000  0.00000000       0.062
  -0.12500000  0.37500000  0.00000000       0.062
   0.50000000  0.25000000  0.00000000       0.031
   0.25000000  0.50000000  0.00000000       0.062
  -0.37500000  0.25000000  0.00000000       0.062
  -0.25000000  0.37500000  0.00000000       0.031
 
 position of ions in fractional coordinates (direct lattice) 
   0.00000000  0.00000000  0.25237075
   0.33333334  0.00000000  0.25237075
   0.66666669  0.00000000  0.25237075
   0.00000000  0.33333334  0.25237075
   0.33333331  0.33333334  0.25237075
   0.66666669  0.33333334  0.25237075
   0.00000000  0.66666669  0.25237075
   0.33333337  0.66666669  0.25237075
   0.66666663  0.66666669  0.25237075
   0.11111112  0.11111111  0.35079026
   0.44444442  0.11111111  0.35079026
   0.77777779  0.11111111  0.35079026
   0.11111112  0.44444445  0.35079026
   0.44444448  0.44444445  0.35079026
   0.77777773  0.44444445  0.35079026
   0.11111111  0.77777773  0.35079026
   0.44444448  0.77777773  0.35079026
   0.77777785  0.77777773  0.35079026
   0.88881544  0.22236913  0.44821396
   0.22169237  0.22169235  0.44820864
   0.55661533  0.22169235  0.44820864
   0.88904227  0.55547883  0.44855956
   0.22169234  0.55661527  0.44820864
   0.55547889  0.55547883  0.44855956
   0.88881544  0.88881544  0.44821396
   0.22236915  0.88881544  0.44821396
   0.55547883  0.88904227  0.44855956
   0.00000000  0.00000000  0.54547861
   0.33309598  0.99630700  0.54604050
   0.67059705  0.99630700  0.54604050
   0.99630700  0.33309598  0.54604050
   0.67059705  0.33309598  0.54604050
   0.99630700  0.67059705  0.54604050
   0.33309601  0.67059705  0.54604050
   0.66666663  0.66666669  0.54552423
   0.33333331  0.33333334  0.54948444
   0.28030683  0.33286709  0.63491610
   0.38682604  0.33286709  0.63491610
 
 position of ions in cartesian coordinates  (Angst):
   0.00000000  0.00000000  5.37155964
   2.56559554  0.00000000  5.37155964
   5.13119109  0.00000000  5.37155964
   1.28279762  2.22187100  5.37155964
   3.84839293  2.22187100  5.37155964
   6.41398872  2.22187100  5.37155964
   2.56559525  4.44374201  5.37155964
   5.13119102  4.44374201  5.37155964
   7.69678588  4.44374201  5.37155964
   1.28279775  0.74062365  7.46635991
   3.84839295  0.74062365  7.46635991
   6.41398873  0.74062365  7.46635991
   2.56559535  2.96249461  7.46635991
   5.13119101  2.96249461  7.46635991
   7.69678586  2.96249461  7.46635991
   3.84839268  5.18436521  7.46635991
   6.41398840  5.18436521  7.46635991
   8.97958418  5.18436521  7.46635991
   7.69678637  1.48222653  9.53996477
   2.55947803  1.47771538  9.53985152
   5.13730852  1.47771538  9.53985152
   8.98046921  3.70260682  9.54732074
   3.84839272  3.71018185  9.53985152
   6.41310311  3.70260682  9.54732074
  10.26153352  5.92449960  9.53996477
   5.13203874  5.92449960  9.53996477
   7.69678578  5.92601157  9.54732074
   0.00000000  0.00000000 11.61018429
   6.39794928  6.64099672 11.62214397
   8.99562287  6.64099672 11.62214397
   8.95024636  2.22028885 11.62214397
   6.44332639  2.22028885 11.62214397
  10.24908300  4.46994026 11.62214397
   5.14448967  4.46994026 11.62214397
   7.69678588  4.44374201 11.61115546
   3.84839293  2.22187100 11.69544612
   3.43846513  2.21876316 13.51380756
   4.25832074  2.21876316 13.51380756
 


--------------------------------------------------------------------------------------------------------


 k-point   1 :   0.0000 0.0000 0.0000  plane waves:   27671
 k-point   2 :   0.1250-0.0000 0.0000  plane waves:   27649
 k-point   3 :   0.0000 0.1250 0.0000  plane waves:   27649
 k-point   4 :   0.2500-0.0000 0.0000  plane waves:   27714
 k-point   5 :   0.0000 0.2500 0.0000  plane waves:   27714
 k-point   6 :   0.3750-0.0000 0.0000  plane waves:   27740
 k-point   7 :   0.0000 0.3750 0.0000  plane waves:   27740
 k-point   8 :   0.5000-0.0000 0.0000  plane waves:   27782
 k-point   9 :   0.0000 0.5000 0.0000  plane waves:   27782
 k-point  10 :   0.2500 0.1250 0.0000  plane waves:   27698
 k-point  11 :   0.1250 0.2500 0.0000  plane waves:   27698
 k-point  12 :   0.3750 0.1250 0.0000  plane waves:   27702
 k-point  13 :   0.2500 0.3750 0.0000  plane waves:   27702
 k-point  14 :  -0.1250 0.2500 0.0000  plane waves:   27702
 k-point  15 :   0.5000 0.1250 0.0000  plane waves:   27747
 k-point  16 :   0.3750 0.5000 0.0000  plane waves:   27747
 k-point  17 :  -0.1250 0.3750 0.0000  plane waves:   27747
 k-point  18 :   0.5000 0.2500 0.0000  plane waves:   27734
 k-point  19 :   0.2500 0.5000 0.0000  plane waves:   27734
 k-point  20 :  -0.3750 0.2500 0.0000  plane waves:   27782
 k-point  21 :  -0.2500 0.3750 0.0000  plane waves:   27782

 maximum and minimum number of plane-waves per node :     27782    27649

 maximum number of plane-waves:     27782
 maximum index in each direction: 
   IXMAX=   14   IYMAX=   14   IZMAX=   38
   IXMIN=  -14   IYMIN=  -14   IZMIN=  -38


 serial   3D FFT for wavefunctions
 parallel 3D FFT for charge:
    minimum data exchange during FFTs selected (reduces bandwidth)


 total amount of memory used by VASP MPI-rank0   149707. kBytes
=======================================================================

   base      :      30000. kBytes
   nonlr-proj:      17700. kBytes
   fftplans  :       2916. kBytes
   grid      :      12390. kBytes
   one-center:        590. kBytes
   wavefun   :      86111. kBytes
 
     INWAV:  cpu time    0.0000: real time    0.0001
 initial charge density was supplied:
 number of electron     396.9999992 magnetization 
 keeping initial charge density in first step


--------------------------------------------------------------------------------------------------------


 Maximum index for non-local projection operator         2777
 Maximum index for augmentation-charges          489 (set IRDMAX)


--------------------------------------------------------------------------------------------------------


 First call to EWALD:  gamma=   0.172
 Maximum number of real-space cells 4x 4x 2
 Maximum number of reciprocal cells 2x 2x 5

    FEWALD:  cpu time    0.0013: real time    0.0013


--------------------------------------- Iteration      1(   1)  ---------------------------------------


    POTLOK:  cpu time    0.0270: real time    0.0273
    SETDIJ:  cpu time    0.0041: real time    0.0043
     EDDAV:  cpu time   11.9808: real time   11.9828
 BZINTS: Fermi energy:   14.025026;  397.000000 electrons
         Band energy: 0.268542E+04;  BLOECHL correction:   -0.038685
       DOS:  cpu time    0.0282: real time    0.0282
    --------------------------------------------
      LOOP:  cpu time   12.0401: real time   12.0426

 eigenvalue-minimisations  : 10584
 total energy-change (2. order) : 0.3555411E+04  (-0.1698350E+05)
 number of electron     396.9999992 magnetization 
 augmentation part      396.9999992 magnetization 

 Free energy of the ion-electron system (eV)
  ---------------------------------------------------
  alpha Z        PSCENC =       871.46049510
  Ewald energy   TEWEN  =    148605.54385796
  -Hartree energ DENC   =   -195951.44951962
  -exchange      EXHF   =         0.00000000
  -V(xc)+E(xc)   XCENC  =      1534.49136991
  PAW double counting   =     46667.27699205   -50376.23728698
  entropy T*S    EENTRO =         0.00000000
  eigenvalues    EBANDS =      2685.42463202
  atomic energy  EATOM  =     49518.90004557
  Solvation  Ediel_sol  =         0.00000000
  ---------------------------------------------------
  free energy    TOTEN  =      3555.41058601 eV

  energy without entropy =     3555.41058601  energy(sigma->0) =     3555.41058601


--------------------------------------------------------------------------------------------------------




--------------------------------------- Iteration      1(   2)  ---------------------------------------


     EDDAV:  cpu time   11.9449: real time   11.9456
 BZINTS: Fermi energy:    3.309085;  397.000000 electrons
         Band energy:-0.528129E+03;  BLOECHL correction:   -0.009004
       DOS:  cpu time    0.0312: real time    0.0312
    --------------------------------------------
      LOOP:  cpu time   11.9761: real time   11.9769

 eigenvalue-minimisations  : 10584
 total energy-change (2. order) :-0.3213553E+04  (-0.3077886E+04)
 number of electron     396.9999992 magnetization 
 augmentation part      396.9999992 magnetization 

 Free energy of the ion-electron system (eV)
  ---------------------------------------------------
  alpha Z        PSCENC =       871.46049510
  Ewald energy   TEWEN  =    148605.54385796
  -Hartree energ DENC   =   -195951.44951962
  -exchange      EXHF   =         0.00000000
  -V(xc)+E(xc)   XCENC  =      1534.49136991
  PAW double counting   =     46667.27699205   -50376.23728698
  entropy T*S    EENTRO =         0.00000000
  eigenvalues    EBANDS =      -528.12879969
  atomic energy  EATOM  =     49518.90004557
  Solvation  Ediel_sol  =         0.00000000
  ---------------------------------------------------
  free energy    TOTEN  =       341.85715430 eV

  energy without entropy =      341.85715430  energy(sigma->0) =      341.85715430


--------------------------------------------------------------------------------------------------------




--------------------------------------- Iteration      1(   3)  ---------------------------------------


     EDDAV:  cpu time   12.8805: real time   12.8811
 BZINTS: Fermi energy:    0.369607;  397.000000 electrons
         Band energy:-0.981553E+03;  BLOECHL correction:   -0.062765
       DOS:  cpu time    0.0272: real time    0.0272
    --------------------------------------------
      LOOP:  cpu time   12.9077: real time   12.9083

 eigenvalue-minimisations  : 11620
 total energy-change (2. order) :-0.4534244E+03  (-0.4220169E+03)
 number of electron     396.9999992 magnetization 
 augmentation part      396.9999992 magnetization 

 Free energy of the ion-electron system (eV)
  ---------------------------------------------------
  alpha Z        PSCENC =       871.46049510
  Ewald energy   TEWEN  =    148605.54385796
  -Hartree energ DENC   =   -195951.44951962
  -exchange      EXHF   =         0.00000000
  -V(xc)+E(xc)   XCENC  =      1534.49136991
  PAW double counting   =     46667.27699205   -50376.23728698
  entropy T*S    EENTRO =         0.00000000
  eigenvalues    EBANDS =      -981.55322981
  atomic energy  EATOM  =     49518.90004557
  Solvation  Ediel_sol  =         0.00000000
  ---------------------------------------------------
  free energy    TOTEN  =      -111.56727582 eV

  energy without entropy =     -111.56727582  energy(sigma->0) =     -111.56727582


--------------------------------------------------------------------------------------------------------




--------------------------------------- Iteration      1(   4)  ---------------------------------------


     EDDAV:  cpu time   13.0973: real time   13.0982
 BZINTS: Fermi energy:    0.260286;  397.000000 electrons
         Band energy:-0.100418E+04;  BLOECHL correction:   -0.059293
       DOS:  cpu time    0.0285: real time    0.0285
    --------------------------------------------
      LOOP:  cpu time   13.1258: real time   13.1267

 eigenvalue-minimisations  : 11844
 total energy-change (2. order) :-0.2262868E+02  (-0.2241476E+02)
 number of electron     396.9999992 magnetization 
 augmentation part      396.9999992 magnetization 

 Free energy of the ion-electron system (eV)
  ---------------------------------------------------
  alpha Z        PSCENC =       871.46049510
  Ewald energy   TEWEN  =    148605.54385796
  -Hartree energ DENC   =   -195951.44951962
  -exchange      EXHF   =         0.00000000
  -V(xc)+E(xc)   XCENC  =      1534.49136991
  PAW double counting   =     46667.27699205   -50376.23728698
  entropy T*S    EENTRO =         0.00000000
  eigenvalues    EBANDS =     -1004.18191063
  atomic energy  EATOM  =     49518.90004557
  Solvation  Ediel_sol  =         0.00000000
  ---------------------------------------------------
  free energy    TOTEN  =      -134.19595664 eV

  energy without entropy =     -134.19595664  energy(sigma->0) =     -134.19595664


--------------------------------------------------------------------------------------------------------




--------------------------------------- Iteration      1(   5)  ---------------------------------------


     EDDAV:  cpu time   13.1582: real time   13.1589
 BZINTS: Fermi energy:    0.257973;  397.000000 electrons
         Band energy:-0.100465E+04;  BLOECHL correction:   -0.059236
       DOS:  cpu time    0.0285: real time    0.0285
    --------------------------------------------
      LOOP:  cpu time   13.1867: real time   13.1874

 eigenvalue-minimisations  : 11900
 total energy-change (2. order) :-0.4665844E+00  (-0.4665000E+00)
 number of electron     396.9999992 magnetization 
 augmentation part      396.9999992 magnetization 

 Free energy of the ion-electron system (eV)
  ---------------------------------------------------
  alpha Z        PSCENC =       871.46049510
  Ewald energy   TEWEN  =    148605.54385796
  -Hartree energ DENC   =   -195951.44951962
  -exchange      EXHF   =         0.00000000
  -V(xc)+E(xc)   XCENC  =      1534.49136991
  PAW double counting   =     46667.27699205   -50376.23728698
  entropy T*S    EENTRO =         0.00000000
  eigenvalues    EBANDS =     -1004.64849507
  atomic energy  EATOM  =     49518.90004557
  Solvation  Ediel_sol  =         0.00000000
  ---------------------------------------------------
  free energy    TOTEN  =      -134.66254108 eV

  energy without entropy =     -134.66254108  energy(sigma->0) =     -134.66254108


--------------------------------------------------------------------------------------------------------




--------------------------------------- Iteration      1(   6)  ---------------------------------------


    EDDIAG:  cpu time    2.2056: real time    2.2060
  RMM-DIIS:  cpu time    6.3303: real time    6.3307
    ORTHCH:  cpu time    0.4367: real time    0.4367
 BZINTS: Fermi energy:    0.257906;  397.000000 electrons
         Band energy:-0.100466E+04;  BLOECHL correction:   -0.059236
       DOS:  cpu time    0.0287: real time    0.0287
    --------------------------------------------
      LOOP:  cpu time    9.0013: real time    9.0021

 eigenvalue-minimisations  : 11281
 total energy-change (2. order) :-0.1455666E-01  (-0.1455561E-01)
 number of electron     396.9999992 magnetization 
 augmentation part      396.9999992 magnetization 

 Free energy of the ion-electron system (eV)
  ---------------------------------------------------
  alpha Z        PSCENC =       871.46049510
  Ewald energy   TEWEN  =    148605.54385796
  -Hartree energ DENC   =   -195951.44951962
  -exchange      EXHF   =         0.00000000
  -V(xc)+E(xc)   XCENC  =      1534.49136991
  PAW double counting   =     46667.27699205   -50376.23728698
  entropy T*S    EENTRO =         0.00000000
  eigenvalues    EBANDS =     -1004.66305173
  atomic energy  EATOM  =     49518.90004557
  Solvation  Ediel_sol  =         0.00000000
  ---------------------------------------------------
  free energy    TOTEN  =      -134.67709774 eV

  energy without entropy =     -134.67709774  energy(sigma->0) =     -134.67709774


--------------------------------------------------------------------------------------------------------




--------------------------------------- Iteration      1(   7)  ---------------------------------------


    EDDIAG:  cpu time    2.2074: real time    2.2083
  RMM-DIIS:  cpu time    9.2279: real time    9.2284
    ORTHCH:  cpu time    0.4359: real time    0.4359
 BZINTS: Fermi energy:    0.257877;  397.000000 electrons
         Band energy:-0.100467E+04;  BLOECHL correction:   -0.059236
       DOS:  cpu time    0.0298: real time    0.0298
    --------------------------------------------
      LOOP:  cpu time   11.9009: real time   11.9024

 eigenvalue-minimisations  : 16509
 total energy-change (2. order) :-0.7144368E-02  (-0.7121420E-02)
 number of electron     396.9999992 magnetization 
 augmentation part      396.9999992 magnetization 

 Free energy of the ion-electron system (eV)
  ---------------------------------------------------
  alpha Z        PSCENC =       871.46049510
  Ewald energy   TEWEN  =    148605.54385796
  -Hartree energ DENC   =   -195951.44951962
  -exchange      EXHF   =         0.00000000
  -V(xc)+E(xc)   XCENC  =      1534.49136991
  PAW double counting   =     46667.27699205   -50376.23728698
  entropy T*S    EENTRO =         0.00000000
  eigenvalues    EBANDS =     -1004.67019610
  atomic energy  EATOM  =     49518.90004557
  Solvation  Ediel_sol  =         0.00000000
  ---------------------------------------------------
  free energy    TOTEN  =      -134.68424211 eV

  energy without entropy =     -134.68424211  energy(sigma->0) =     -134.68424211


--------------------------------------------------------------------------------------------------------




--------------------------------------- Iteration      1(   8)  ---------------------------------------


    EDDIAG:  cpu time    2.2065: real time    2.2067
  RMM-DIIS:  cpu time    8.7501: real time    8.7505
    ORTHCH:  cpu time    0.4362: real time    0.4363
 BZINTS: Fermi energy:    0.257876;  397.000000 electrons
         Band energy:-0.100467E+04;  BLOECHL correction:   -0.059236
       DOS:  cpu time    0.0298: real time    0.0298
    --------------------------------------------
      LOOP:  cpu time   11.4226: real time   11.4233

 eigenvalue-minimisations  : 15768
 total energy-change (2. order) :-0.5629148E-03  (-0.5714186E-03)
 number of electron     396.9999992 magnetization 
 augmentation part      396.9999992 magnetization 

 Free energy of the ion-electron system (eV)
  ---------------------------------------------------
  alpha Z        PSCENC =       871.46049510
  Ewald energy   TEWEN  =    148605.54385796
  -Hartree energ DENC   =   -195951.44951962
  -exchange      EXHF   =         0.00000000
  -V(xc)+E(xc)   XCENC  =      1534.49136991
  PAW double counting   =     46667.27699205   -50376.23728698
  entropy T*S    EENTRO =         0.00000000
  eigenvalues    EBANDS =     -1004.67075901
  atomic energy  EATOM  =     49518.90004557
  Solvation  Ediel_sol  =         0.00000000
  ---------------------------------------------------
  free energy    TOTEN  =      -134.68480502 eV

  energy without entropy =     -134.68480502  energy(sigma->0) =     -134.68480502


--------------------------------------------------------------------------------------------------------




--------------------------------------- Iteration      1(   9)  ---------------------------------------


    EDDIAG:  cpu time    2.2056: real time    2.2059
  RMM-DIIS:  cpu time    9.2195: real time    9.2199
    ORTHCH:  cpu time    0.4379: real time    0.4380
 BZINTS: Fermi energy:    0.257876;  397.000000 electrons
         Band energy:-0.100467E+04;  BLOECHL correction:   -0.059236
       DOS:  cpu time    0.0292: real time    0.0292
    --------------------------------------------
      LOOP:  cpu time   11.8922: real time   11.8929

 eigenvalue-minimisations  : 16467
 total energy-change (2. order) :-0.1117091E-03  (-0.1115753E-03)
 number of electron     396.9999992 magnetization 
 augmentation part      396.9999992 magnetization 

 Free energy of the ion-electron system (eV)
  ---------------------------------------------------
  alpha Z        PSCENC =       871.46049510
  Ewald energy   TEWEN  =    148605.54385796
  -Hartree energ DENC   =   -195951.44951962
  -exchange      EXHF   =         0.00000000
  -V(xc)+E(xc)   XCENC  =      1534.49136991
  PAW double counting   =     46667.27699205   -50376.23728698
  entropy T*S    EENTRO =         0.00000000
  eigenvalues    EBANDS =     -1004.67087072
  atomic energy  EATOM  =     49518.90004557
  Solvation  Ediel_sol  =         0.00000000
  ---------------------------------------------------
  free energy    TOTEN  =      -134.68491673 eV

  energy without entropy =     -134.68491673  energy(sigma->0) =     -134.68491673


--------------------------------------------------------------------------------------------------------




--------------------------------------- Iteration      1(  10)  ---------------------------------------


    EDDIAG:  cpu time    2.2061: real time    2.2063
  RMM-DIIS:  cpu time    7.8564: real time    7.8568
    ORTHCH:  cpu time    0.4364: real time    0.4365
 BZINTS: Fermi energy:    0.257876;  397.000000 electrons
         Band energy:-0.100467E+04;  BLOECHL correction:   -0.059236
       DOS:  cpu time    0.0298: real time    0.0298
    --------------------------------------------
      LOOP:  cpu time   10.5288: real time   10.5294

 eigenvalue-minimisations  : 13717
 total energy-change (2. order) :-0.1925457E-04  (-0.1930960E-04)
 number of electron     396.9999992 magnetization 
 augmentation part      396.9999992 magnetization 

 Free energy of the ion-electron system (eV)
  ---------------------------------------------------
  alpha Z        PSCENC =       871.46049510
  Ewald energy   TEWEN  =    148605.54385796
  -Hartree energ DENC   =   -195951.44951962
  -exchange      EXHF   =         0.00000000
  -V(xc)+E(xc)   XCENC  =      1534.49136991
  PAW double counting   =     46667.27699205   -50376.23728698
  entropy T*S    EENTRO =         0.00000000
  eigenvalues    EBANDS =     -1004.67088998
  atomic energy  EATOM  =     49518.90004557
  Solvation  Ediel_sol  =         0.00000000
  ---------------------------------------------------
  free energy    TOTEN  =      -134.68493599 eV

  energy without entropy =     -134.68493599  energy(sigma->0) =     -134.68493599


--------------------------------------------------------------------------------------------------------




--------------------------------------- Iteration      1(  11)  ---------------------------------------


    EDDIAG:  cpu time    2.2044: real time    2.2074
  RMM-DIIS:  cpu time    5.2344: real time    5.2347
    ORTHCH:  cpu time    0.4362: real time    0.4362
 BZINTS: Fermi energy:    0.257876;  397.000000 electrons
         Band energy:-0.100467E+04;  BLOECHL correction:   -0.059236
       DOS:  cpu time    0.0298: real time    0.0298
    --------------------------------------------
      LOOP:  cpu time    7.9048: real time    7.9081

 eigenvalue-minimisations  :  7899
 total energy-change (2. order) :-0.3147230E-05  (-0.3146743E-05)
 number of electron     396.9999992 magnetization 
 augmentation part      396.9999992 magnetization 

 Free energy of the ion-electron system (eV)
  ---------------------------------------------------
  alpha Z        PSCENC =       871.46049510
  Ewald energy   TEWEN  =    148605.54385796
  -Hartree energ DENC   =   -195951.44951962
  -exchange      EXHF   =         0.00000000
  -V(xc)+E(xc)   XCENC  =      1534.49136991
  PAW double counting   =     46667.27699205   -50376.23728698
  entropy T*S    EENTRO =         0.00000000
  eigenvalues    EBANDS =     -1004.67089312
  atomic energy  EATOM  =     49518.90004557
  Solvation  Ediel_sol  =         0.00000000
  ---------------------------------------------------
  free energy    TOTEN  =      -134.68493913 eV

  energy without entropy =     -134.68493913  energy(sigma->0) =     -134.68493913


--------------------------------------------------------------------------------------------------------




 average (electrostatic) potential at core
  the test charge radii are     0.9430  1.1199  0.5201
  (the norm of the test charge is              1.0000)
       1 -70.6775       2 -70.6440       3 -70.6439       4 -70.6430       5 -70.6534
       6 -70.6427       7 -70.6435       8 -70.6432       9 -70.6640      10 -70.9392
      11 -70.9122      12 -70.9390      13 -70.9119      14 -70.9115      15 -70.9309
      16 -70.9371      17 -70.9311      18 -70.9313      19 -70.9142      20 -70.9140
      21 -70.9138      22 -70.9447      23 -70.9121      24 -70.9443      25 -70.9153
      26 -70.9151      27 -70.9456      28 -70.6810      29 -70.6316      30 -70.6317
      31 -70.6392      32 -70.6390      33 -70.6309      34 -70.6306      35 -70.6645
      36 -80.5356      37 -38.2629      38 -38.2629
 
 
 
 E-fermi :   0.2579     XC(G=0):  -5.9277     alpha+bet : -5.3577

 Fermi energy:         0.2578760541

 k-point     1 :       0.0000    0.0000    0.0000
  band No.  band energies     occupation 
      1      -8.5398      2.00000
      2      -7.9888      2.00000
      3      -7.1311      2.00000
      4      -5.6050      2.00000
      5      -5.5375      2.00000
      6      -5.5369      2.00000
      7      -5.5155      2.00000
      8      -5.5143      2.00000
      9      -5.5126      2.00000
     10      -5.4056      2.00000
     11      -4.8070      2.00000
     12      -4.8069      2.00000
     13      -4.7719      2.00000
     14      -4.7409      2.00000
     15      -4.7383      2.00000
     16      -4.7383      2.00000
     17      -4.5735      2.00000
     18      -4.1764      2.00000
     19      -4.1761      2.00000
     20      -4.0390      2.00000
     21      -4.0303      2.00000
     22      -4.0287      2.00000
     23      -3.9585      2.00000
     24      -3.7645      2.00000
     25      -3.7644      2.00000
     26      -3.7592      2.00000
     27      -3.7470      2.00000
     28      -3.7387      2.00000
     29      -3.7147      2.00000
     30      -3.7081      2.00000
     31      -3.6859      2.00000
     32      -3.6150      2.00000
     33      -3.6026      2.00000
     34      -3.5829      2.00000
     35      -3.5622      2.00000
     36      -3.5605      2.00000
     37      -3.5603      2.00000
     38      -3.5494      2.00000
     39      -3.5407      2.00000
     40      -3.5309      2.00000
     41      -3.5000      2.00000
     42      -3.4909      2.00000
     43      -3.4884      2.00000
     44      -3.4088      2.00000
     45      -3.4087      2.00000
     46      -3.3363      2.00000
     47      -3.3179      2.00000
     48      -3.3064      2.00000
     49      -3.3003      2.00000
     50      -3.2485      2.00000
     51      -3.2473      2.00000
     52      -3.2441      2.00000
     53      -3.2108      2.00000
     54      -3.1718      2.00000
     55      -3.1543      2.00000
     56      -2.9903      2.00000
     57      -2.9619      2.00000
     58      -2.8882      2.00000
     59      -2.8882      2.00000
     60      -2.8820      2.00000
     61      -2.8619      2.00000
     62      -2.8115      2.00000
     63      -2.8114      2.00000
     64      -2.7713      2.00000
     65      -2.7695      2.00000
     66      -2.7625      2.00000
     67      -2.7542      2.00000
     68      -2.7538      2.00000
     69      -2.7252      2.00000
     70      -2.7249      2.00000
     71      -2.7180      2.00000
     72      -2.7013      2.00000
     73      -2.6591      2.00000
     74      -2.6263      2.00000
     75      -2.6258      2.00000
     76      -2.5812      2.00000
     77      -2.5758      2.00000
     78      -2.5707      2.00000
     79      -2.5609      2.00000
     80      -2.5406      2.00000
     81      -2.5193      2.00000
     82      -2.5184      2.00000
     83      -2.5160      2.00000
     84      -2.4611      2.00000
     85      -2.4550      2.00000
     86      -2.4516      2.00000
     87      -2.4491      2.00000
     88      -2.4468      2.00000
     89      -2.4414      2.00000
     90      -2.4412      2.00000
     91      -2.4285      2.00000
     92      -2.4060      2.00000
     93      -2.3874      2.00000
     94      -2.3744      2.00000
     95      -2.3738      2.00000
     96      -2.3473      2.00000
     97      -2.3402      2.00000
     98      -2.3383      2.00000
     99      -2.3366      2.00000
    100      -2.3365      2.00000
    101      -2.3216      2.00000
    102      -2.3126      2.00000
    103      -2.2866      2.00000
    104      -2.2863      2.00000
    105      -2.2860      2.00000
    106      -2.2762      2.00000
    107      -2.2756      2.00000
    108      -2.2322      2.00000
    109      -2.0523      2.00000
    110      -2.0378      2.00000
    111      -2.0322      2.00000
    112      -2.0312      2.00000
    113      -2.0296      2.00000
    114      -2.0238      2.00000
    115      -2.0210      2.00000
    116      -2.0209      2.00000
    117      -2.0168      2.00000
    118      -2.0078      2.00000
    119      -2.0054      2.00000
    120      -2.0038      2.00000
    121      -1.9612      2.00000
    122      -1.9549      2.00000
    123      -1.8424      2.00000
    124      -1.8363      2.00000
    125      -1.8329      2.00000
    126      -1.8261      2.00000
    127      -1.8203      2.00000
    128      -1.8184      2.00000
    129      -1.8071      2.00000
    130      -1.7831      2.00000
    131      -1.7828      2.00000
    132      -1.7751      2.00000
    133      -1.7739      2.00000
    134      -1.7737      2.00000
    135      -1.7070      2.00000
    136      -1.7067      2.00000
    137      -1.7066      2.00000
    138      -1.7014      2.00000
    139      -1.6992      2.00000
    140      -1.6976      2.00000
    141      -1.6715      2.00000
    142      -1.6696      2.00000
    143      -1.5694      2.00000
    144      -1.5691      2.00000
    145      -1.5667      2.00000
    146      -1.5613      2.00000
    147      -1.5586      2.00000
    148      -1.5491      2.00000
    149      -1.5451      2.00000
    150      -1.5433      2.00000
    151      -1.5431      2.00000
    152      -1.5375      2.00000
    153      -1.5374      2.00000
    154      -1.5297      2.00000
    155      -1.4253      2.00000
    156      -1.4245      2.00000
    157      -1.4242      2.00000
    158      -1.4233      2.00000
    159      -1.4208      2.00000
    160      -1.4157      2.00000
    161      -1.4154      2.00000
    162      -1.4122      2.00000
    163      -1.4048      2.00000
    164      -1.3974      2.00000
    165      -1.3944      2.00000
    166      -1.3928      2.00000
    167      -1.3746      2.00000
    168      -1.3648      2.00000
    169      -1.3640      2.00000
    170      -1.3521      2.00000
    171      -1.3426      2.00000
    172      -1.3416      2.00000
    173      -1.3415      2.00000
    174      -1.3415      2.00000
    175      -1.3388      2.00000
    176      -1.3379      2.00000
    177      -1.3332      2.00000
    178      -1.3309      2.00000
    179      -1.3296      2.00000
    180      -1.3210      2.00000
    181      -1.3199      2.00000
    182      -1.3079      2.00000
    183      -1.3021      2.00000
    184      -1.3006      2.00000
    185      -1.3004      2.00000
    186      -1.2439      2.00000
    187      -1.2434      2.00000
    188      -1.2286      2.00000
    189      -1.2241      2.00000
    190      -1.2204      2.00000
    191      -1.2054      2.00000
    192      -1.1910      2.00000
    193      -1.1855      2.00000
    194      -1.1684      2.00000
    195      -1.0921      2.00000
    196      -1.0892      2.00000
    197      -0.6378      2.00000
    198      -0.0379      2.00000
    199      -0.0354      2.00000
    200      -0.0344      2.00000
    201      -0.0333      2.74971
    202      -0.0090      2.67667
    203       0.1031      1.19976
    204       0.8146      0.00000
    205       2.2836      0.00000
    206       2.2851      0.00000
    207       2.3049      0.00000
    208       2.3065      0.00000
    209       2.3735      0.00000
    210       3.0846      0.00000
    211       3.6979      0.00000
    212       3.7882      0.00000
    213       3.9366      0.00000
    214       3.9766      0.00000
    215       4.0013      0.00000
    216       4.0367      0.00000
    217       4.2834      0.00000
    218       4.4404      0.00000
    219       4.5616      0.00000
    220       4.7294      0.00000
    221       4.7392      0.00000
    222       4.7411      0.00000
    223       4.7929      0.00000
    224       4.8130      0.00000
    225       4.8218      0.00000
    226       5.0326      0.00000
    227       5.0435      0.00000
    228       5.4772      0.00000
    229       5.5763      0.00000
    230       5.6811      0.00000
    231       5.9019      0.00000
    232       6.1602      0.00000
    233       6.2610      0.00000
    234       6.5973      0.00000
    235       6.6348      0.00000
    236       6.7035      0.00000
    237       6.8567      0.00000
    238       6.9435      0.00000
    239       7.0271      0.00000
    240       7.0313      0.00000
    241       7.0608      0.00000
    242       7.3422      0.00000
    243       7.4595      0.00000
    244       7.4995      0.00000
    245       7.5833      0.00000
    246       7.6363      0.00000
    247       7.6401      0.00000
    248       7.6839      0.00000
    249       7.7163      0.00000
    250       7.9093      0.00000
    251       7.9738      0.00000
    252       8.0057      0.00000

 k-point     2 :       0.1250   -0.0000    0.0000
  band No.  band energies     occupation 
      1      -8.4881      2.00000
      2      -7.9822      2.00000
      3      -7.0837      2.00000
      4      -6.0715      2.00000
      5      -5.7668      2.00000
      6      -5.7358      2.00000
      7      -5.5309      2.00000
      8      -5.2400      2.00000
      9      -5.2082      2.00000
     10      -5.0792      2.00000
     11      -5.0321      2.00000
     12      -4.8963      2.00000
     13      -4.8128      2.00000
     14      -4.7296      2.00000
     15      -4.6243      2.00000
     16      -4.5747      2.00000
     17      -4.4882      2.00000
     18      -4.1864      2.00000
     19      -4.1573      2.00000
     20      -4.0620      2.00000
     21      -4.0254      2.00000
     22      -4.0166      2.00000
     23      -3.9515      2.00000
[...]
  0.000   0.000   0.000   0.000   0.000   0.000   0.000   0.000   0.000   0.000   0.000   0.000   0.000   0.000   0.000   0.000
  0.000   0.000   0.000   0.000   0.000   0.000   0.000   0.000   0.000   0.000   0.000   0.000   0.000   0.000   0.000   0.000
  0.000   0.000   0.000   0.000   0.000   0.000   0.000   0.000   0.000   0.000   1.000   0.000   0.000   0.000   0.000   0.000
  0.000   0.000   0.000   0.000   0.000   0.000   0.000   0.000   0.000   0.000   0.000   0.000   0.000   0.000   0.000   0.000
  0.000   0.000   0.000   0.000   0.000   0.000   0.000   0.000   0.000   0.000   0.000   0.000   0.000   0.000   0.000   0.000
  0.000   0.000   0.000   0.000   0.000   0.000   0.000   0.000   0.000   0.000   0.000   0.000   0.000   0.000   0.000   0.000
  0.000   0.000   0.000   0.000   0.000   0.000   0.000   0.000   0.000   0.000   0.000   0.000   0.000   0.000   0.000   0.000
  0.000   0.000   0.000   0.000   0.000   0.000   0.000   0.000   0.000   0.000   0.000   0.000   0.000   0.000   0.000   0.000
  0.000   0.000   0.000   0.000   0.000   0.000   0.000   0.000   0.000   0.000   0.000   0.000   0.000   0.000   0.000   0.000
  0.000   0.000   0.000   0.000   0.000   0.000   0.000   0.000   0.000   0.000   0.000   0.000   0.000   0.000   0.000   0.000


------------------------ aborting loop because EDIFF is reached ----------------------------------------





 total charge

# of ion       s       p       d       tot
------------------------------------------
    1        0.444   0.287   9.186   9.917
    2        0.449   0.284   9.188   9.921
    3        0.449   0.284   9.188   9.921
    4        0.449   0.284   9.188   9.922
    5        0.446   0.287   9.187   9.920
    6        0.449   0.284   9.188   9.922
    7        0.450   0.284   9.188   9.922
    8        0.450   0.284   9.188   9.922
    9        0.446   0.285   9.187   9.918
   10        0.441   0.375   9.178   9.994
   11        0.444   0.370   9.181   9.994
   12        0.441   0.375   9.178   9.994
   13        0.444   0.370   9.181   9.995
   14        0.444   0.370   9.181   9.995
   15        0.438   0.373   9.181   9.992
   16        0.441   0.375   9.178   9.994
   17        0.438   0.373   9.181   9.992
   18        0.438   0.373   9.181   9.992
   19        0.446   0.375   9.183  10.004
   20        0.439   0.379   9.178   9.997
   21        0.439   0.379   9.178   9.997
   22        0.440   0.376   9.179   9.995
   23        0.439   0.379   9.178   9.997
   24        0.440   0.376   9.179   9.995
   25        0.445   0.375   9.184  10.004
   26        0.445   0.375   9.184  10.004
   27        0.440   0.376   9.179   9.996
   28        0.455   0.293   9.191   9.939
   29        0.452   0.293   9.198   9.943
   30        0.452   0.293   9.198   9.943
   31        0.451   0.295   9.196   9.943
   32        0.451   0.295   9.196   9.943
   33        0.452   0.293   9.198   9.942
   34        0.452   0.293   9.198   9.942
   35        0.453   0.295   9.192   9.940
   36        0.498   0.538   8.549   9.585
   37        0.556   0.030   0.000   0.587
   38        0.556   0.030   0.000   0.587
--------------------------------------------------
tot         17.203  12.260 330.047 359.509
 
    CHARGE:  cpu time    0.4140: real time    0.4140
    FORLOC:  cpu time    0.0076: real time    0.0076
    FORNL :  cpu time    2.3969: real time    2.3972
    STRESS:  cpu time    7.1396: real time    7.1401
    FORCOR:  cpu time    0.0265: real time    0.0265
    FORHAR:  cpu time    0.0116: real time    0.0118
    OFIELD:  cpu time    0.0001: real time    0.0001

  FORCE on cell =-STRESS in cart. coord.  units (eV):
  Direction    XX          YY          ZZ          XY          YZ          ZX
  --------------------------------------------------------------------------------------
  Alpha Z   871.46050   871.46050   871.46050
  Ewald  174742.85797174721.56105************     0.00038    -0.04058     0.00018
  Hartree187865.30987187861.74887************     0.00004     0.00187     0.00007
  E(xc)   -2305.89523 -2306.19990 -2310.16237    -0.00030    -0.00244    -0.00003
  Local  ************************376099.45906     0.01963     0.00170    -0.00070
  n-local  -759.03799  -758.88153  -776.58107     1.62330     0.00063     0.08695
  augment  3382.79563  3383.47734  3396.64262    -0.01823     0.01078     0.00022
  Kinetic  3283.94967  3290.68945  3305.21703     0.78085     0.03312    -0.13925
  Fock        0.00000     0.00000     0.00000     0.00000     0.00000     0.00000
  -------------------------------------------------------------------------------------
  Total       1.87614     1.66765     6.33211    -0.00000     0.00508    -0.00000
  in kB       2.75274     2.44684     9.29070    -0.00000     0.00745    -0.00000
  external pressure =        4.83 kB  Pullay stress =        0.00 kB


 VOLUME and BASIS-vectors are now :
 -----------------------------------------------------------------------------
  energy-cutoff  :      500.00
  volume of cell :     1091.97
      direct lattice vectors                 reciprocal lattice vectors
     7.696786404  0.000000000  0.000000000     0.129924354 -0.075011849  0.000000000
     3.848392758  6.665612809  0.000000000     0.000000000  0.150023716  0.000000000
     0.000000000  0.000000000 21.284399033     0.000000000  0.000000000  0.046982769

  length of vectors
     7.696786404  7.696786404 21.284399033     0.150023716  0.150023716  0.046982769


 FORCES acting on ions
    electron-ion (+dipol)            ewald-force                    non-local-force                 convergence-correction
 -----------------------------------------------------------------------------------------------
   -.405E-04 -.101E-01 0.349E+04   0.579E-04 -.183E-02 -.349E+04   -.221E-09 0.332E-02 -.270E+01   -.259E-03 0.832E-02 -.135E+01
   -.310E+00 -.220E-01 0.349E+04   0.397E+00 0.282E+00 -.349E+04   -.330E-01 -.113E+00 -.201E+01   -.509E-01 -.136E+00 -.111E+01
   0.310E+00 -.220E-01 0.349E+04   -.398E+00 0.282E+00 -.349E+04   0.330E-01 -.113E+00 -.201E+01   0.517E-01 -.134E+00 -.111E+01
   -.192E+00 -.215E+00 0.349E+04   0.444E+00 0.203E+00 -.349E+04   -.115E+00 0.225E-01 -.199E+01   -.129E+00 -.132E-01 -.110E+01
   -.617E-04 0.483E-01 0.349E+04   0.116E-03 0.148E-03 -.349E+04   0.944E-09 -.142E-01 -.217E+01   0.122E-01 -.320E-01 -.861E+00
   0.192E+00 -.215E+00 0.349E+04   -.444E+00 0.203E+00 -.349E+04   0.115E+00 0.225E-01 -.199E+01   0.127E+00 -.119E-01 -.109E+01
   0.159E+00 0.239E+00 0.349E+04   0.467E-01 -.484E+00 -.349E+04   -.823E-01 0.934E-01 -.200E+01   -.111E+00 0.144E+00 -.109E+01
   -.158E+00 0.239E+00 0.349E+04   -.470E-01 -.484E+00 -.349E+04   0.823E-01 0.934E-01 -.200E+01   0.114E+00 0.143E+00 -.108E+01
   -.143E-03 -.570E-01 0.349E+04   0.263E-03 0.169E-02 -.349E+04   -.886E-09 0.133E-01 -.237E+01   -.133E-01 0.404E-01 -.117E+01
   -.222E+01 -.126E+01 0.118E+04   0.247E+01 0.141E+01 -.118E+04   -.195E+00 -.117E+00 -.831E+00   -.188E-01 -.140E-01 -.423E+00
   -.913E-04 -.330E+01 0.117E+04   0.191E-03 0.328E+01 -.117E+04   0.321E-08 -.482E-01 -.950E+00   0.113E-01 0.423E-01 -.272E+00
   0.222E+01 -.126E+01 0.118E+04   -.247E+01 0.141E+01 -.118E+04   0.195E+00 -.117E+00 -.831E+00   0.173E-01 -.121E-01 -.423E+00
   -.288E+01 0.167E+01 0.117E+04   0.285E+01 -.164E+01 -.117E+04   -.289E-01 0.115E-01 -.949E+00   0.434E-01 -.344E-01 -.238E+00
   0.288E+01 0.167E+01 0.117E+04   -.285E+01 -.164E+01 -.117E+04   0.289E-01 0.115E-01 -.949E+00   -.192E-01 -.349E-01 -.238E+00
   -.142E-03 -.147E+01 0.118E+04   0.298E-03 0.140E+01 -.118E+04   -.237E-08 0.356E-01 -.561E+00   -.380E-02 0.355E-01 -.433E+00
   -.921E-04 0.253E+01 0.118E+04   0.186E-03 -.285E+01 -.118E+04   -.150E-07 0.226E+00 -.829E+00   -.160E-04 0.469E-01 -.425E+00
   -.128E+01 0.699E+00 0.118E+04   0.120E+01 -.689E+00 -.118E+04   0.223E-01 -.554E-02 -.574E+00   0.519E-01 -.518E-02 -.476E+00
   0.128E+01 0.699E+00 0.118E+04   -.120E+01 -.689E+00 -.118E+04   -.223E-01 -.554E-02 -.574E+00   -.515E-01 -.267E-02 -.476E+00
   -.592E-04 -.171E+01 -.115E+04   0.688E-04 0.166E+01 0.114E+04   -.583E-09 0.875E-02 0.742E+00   0.955E-02 0.271E-01 0.406E+00
   -.271E+02 -.156E+02 -.118E+04   0.271E+02 0.156E+02 0.118E+04   -.199E+00 -.132E+00 -.634E-01   0.151E+00 0.119E+00 0.405E+00
   0.271E+02 -.156E+02 -.118E+04   -.271E+02 0.156E+02 0.118E+04   0.199E+00 -.132E+00 -.634E-01   -.129E+00 0.122E+00 0.404E+00
   -.127E+02 0.727E+01 -.116E+04   0.123E+02 -.698E+01 0.116E+04   0.340E+00 -.192E+00 0.991E+00   0.116E+00 -.105E+00 0.380E+00
   -.772E-04 0.312E+02 -.118E+04   0.149E-03 -.312E+02 0.118E+04   -.132E-07 0.198E+00 -.374E-01   0.119E-01 -.192E+00 0.433E+00
   0.127E+02 0.727E+01 -.116E+04   -.123E+02 -.698E+01 0.116E+04   -.340E+00 -.192E+00 0.991E+00   -.119E+00 -.104E+00 0.380E+00
   0.149E+01 0.910E+00 -.115E+04   -.148E+01 -.902E+00 0.114E+04   -.102E-01 -.214E-01 0.788E+00   0.227E-01 0.163E-01 0.411E+00
   -.149E+01 0.910E+00 -.115E+04   0.148E+01 -.902E+00 0.114E+04   0.102E-01 -.214E-01 0.788E+00   0.304E-03 0.144E-01 0.412E+00
   -.134E-03 -.146E+02 -.116E+04   0.245E-03 0.141E+02 0.116E+04   -.245E-07 0.368E+00 0.972E+00   -.282E-02 0.135E+00 0.362E+00
   -.222E-04 0.390E+00 -.347E+04   0.418E-04 -.411E+00 0.346E+04   0.686E-09 -.103E-01 0.197E+01   0.127E-03 0.258E-01 0.101E+01
   -.194E+02 -.310E+02 -.346E+04   0.192E+02 0.303E+02 0.346E+04   0.176E+00 0.518E+00 0.251E+01   -.504E-02 0.669E-01 0.832E+00
   0.194E+02 -.310E+02 -.346E+04   -.192E+02 0.303E+02 0.346E+04   -.176E+00 0.518E+00 0.251E+01   0.547E-02 0.695E-01 0.833E+00
   -.360E+02 -.880E+00 -.346E+04   0.354E+02 0.101E+01 0.346E+04   0.462E+00 -.903E-01 0.245E+01   0.248E-01 -.237E-01 0.858E+00
   0.360E+02 -.880E+00 -.346E+04   -.354E+02 0.101E+01 0.346E+04   -.462E+00 -.903E-01 0.245E+01   -.262E-01 -.222E-01 0.858E+00
   -.179E+02 0.319E+02 -.346E+04   0.175E+02 -.313E+02 0.346E+04   0.322E+00 -.423E+00 0.250E+01   0.459E-01 -.443E-01 0.822E+00
   0.179E+02 0.319E+02 -.346E+04   -.175E+02 -.313E+02 0.346E+04   -.322E+00 -.423E+00 0.250E+01   -.423E-01 -.453E-01 0.820E+00
   -.148E-03 -.358E+00 -.347E+04   0.255E-03 0.382E+00 0.347E+04   -.134E-08 0.201E-01 0.219E+01   -.135E-01 -.413E-01 0.106E+01
   -.618E-04 -.128E+00 -.312E+04   0.120E-03 0.129E+00 0.311E+04   -.125E-09 0.188E-02 0.301E+01   0.391E-02 0.607E-02 0.619E+00
   0.199E+02 0.129E-01 -.370E+03   -.239E+02 -.154E-01 0.371E+03   0.396E+01 0.782E-03 -.724E+00   0.932E-02 -.640E-04 0.143E-01
   -.199E+02 0.129E-01 -.370E+03   0.239E+02 -.154E-01 0.371E+03   -.396E+01 0.782E-03 -.724E+00   -.919E-02 -.526E-04 0.142E-01
 -----------------------------------------------------------------------------------------------
   -.224E-03 0.416E-01 0.253E+01   0.135E-12 0.239E-12 0.796E-12   0.621E-08 -.932E-01 -.535E+00   0.862E-01 0.539E-01 -.204E+01
 
 
 POSITION                                       TOTAL-FORCE (eV/Angst)
 -----------------------------------------------------------------------------------
      0.00000      0.00000      5.37156         0.000000     -0.000365      0.115504
      2.56560      0.00000      5.37156         0.003339      0.011301      0.089046
      5.13119      0.00000      5.37156        -0.003339      0.011301      0.089046
      1.28280      2.22187      5.37156         0.009326     -0.002162      0.089272
      3.84839      2.22187      5.37156        -0.000000      0.002253      0.055492
      6.41399      2.22187      5.37156        -0.009326     -0.002162      0.089272
      2.56560      4.44374      5.37156         0.010741     -0.008637      0.088087
      5.13119      4.44374      5.37156        -0.010741     -0.008637      0.088087
      7.69679      4.44374      5.37156         0.000000     -0.001653      0.086380
      1.28280      0.74062      7.46636         0.042874      0.025556     -0.097304
      3.84839      0.74062      7.46636         0.000000     -0.025323     -0.141053
      6.41399      0.74062      7.46636        -0.042874      0.025556     -0.097304
      2.56560      2.96249      7.46636        -0.022486      0.014285     -0.141606
      5.13119      2.96249      7.46636         0.022486      0.014285     -0.141606
      7.69679      2.96249      7.46636         0.000000     -0.001097     -0.059840
      3.84839      5.18437      7.46636         0.000000     -0.051950     -0.098251
      6.41399      5.18437      7.46636        -0.002789     -0.000356     -0.058522
      8.97958      5.18437      7.46636         0.002789     -0.000356     -0.058522
      7.69679      1.48223      9.53996         0.000000     -0.008097     -0.001290
      2.55948      1.47772      9.53985         0.029956      0.015831     -0.051111
      5.13731      1.47772      9.53985        -0.029956      0.015831     -0.051111
      8.98047      3.70261      9.54732         0.013376     -0.008964      0.016499
      3.84839      3.71018      9.53985         0.000000     -0.037002     -0.053376
      6.41310      3.70261      9.54732        -0.013376     -0.008964      0.016499
     10.26153      5.92450      9.53996         0.007952      0.002701     -0.002947
      5.13204      5.92450      9.53996        -0.007952      0.002701     -0.002947
      7.69679      5.92601      9.54732        -0.000000      0.016834      0.015832
      0.00000      0.00000     11.61018         0.000000     -0.005065     -0.024483
      6.39795      6.64100     11.62214        -0.065828     -0.126810     -0.058656
      8.99562      6.64100     11.62214         0.065828     -0.126810     -0.058656
      8.95025      2.22029     11.62214        -0.127631      0.015066     -0.047854
      6.44333      2.22029     11.62214         0.127631      0.015066     -0.047854
     10.24908      4.46994     11.62214        -0.090277      0.113836     -0.056814
      5.14449      4.46994     11.62214         0.090277      0.113836     -0.056814
      7.69679      4.44374     11.61116        -0.000000      0.002985     -0.000349
      3.84839      2.22187     11.69545        -0.000000      0.009006      0.593888
      3.43847      2.21876     13.51381        -0.030086     -0.001912     -0.012316
      4.25832      2.21876     13.51381         0.030086     -0.001912     -0.012316
 -----------------------------------------------------------------------------------
    total drift:                                0.085952      0.002298     -0.045313


--------------------------------------------------------------------------------------------------------



  FREE ENERGIE OF THE ION-ELECTRON SYSTEM (eV)
  ---------------------------------------------------
  free  energy   TOTEN  =      -134.68493913 eV

  energy  without entropy=     -134.68493913  energy(sigma->0) =     -134.68493913
 


--------------------------------------------------------------------------------------------------------


    POTLOK:  cpu time    0.0280: real time    0.0280


--------------------------------------------------------------------------------------------------------


 stress matrix after NEB project (eV)
      1.87614     -0.00000     -0.00000
     -0.00000      1.66765      0.00508
     -0.00000      0.00508      6.33211
  FORCES: max atom, RMS     0.032565    0.007471
  FORCE total and by dimension    0.046054    0.030086
  Stress total and by dimension    6.811510    6.332111
     LOOP+:  cpu time  135.9951: real time  136.0135
 -----------------------------------------------------------------------------
|                                                                             |
|           W    W    AA    RRRRR   N    N  II  N    N   GGGG   !!!           |
|           W    W   A  A   R    R  NN   N  II  NN   N  G    G  !!!           |
|           W    W  A    A  R    R  N N  N  II  N N  N  G       !!!           |
|           W WW W  AAAAAA  RRRRR   N  N N  II  N  N N  G  GGG   !            |
|           WW  WW  A    A  R   R   N   NN  II  N   NN  G    G                |
|           W    W  A    A  R    R  N    N  II  N    N   GGGG   !!!           |
|                                                                             |
|     Tetrahedron method does not include variations of the Fermi             |
|     occupations, so forces and stress will be inaccurate. We suggest        |
|     using a different smearing scheme ISMEAR = 1 or 2 for metals in         |
|     relaxations.                                                            |
|                                                                             |
 -----------------------------------------------------------------------------

    4ORBIT:  cpu time    0.0000: real time    0.0000



 total charge

# of ion       s       p       d       tot
------------------------------------------
    1        0.444   0.287   9.186   9.917
    2        0.449   0.284   9.188   9.921
    3        0.449   0.284   9.188   9.921
    4        0.449   0.284   9.188   9.922
    5        0.446   0.287   9.187   9.920
    6        0.449   0.284   9.188   9.922
    7        0.450   0.284   9.188   9.922
    8        0.450   0.284   9.188   9.922
    9        0.446   0.285   9.187   9.918
   10        0.441   0.375   9.178   9.994
   11        0.444   0.370   9.181   9.994
   12        0.441   0.375   9.178   9.994
   13        0.444   0.370   9.181   9.995
   14        0.444   0.370   9.181   9.995
   15        0.438   0.373   9.181   9.992
   16        0.441   0.375   9.178   9.994
   17        0.438   0.373   9.181   9.992
   18        0.438   0.373   9.181   9.992
   19        0.446   0.375   9.183  10.004
   20        0.439   0.379   9.178   9.997
   21        0.439   0.379   9.178   9.997
   22        0.440   0.376   9.179   9.995
   23        0.439   0.379   9.178   9.997
   24        0.440   0.376   9.179   9.995
   25        0.445   0.375   9.184  10.004
   26        0.445   0.375   9.184  10.004
   27        0.440   0.376   9.179   9.996
   28        0.455   0.293   9.191   9.939
   29        0.452   0.293   9.198   9.943
   30        0.452   0.293   9.198   9.943
   31        0.451   0.295   9.196   9.943
   32        0.451   0.295   9.196   9.943
   33        0.452   0.293   9.198   9.942
   34        0.452   0.293   9.198   9.942
   35        0.453   0.295   9.192   9.940
   36        0.498   0.538   8.549   9.585
   37        0.556   0.030   0.000   0.587
   38        0.556   0.030   0.000   0.587
--------------------------------------------------
tot         17.203  12.260 330.047 359.509
 
 BZINTS: Fermi energy:    0.257876;  397.000000 electrons
         Band energy:-0.100467E+04;  BLOECHL correction:   -0.059236

 total amount of memory used by VASP MPI-rank0   149707. kBytes
=======================================================================

   base      :      30000. kBytes
   nonlr-proj:      17700. kBytes
   fftplans  :       2916. kBytes
   grid      :      12390. kBytes
   one-center:        590. kBytes
   wavefun   :      86111. kBytes
 
  
  
 General timing and accounting informations for this job:
 ========================================================
  
                  Total CPU time used (sec):      147.066
                            User time (sec):      141.518
                          System time (sec):        5.548
                         Elapsed time (sec):      147.441
  
                   Maximum memory used (kb):      397008.
                   Average memory used (kb):          N/A
  
                          Minor page faults:        98750
                          Major page faults:            0
                 Voluntary context switches:         5551
