 vasp.6.2.0 18Jan21 (build Jun 12 2021 23:27:24) complex                        
  
 executed on             LinuxIFC date 2022.05.30  18:09:33
 running on   28 total cores
 distrk:  each k-point on   28 cores,    1 groups
 distr:  one band on NCORE=   1 cores,   28 groups


--------------------------------------------------------------------------------------------------------


 INCAR:
   ISMEAR = -5
   SIGMA = 0.1
   ISPIN = 1
   EDIFF = 1.d-5
   EDIFFG = -0.01
   NSW = 0
   NELM = 150
   ENCUT = 500
   ISIF = 2
   IBRION = 2
   LREAL = Auto
   ALGO = Fast
   ICHARG = 11
   LORBIT = 10
   LCHARG = .F.
   LWAVE = .F.

 POTCAR:    PAW_PBE Cu 22Jun2005                  
 POTCAR:    PAW_PBE Mo 08Apr2002                  
 POTCAR:    PAW_PBE C 08Apr2002                   
 POTCAR:    PAW_PBE O 08Apr2002                   
 POTCAR:    PAW_PBE H 15Jun2001                   
 -----------------------------------------------------------------------------
|                                                                             |
|           W    W    AA    RRRRR   N    N  II  N    N   GGGG   !!!           |
|           W    W   A  A   R    R  NN   N  II  NN   N  G    G  !!!           |
|           W    W  A    A  R    R  N N  N  II  N N  N  G       !!!           |
|           W WW W  AAAAAA  RRRRR   N  N N  II  N  N N  G  GGG   !            |
|           WW  WW  A    A  R   R   N   NN  II  N   NN  G    G                |
|           W    W  A    A  R    R  N    N  II  N    N   GGGG   !!!           |
|                                                                             |
|     For optimal performance we recommend to set                             |
|       NCORE = 2 up to number-of-cores-per-socket                            |
|     NCORE specifies how many cores store one orbital (NPAR=cpu/NCORE).      |
|     This setting can greatly improve the performance of VASP for DFT.       |
|     The default, NCORE=1 might be grossly inefficient on modern             |
|     multi-core architectures or massively parallel machines. Do your        |
|     own testing! More info at https://www.vasp.at/wiki/index.php/NCORE      |
|     Unfortunately you need to use the default for GW and RPA                |
|     calculations (for HF NCORE is supported but not extensively tested      |
|     yet).                                                                   |
|                                                                             |
 -----------------------------------------------------------------------------

 POTCAR:    PAW_PBE Cu 22Jun2005                  
   VRHFIN =Cu: d10 p1                                                                               
   LEXCH  = PE                                                                                      
   EATOM  =  1390.9808 eV,  102.2342 Ry                                                             
                                                                                                    
   TITEL  = PAW_PBE Cu 22Jun2005                                                                    
   LULTRA =        F    use ultrasoft PP ?                                                          
   IUNSCR =        1    unscreen: 0-lin 1-nonlin 2-no                                               
   RPACOR =    2.000    partial core radius                                                         
   POMASS =   63.546; ZVAL   =   11.000    mass and valenz                                          
   RCORE  =    2.300    outmost cutoff radius                                                       
   RWIGS  =    2.200; RWIGS  =    1.164    wigner-seitz radius (au A)                               
   ENMAX  =  295.446; ENMIN  =  221.585 eV                                                          
   ICORE  =        3    local potential                                                             
   LCOR   =        T    correct aug charges                                                         
   LPAW   =        T    paw PP                                                                      
   EAUG   =  586.980                                                                                
   DEXC   =    0.000                                                                                
   RMAX   =    2.344    core radius for proj-oper                                                   
   RAUG   =    1.300    factor for augmentation sphere                                              
   RDEP   =    2.302    radius for radial grids                                                     
   RDEPT  =    1.771    core radius for aug-charge                                                  
                                                                                                    
   Atomic configuration                                                                             
    9 entries                                                                                       
     n  l   j            E        occ.                                                              
     1  0  0.50     -8850.2468   2.0000                                                             
     2  0  0.50     -1062.3498   2.0000                                                             
     2  1  1.50      -916.8226   6.0000                                                             
     3  0  0.50      -114.6929   2.0000                                                             
     3  1  1.50       -72.1325   6.0000                                                             
     3  2  2.50        -5.0394  10.0000                                                             
     4  0  0.50        -4.6097   1.0000                                                             
     4  1  0.50        -4.0817   0.0000                                                             
     4  3  2.50        -1.3606   0.0000                                                             
   Description                                                                                      
     l       E           TYP  RCUT    TYP  RCUT                                                     
     2     -5.0393973     23  2.200                                                                 
     2     10.8846608     23  2.200                                                                 
     0     -4.6097109     23  2.200                                                                 
     0      8.2520465     23  2.200                                                                 
     1     -2.7211652     23  2.200                                                                 
     1     21.7055443     23  2.200                                                                 
     3      2.7211652     23  2.300                                                                 
  local pseudopotential read in
  partial core-charges read in
  partial kinetic energy density read in
  atomic valenz-charges read in
  non local Contribution for L=           2  read in
    real space projection operators read in
  non local Contribution for L=           2  read in
    real space projection operators read in
  non local Contribution for L=           0  read in
    real space projection operators read in
  non local Contribution for L=           0  read in
    real space projection operators read in
  non local Contribution for L=           1  read in
    real space projection operators read in
  non local Contribution for L=           1  read in
    real space projection operators read in
    PAW grid and wavefunctions read in
 
   number of l-projection  operators is LMAX  =           6
   number of lm-projection operators is LMMAX =          18
 
 POTCAR:    PAW_PBE Mo 08Apr2002                  
   VRHFIN =Mo: 4p5s4d                                                                               
   LEXCH  = PE                                                                                      
   EATOM  =   217.5176 eV,   15.9871 Ry                                                             
                                                                                                    
   TITEL  = PAW_PBE Mo 08Apr2002                                                                    
   LULTRA =        F    use ultrasoft PP ?                                                          
   IUNSCR =        1    unscreen: 0-lin 1-nonlin 2-no                                               
   RPACOR =    2.200    partial core radius                                                         
   POMASS =   95.940; ZVAL   =    6.000    mass and valenz                                          
   RCORE  =    2.750    outmost cutoff radius                                                       
   RWIGS  =    2.750; RWIGS  =    1.455    wigner-seitz radius (au A)                               
   ENMAX  =  224.584; ENMIN  =  168.438 eV                                                          
   RCLOC  =    2.111    cutoff for local pot                                                        
   LCOR   =        T    correct aug charges                                                         
   LPAW   =        T    paw PP                                                                      
   EAUG   =  345.278                                                                                
   DEXC   =    0.000                                                                                
   RMAX   =    2.821    core radius for proj-oper                                                   
   RAUG   =    1.300    factor for augmentation sphere                                              
   RDEP   =    2.815    radius for radial grids                                                     
   RDEPT  =    2.211    core radius for aug-charge                                                  
                                                                                                    
   Atomic configuration                                                                             
   12 entries                                                                                       
     n  l   j            E        occ.                                                              
     1  0  0.50    -19819.0341   2.0000                                                             
     2  0  0.50     -2799.0127   2.0000                                                             
     2  1  1.50     -2502.0276   6.0000                                                             
     3  0  0.50      -476.4448   2.0000                                                             
     3  1  1.50      -379.1496   6.0000                                                             
     3  2  2.50      -220.9367  10.0000                                                             
     4  0  0.50       -64.3378   2.0000                                                             
     4  1  1.50       -38.4773   6.0000                                                             
     4  2  2.50        -3.7535   5.0000                                                             
     5  0  0.50        -4.0862   1.0000                                                             
     5  1  0.50        -2.7701   0.0000                                                             
     4  3  2.50        -1.3606   0.0000                                                             
   Description                                                                                      
     l       E           TYP  RCUT    TYP  RCUT                                                     
     2     -3.7534765     23  2.500                                                                 
     2     -5.1140591     23  2.500                                                                 
     0     -4.0861560     23  2.600                                                                 
     0     13.6058260     23  2.600                                                                 
     1      5.4423304     23  2.750                                                                 
     1     27.2116520     23  2.750                                                                 
  local pseudopotential read in
  partial core-charges read in
  partial kinetic energy density read in
  atomic valenz-charges read in
  non local Contribution for L=           2  read in
    real space projection operators read in
  non local Contribution for L=           2  read in
    real space projection operators read in
  non local Contribution for L=           0  read in
    real space projection operators read in
  non local Contribution for L=           0  read in
    real space projection operators read in
  non local Contribution for L=           1  read in
    real space projection operators read in
  non local Contribution for L=           1  read in
    real space projection operators read in
    PAW grid and wavefunctions read in
 
   number of l-projection  operators is LMAX  =           6
   number of lm-projection operators is LMMAX =          18
 
 POTCAR:    PAW_PBE C 08Apr2002                   
   VRHFIN =C: s2p2                                                                                  
   LEXCH  = PE                                                                                      
   EATOM  =   147.1560 eV,   10.8157 Ry                                                             
                                                                                                    
   TITEL  = PAW_PBE C 08Apr2002                                                                     
   LULTRA =        F    use ultrasoft PP ?                                                          
   IUNSCR =        1    unscreen: 0-lin 1-nonlin 2-no                                               
   RPACOR =    1.200    partial core radius                                                         
   POMASS =   12.011; ZVAL   =    4.000    mass and valenz                                          
   RCORE  =    1.500    outmost cutoff radius                                                       
   RWIGS  =    1.630; RWIGS  =    0.863    wigner-seitz radius (au A)                               
   ENMAX  =  400.000; ENMIN  =  300.000 eV                                                          
   ICORE  =        2    local potential                                                             
   LCOR   =        T    correct aug charges                                                         
   LPAW   =        T    paw PP                                                                      
   EAUG   =  644.873                                                                                
   DEXC   =    0.000                                                                                
   RMAX   =    1.529    core radius for proj-oper                                                   
   RAUG   =    1.300    factor for augmentation sphere                                              
   RDEP   =    1.501    radius for radial grids                                                     
   RDEPT  =    1.300    core radius for aug-charge                                                  
                                                                                                    
   Atomic configuration                                                                             
    4 entries                                                                                       
     n  l   j            E        occ.                                                              
     1  0  0.50      -273.3789   2.0000                                                             
     2  0  0.50       -13.7508   2.0000                                                             
     2  1  0.50        -5.2854   2.0000                                                             
     3  2  1.50        -5.4423   0.0000                                                             
   Description                                                                                      
     l       E           TYP  RCUT    TYP  RCUT                                                     
     0    -13.7508458     23  1.200                                                                 
     0     -8.2022199     23  1.200                                                                 
     1     -5.2854383     23  1.500                                                                 
     1     34.0145650     23  1.500                                                                 
     2     -5.4423304      7  1.500                                                                 
  local pseudopotential read in
  partial core-charges read in
  partial kinetic energy density read in
  atomic valenz-charges read in
  non local Contribution for L=           0  read in
    real space projection operators read in
  non local Contribution for L=           0  read in
    real space projection operators read in
  non local Contribution for L=           1  read in
    real space projection operators read in
  non local Contribution for L=           1  read in
    real space projection operators read in
    PAW grid and wavefunctions read in
 
   number of l-projection  operators is LMAX  =           4
   number of lm-projection operators is LMMAX =           8
 
 POTCAR:    PAW_PBE O 08Apr2002                   
   VRHFIN =O: s2p4                                                                                  
   LEXCH  = PE                                                                                      
   EATOM  =   432.3788 eV,   31.7789 Ry                                                             
                                                                                                    
   TITEL  = PAW_PBE O 08Apr2002                                                                     
   LULTRA =        F    use ultrasoft PP ?                                                          
   IUNSCR =        1    unscreen: 0-lin 1-nonlin 2-no                                               
   RPACOR =    1.200    partial core radius                                                         
   POMASS =   16.000; ZVAL   =    6.000    mass and valenz                                          
   RCORE  =    1.520    outmost cutoff radius                                                       
   RWIGS  =    1.550; RWIGS  =    0.820    wigner-seitz radius (au A)                               
   ENMAX  =  400.000; ENMIN  =  300.000 eV                                                          
   ICORE  =        2    local potential                                                             
   LCOR   =        T    correct aug charges                                                         
   LPAW   =        T    paw PP                                                                      
   EAUG   =  605.392                                                                                
   DEXC   =    0.000                                                                                
   RMAX   =    1.553    core radius for proj-oper                                                   
   RAUG   =    1.300    factor for augmentation sphere                                              
   RDEP   =    1.550    radius for radial grids                                                     
   RDEPT  =    1.329    core radius for aug-charge                                                  
                                                                                                    
   Atomic configuration                                                                             
    4 entries                                                                                       
     n  l   j            E        occ.                                                              
     1  0  0.50      -514.6923   2.0000                                                             
     2  0  0.50       -23.9615   2.0000                                                             
     2  1  0.50        -9.0305   4.0000                                                             
     3  2  1.50        -9.5241   0.0000                                                             
   Description                                                                                      
     l       E           TYP  RCUT    TYP  RCUT                                                     
     0    -23.9615318     23  1.200                                                                 
     0     -9.5240782     23  1.200                                                                 
     1     -9.0304911     23  1.520                                                                 
     1      8.1634956     23  1.520                                                                 
     2     -9.5240782      7  1.500                                                                 
  local pseudopotential read in
  partial core-charges read in
  partial kinetic energy density read in
  kinetic energy density of atom read in
  atomic valenz-charges read in
  non local Contribution for L=           0  read in
    real space projection operators read in
  non local Contribution for L=           0  read in
    real space projection operators read in
  non local Contribution for L=           1  read in
    real space projection operators read in
  non local Contribution for L=           1  read in
    real space projection operators read in
    PAW grid and wavefunctions read in
 
   number of l-projection  operators is LMAX  =           4
   number of lm-projection operators is LMMAX =           8
 
 POTCAR:    PAW_PBE H 15Jun2001                   
   VRHFIN =H: ultrasoft test                                                                        
   LEXCH  = PE                                                                                      
   EATOM  =    12.4884 eV,    0.9179 Ry                                                             
                                                                                                    
   TITEL  = PAW_PBE H 15Jun2001                                                                     
   LULTRA =        F    use ultrasoft PP ?                                                          
   IUNSCR =        0    unscreen: 0-lin 1-nonlin 2-no                                               
   RPACOR =    0.000    partial core radius                                                         
   POMASS =    1.000; ZVAL   =    1.000    mass and valenz                                          
   RCORE  =    1.100    outmost cutoff radius                                                       
   RWIGS  =    0.700; RWIGS  =    0.370    wigner-seitz radius (au A)                               
   ENMAX  =  250.000; ENMIN  =  200.000 eV                                                          
   RCLOC  =    0.701    cutoff for local pot                                                        
   LCOR   =        T    correct aug charges                                                         
   LPAW   =        T    paw PP                                                                      
   EAUG   =  400.000                                                                                
   RMAX   =    1.123    core radius for proj-oper                                                   
   RAUG   =    1.200    factor for augmentation sphere                                              
   RDEP   =    1.112    radius for radial grids                                                     
   RDEPT  =    0.926    core radius for aug-charge                                                  
                                                                                                    
   Atomic configuration                                                                             
    2 entries                                                                                       
     n  l   j            E        occ.                                                              
     1  0  0.50        -6.4927   1.0000                                                             
     2  1  0.50        -3.4015   0.0000                                                             
   Description                                                                                      
     l       E           TYP  RCUT    TYP  RCUT                                                     
     0     -6.4927494     23  1.100                                                                 
     0      6.8029130     23  1.100                                                                 
     1     -4.0817478     23  1.100                                                                 
  local pseudopotential read in
  atomic valenz-charges read in
  non local Contribution for L=           0  read in
    real space projection operators read in
  non local Contribution for L=           0  read in
    real space projection operators read in
  non local Contribution for L=           1  read in
    real space projection operators read in
    PAW grid and wavefunctions read in
 
   number of l-projection  operators is LMAX  =           3
   number of lm-projection operators is LMMAX =           5
 
 Optimization of the real space projectors (new method)

 maximal supplied QI-value         = 16.25
 optimisation between [QCUT,QGAM] = [ 11.38, 22.75] = [ 36.24,144.96] Ry 
 Optimized for a Real-space Cutoff    1.52 Angstroem

   l    n(q)    QCUT    max X(q) W(low)/X(q) W(high)/X(q)  e(spline) 
   2      9    11.376     4.610    0.21E-03    0.10E-03    0.26E-06
   2      9    11.376     8.522    0.33E-03    0.16E-03    0.37E-06
   0     10    11.376    51.609    0.62E-04    0.20E-04    0.13E-06
   0     10    11.376    27.747    0.54E-04    0.20E-04    0.13E-06
   1     10    11.376    20.408    0.13E-04    0.99E-04    0.19E-06
   1     10    11.376    13.425    0.12E-04    0.87E-04    0.17E-06
 Optimization of the real space projectors (new method)

 maximal supplied QI-value         = 13.61
 optimisation between [QCUT,QGAM] = [ 11.43, 22.86] = [ 36.58,146.31] Ry 
 Optimized for a Real-space Cutoff    1.56 Angstroem

   l    n(q)    QCUT    max X(q) W(low)/X(q) W(high)/X(q)  e(spline) 
   2     10    11.429    80.908    0.27E-03    0.78E-03    0.13E-05
   2     10    11.429    79.000    0.27E-03    0.78E-03    0.13E-05
   0     11    11.429    52.066    0.33E-04    0.97E-04    0.72E-06
   0     11    11.429    24.514    0.27E-04    0.80E-04    0.60E-06
   1     10    11.429    16.033    0.31E-04    0.17E-03    0.36E-06
   1     10    11.429    11.179    0.22E-04    0.13E-03    0.29E-06
 Optimization of the real space projectors (new method)

 maximal supplied QI-value         = 25.13
 optimisation between [QCUT,QGAM] = [ 11.31, 22.87] = [ 35.82,146.48] Ry 
 Optimized for a Real-space Cutoff    1.00 Angstroem

   l    n(q)    QCUT    max X(q) W(low)/X(q) W(high)/X(q)  e(spline) 
   0      7    11.310   115.676    0.43E-03    0.13E-02    0.19E-06
   0      7    11.310    87.132    0.43E-03    0.13E-02    0.18E-06
   1      6    11.310     4.429    0.42E-03    0.74E-03    0.11E-06
   1      6    11.310     2.733    0.34E-03    0.55E-03    0.92E-07
 Optimization of the real space projectors (new method)

 maximal supplied QI-value         = 24.76
 optimisation between [QCUT,QGAM] = [ 11.39, 22.77] = [ 36.31,145.25] Ry 
 Optimized for a Real-space Cutoff    1.00 Angstroem

   l    n(q)    QCUT    max X(q) W(low)/X(q) W(high)/X(q)  e(spline) 
   0      7    11.387    20.381    0.39E-03    0.13E-02    0.15E-06
   0      7    11.387    15.268    0.42E-03    0.14E-02    0.17E-06
   1      6    11.387     5.964    0.41E-03    0.11E-02    0.17E-06
   1      6    11.387     5.382    0.39E-03    0.87E-03    0.15E-06
 Optimization of the real space projectors (new method)

 maximal supplied QI-value         = 34.20
 optimisation between [QCUT,QGAM] = [ 11.29, 22.57] = [ 35.68,142.71] Ry 
 Optimized for a Real-space Cutoff    1.16 Angstroem

   l    n(q)    QCUT    max X(q) W(low)/X(q) W(high)/X(q)  e(spline) 
   0      8    11.287    19.460    0.40E-03    0.73E-03    0.16E-06
   0      8    11.287    12.209    0.38E-03    0.70E-03    0.15E-06
   1      7    11.287     4.655    0.22E-03    0.25E-04    0.22E-06
  PAW_PBE Cu 22Jun2005                  :
 energy of atom  1       EATOM=-1390.9808
 kinetic energy error for atom=    0.0043 (will be added to EATOM!!)
  PAW_PBE Mo 08Apr2002                  :
 energy of atom  2       EATOM= -217.5176
 kinetic energy error for atom=    0.0017 (will be added to EATOM!!)
  PAW_PBE C 08Apr2002                   :
 energy of atom  3       EATOM= -147.1560
 kinetic energy error for atom=    0.0076 (will be added to EATOM!!)
  PAW_PBE O 08Apr2002                   :
 energy of atom  4       EATOM= -432.3788
 kinetic energy error for atom=    0.0224 (will be added to EATOM!!)
  PAW_PBE H 15Jun2001                   :
 energy of atom  5       EATOM=  -12.4884
 kinetic energy error for atom=    0.0020 (will be added to EATOM!!)
 
 
 POSCAR: Cu-Mo-COH
  positions in direct lattice
  velocities in cartesian coordinates
 exchange correlation table for  LEXCH =        8
   RHO(1)=    0.500       N(1)  =     2000
   RHO(2)=  100.500       N(2)  =     4000

 VTST: version 3.2, (02/03/18)

 CHAIN: initializing optimizer
 
 OPT: Using VASP Conjugate-Gradient optimizer
 CHAIN: Read ICHAIN            0
 
 POSCAR: Cu-Mo-COH
  positions in direct lattice
  velocities in cartesian coordinates
 


--------------------------------------------------------------------------------------------------------


 ion  position               nearest neighbor table
   1  0.000  0.000  0.206-   7 2.57   3 2.57   4 2.57   2 2.57   6 2.57   8 2.57  12 2.57  10 2.57
                            16 2.57
   2  0.333  0.000  0.206-   8 2.57   9 2.57   5 2.57   1 2.57   3 2.57  11 2.57   4 2.57  10 2.57
                            17 2.57
   3  0.667  0.000  0.206-   1 2.57   7 2.57   6 2.57   9 2.57   2 2.57  12 2.57   5 2.57  18 2.57
                            11 2.57
   4  0.000  0.333  0.206-   5 2.57   6 2.57   1 2.57   7 2.57   2 2.57  13 2.57   9 2.57  10 2.57
                            15 2.57
   5  0.333  0.333  0.206-   4 2.57   2 2.57   7 2.57  13 2.57   8 2.57   6 2.57   3 2.57  11 2.57
                            14 2.57
   6  0.667  0.333  0.206-   4 2.57   9 2.57  15 2.57   3 2.57   1 2.57   8 2.57  14 2.57   5 2.57
                            12 2.57
   7  0.000  0.667  0.206-   1 2.57   3 2.57  16 2.57  18 2.57   4 2.57   5 2.57   8 2.57   9 2.57
                            13 2.57
   8  0.333  0.667  0.206-   9 2.57   2 2.57  17 2.57   6 2.57   1 2.57   7 2.57   5 2.57  14 2.57
                            16 2.57
   9  0.667  0.667  0.206-   8 2.57   6 2.57   2 2.57  17 2.57   3 2.57   7 2.57   4 2.57  15 2.57
                            18 2.57
  10  0.111  0.111  0.286-  20 2.55  26 2.56  19 2.56  11 2.57  12 2.57  13 2.57   1 2.57   2 2.57
                             4 2.57  15 2.57  16 2.57  17 2.57
  11  0.444  0.111  0.286-  20 2.56  21 2.56  10 2.57  13 2.57   2 2.57  17 2.57  14 2.57  12 2.57
                             5 2.57   3 2.57  18 2.57  27 2.57
  12  0.778  0.111  0.286-  21 2.55  19 2.56  25 2.56  15 2.57  10 2.57  14 2.57  18 2.57   3 2.57
                             1 2.57  16 2.57  11 2.57   6 2.57
  13  0.111  0.444  0.286-  23 2.56  20 2.56  16 2.57  18 2.57  10 2.57  11 2.57  14 2.57   5 2.57
                             4 2.57   7 2.57  15 2.57  22 2.57
  14  0.444  0.444  0.286-  21 2.56  23 2.56  15 2.57  17 2.57  12 2.57  16 2.57  13 2.57  11 2.57
                             6 2.57   8 2.57   5 2.57  24 2.57
  15  0.778  0.444  0.286-  19 2.56  14 2.57  17 2.57  12 2.57   6 2.57  18 2.57  10 2.57   9 2.57
                            13 2.57   4 2.57  24 2.57  22 2.57
  16  0.111  0.778  0.286-  23 2.55  25 2.56  26 2.56  18 2.57  13 2.57   7 2.57  14 2.57  17 2.57
                            12 2.57  10 2.57   8 2.57   1 2.57
  17  0.444  0.778  0.286-  26 2.56  14 2.57  15 2.57   8 2.57   9 2.57  11 2.57  16 2.57  18 2.57
                            10 2.57   2 2.57  27 2.57  24 2.57
  18  0.778  0.778  0.286-  25 2.56  16 2.57  13 2.57   7 2.57  15 2.57  12 2.57  17 2.57   9 2.57
                             3 2.57  11 2.57  22 2.57  27 2.57
  19  0.889  0.222  0.366-  15 2.56  12 2.56  10 2.56  21 2.56  20 2.56  22 2.57  24 2.57  25 2.57
                            26 2.57  28 2.57  32 2.58  31 2.58
  20  0.222  0.222  0.365-  10 2.55  11 2.56  13 2.56  26 2.56  19 2.56  27 2.57  22 2.57  23 2.57
                            21 2.57  36 2.58  29 2.60  31 2.60
  21  0.556  0.222  0.365-  12 2.55  14 2.56  11 2.56  19 2.56  25 2.56  24 2.57  27 2.57  20 2.57
                            23 2.57  36 2.58  32 2.60  30 2.60
  22  0.888  0.556  0.366-  24 2.56  27 2.56  35 2.56  19 2.57  25 2.57  23 2.57  20 2.57  18 2.57
                            15 2.57  13 2.57  31 2.58  33 2.58
  23  0.222  0.556  0.365-  16 2.55  13 2.56  14 2.56  25 2.56  26 2.56  22 2.57  24 2.57  20 2.57
                            21 2.57  36 2.58  33 2.60  34 2.60
  24  0.556  0.556  0.366-  22 2.56  27 2.56  35 2.56  19 2.57  26 2.57  21 2.57  23 2.57  15 2.57
                            17 2.57  14 2.57  32 2.58  34 2.58
  25  0.889  0.889  0.366-  18 2.56  12 2.56  16 2.56  21 2.56  23 2.56  22 2.57  27 2.57  19 2.57
                            26 2.57  28 2.57  33 2.58  30 2.58
  26  0.222  0.889  0.366-  17 2.56  10 2.56  16 2.56  20 2.56  23 2.56  27 2.57  24 2.57  25 2.57
                            19 2.57  28 2.57  29 2.58  34 2.58
  27  0.556  0.888  0.366-  24 2.56  22 2.56  35 2.56  26 2.57  25 2.57  20 2.57  21 2.57  17 2.57
                            18 2.57  11 2.57  29 2.58  30 2.58
  28  0.000  0.000  0.446-  33 2.56  30 2.56  31 2.56  29 2.56  32 2.56  34 2.56  25 2.57  19 2.57
                            26 2.57
  29  0.333  0.998  0.447-  34 2.54  28 2.56  35 2.56  27 2.58  31 2.58  26 2.58  36 2.58  30 2.58
                            20 2.60
  30  0.669  0.998  0.447-  33 2.54  28 2.56  35 2.56  27 2.58  32 2.58  25 2.58  36 2.58  29 2.58
                            21 2.60
  31  0.998  0.333  0.447-  32 2.54  28 2.56  35 2.56  22 2.58  29 2.58  19 2.58  36 2.58  33 2.58
                            20 2.60
  32  0.669  0.333  0.447-  31 2.54  28 2.56  35 2.56  24 2.58  30 2.58  19 2.58  36 2.58  34 2.58
                            21 2.60
  33  0.998  0.669  0.447-  30 2.54  28 2.56  35 2.56  22 2.58  34 2.58  25 2.58  36 2.58  31 2.58
                            23 2.60
  34  0.333  0.669  0.447-  29 2.54  28 2.56  35 2.56  24 2.58  33 2.58  26 2.58  36 2.58  32 2.58
                            23 2.60
  35  0.667  0.667  0.446-  34 2.56  32 2.56  29 2.56  30 2.56  33 2.56  31 2.56  24 2.56  27 2.56
                            22 2.56
  36  0.333  0.333  0.446-  37 1.85  23 2.58  20 2.58  21 2.58  31 2.58  29 2.58  33 2.58  34 2.58
                            32 2.58  30 2.58
  37  0.333  0.333  0.517-  38 1.27  36 1.85
  38  0.333  0.333  0.565-  39 0.96  37 1.27
  39  0.333  0.333  0.602-  38 0.96
 
  LATTYP: Found a hexagonal cell.
 ALAT       =     7.6967864036
 C/A-ratio  =     3.3950614187
  
  Lattice vectors:
  
 A1 = (  -3.8483927580,  -6.6656128093,   0.0000000000)
 A2 = (   7.6967864037,   0.0000000000,   0.0000000000)
 A3 = (   0.0000000000,   0.0000000000,  26.1310625667)


Analysis of symmetry for initial positions (statically):
=====================================================================
 Subroutine PRICEL returns:
 Original cell was already a primitive cell.
 

 Routine SETGRP: Setting up the symmetry group for a 
 hexagonal supercell.


 Subroutine GETGRP returns: Found  6 space group operations
 (whereof  6 operations were pure point group operations)
 out of a pool of 24 trial point group operations.


The static configuration has the point symmetry C_3v.


Analysis of symmetry for dynamics (positions and initial velocities):
=====================================================================
 Subroutine PRICEL returns:
 Original cell was already a primitive cell.
 

 Routine SETGRP: Setting up the symmetry group for a 
 hexagonal supercell.


 Subroutine GETGRP returns: Found  6 space group operations
 (whereof  6 operations were pure point group operations)
 out of a pool of 24 trial point group operations.


The dynamic configuration has the point symmetry C_3v.


Analysis of constrained symmetry for selective dynamics:
=====================================================================
 Subroutine PRICEL returns:
 Original cell was already a primitive cell.
 

 Routine SETGRP: Setting up the symmetry group for a 
 hexagonal supercell.


 Subroutine GETGRP returns: Found  6 space group operations
 (whereof  6 operations were pure point group operations)
 out of a pool of 24 trial point group operations.


The constrained configuration has the point symmetry C_3v.


 Subroutine INISYM returns: Found  6 space group operations
 (whereof  6 operations are pure point group operations),
 and found     1 'primitive' translations


----------------------------------------------------------------------------------------

                                     Primitive cell                                     

  volume of cell :    1340.6228

  direct lattice vectors                    reciprocal lattice vectors
     7.696786404  0.000000000  0.000000000     0.129924354 -0.075011849  0.000000000
     3.848392758  6.665612809  0.000000000     0.000000000  0.150023716  0.000000000
     0.000000000  0.000000000 26.131062567     0.000000000  0.000000000  0.038268631

  length of vectors
     7.696786404  7.696786404 26.131062567     0.150023716  0.150023716  0.038268631

  position of ions in fractional coordinates (direct lattice)
     0.000000000  0.000000000  0.205562236
     0.333333343  0.000000000  0.205562236
     0.666666687  0.000000000  0.205562236
     0.000000000  0.333333343  0.205562236
     0.333333313  0.333333343  0.205562236
     0.666666687  0.333333343  0.205562236
     0.000000000  0.666666687  0.205562236
     0.333333373  0.666666687  0.205562236
     0.666666627  0.666666687  0.205562236
     0.111111119  0.111111112  0.285727375
     0.444444418  0.111111112  0.285727375
     0.777777791  0.111111112  0.285727375
     0.111111119  0.444444448  0.285727375
     0.444444478  0.444444448  0.285727375
     0.777777731  0.444444448  0.285727375
     0.111111112  0.777777731  0.285727375
     0.444444478  0.777777731  0.285727375
     0.777777851  0.777777731  0.285727375
     0.888886506  0.222227003  0.365516545
     0.221816565  0.221816550  0.365323146
     0.556366930  0.221816550  0.365323146
     0.888394348  0.555802796  0.366161095
     0.221816535  0.556366870  0.365323146
     0.555802856  0.555802796  0.366161095
     0.888886506  0.888886506  0.365516545
     0.222227018  0.888886506  0.365516545
     0.555802796  0.888394348  0.366161095
     0.000000000  0.000000000  0.445703772
     0.333056894  0.998175094  0.446729409
     0.668768042  0.998175094  0.446729409
     0.998175094  0.333056894  0.446729409
     0.668768042  0.333056894  0.446729409
     0.998175094  0.668768042  0.446729409
     0.333056924  0.668768042  0.446729409
     0.666666627  0.666666687  0.446204013
     0.333333313  0.333333343  0.445826048
     0.333333313  0.333333343  0.516551449
     0.333333313  0.333333343  0.565078392
     0.333333313  0.333333343  0.601662778

  ion indices of the primitive-cell ions
   primitive index   ion index
                 1           1
                 2           2
                 3           3
                 4           4
                 5           5
                 6           6
                 7           7
                 8           8
                 9           9
                10          10
                11          11
                12          12
                13          13
                14          14
                15          15
                16          16
                17          17
                18          18
                19          19
                20          20
                21          21
                22          22
                23          23
                24          24
                25          25
                26          26
                27          27
                28          28
                29          29
                30          30
                31          31
                32          32
                33          33
                34          34
                35          35
                36          36
                37          37
                38          38
                39          39

----------------------------------------------------------------------------------------

 
 
 KPOINTS: Automatic mesh                          

Automatic generation of k-mesh.
 Grid dimensions read from file:
 generate k-points for:    8    8    1

 Generating k-lattice:

  Cartesian coordinates                     Fractional coordinates (reciprocal lattice)
     0.016240544 -0.009376481  0.000000000     0.125000000  0.000000000  0.000000000
     0.000000000  0.018752964  0.000000000     0.000000000  0.125000000  0.000000000
     0.000000000  0.000000000  0.038268631     0.000000000  0.000000000  1.000000000

  Length of vectors
     0.018752964  0.018752964  0.038268631

  Shift w.r.t. Gamma in fractional coordinates (k-lattice)
     0.000000000  0.000000000  0.000000000

 TETIRR: Found     36 inequivalent tetrahedra from      384
 
 Subroutine IBZKPT returns following result:
 ===========================================
 
 Found     10 irreducible k-points:
 
 Following reciprocal coordinates:
            Coordinates               Weight
  0.000000  0.000000  0.000000      1.000000
  0.125000 -0.000000  0.000000      6.000000
  0.250000 -0.000000  0.000000      6.000000
  0.375000 -0.000000  0.000000      6.000000
  0.500000 -0.000000  0.000000      3.000000
  0.250000  0.125000  0.000000      6.000000
  0.375000  0.125000  0.000000     12.000000
  0.500000  0.125000  0.000000     12.000000
  0.500000  0.250000  0.000000      6.000000
 -0.375000  0.250000  0.000000      6.000000
 
 Following cartesian coordinates:
            Coordinates               Weight
  0.000000  0.000000  0.000000      1.000000
  0.016241 -0.009376  0.000000      6.000000
  0.032481 -0.018753  0.000000      6.000000
  0.048722 -0.028129  0.000000      6.000000
  0.064962 -0.037506  0.000000      3.000000
  0.032481  0.000000  0.000000      6.000000
  0.048722 -0.009376  0.000000     12.000000
  0.064962 -0.018753  0.000000     12.000000
  0.064962  0.000000  0.000000      6.000000
 -0.048722  0.065635  0.000000      6.000000
 


--------------------------------------------------------------------------------------------------------




 Dimension of arrays:
   k-points           NKPTS =     10   k-points in BZ     NKDIM =     10   number of bands    NBANDS=    252
   number of dos      NEDOS =    301   number of ions     NIONS =     39
   non local maximal  LDIM  =      6   non local SUM 2l+1 LMDIM =     18
   total plane-waves  NPLWV = 254016
   max r-space proj   IRMAX =   3087   max aug-charges    IRDMAX=  12363
   dimension x,y,z NGX =    42 NGY =   42 NGZ =  144
   dimension x,y,z NGXF=    84 NGYF=   84 NGZF=  288
   support grid    NGXF=    84 NGYF=   84 NGZF=  288
   ions per type =              35   1   1   1   1
   NGX,Y,Z   is equivalent  to a cutoff of   9.07,  9.07,  9.16 a.u.
   NGXF,Y,Z  is equivalent  to a cutoff of  18.14, 18.14, 18.32 a.u.

 SYSTEM =  unknown system                          
 POSCAR =  Cu-Mo-COH                               

 Startparameter for this run:
   NWRITE =      2    write-flag & timer
   PREC   = normal    normal or accurate (medium, high low for compatibility)
   ISTART =      0    job   : 0-new  1-cont  2-samecut
   ICHARG =     11    charge: 1-file 2-atom 10-const
   ISPIN  =      1    spin polarized calculation?
   LNONCOLLINEAR =      F non collinear calculations
   LSORBIT =      F    spin-orbit coupling
   INIWAV =      1    electr: 0-lowe 1-rand  2-diag
   LASPH  =      F    aspherical Exc in radial PAW
   METAGGA=      F    non-selfconsistent MetaGGA calc.

 Electronic Relaxation 1
   ENCUT  =  500.0 eV  36.75 Ry    6.06 a.u.  14.03 14.03 47.64*2*pi/ulx,y,z
   ENINI  =  500.0     initial cutoff
   ENAUG  =  644.9 eV  augmentation charge cutoff
   NELM   =    150;   NELMIN=  2; NELMDL= -5     # of ELM steps 
   EDIFF  = 0.1E-04   stopping-criterion for ELM
   LREAL  =      T    real-space projection
   NLSPLINE    = F    spline interpolate recip. space projectors
   LCOMPAT=      F    compatible to vasp.4.4
   GGA_COMPAT  = T    GGA compatible to vasp.4.4-vasp.4.6
   LMAXPAW     = -100 max onsite density
   LMAXMIX     =    2 max onsite mixed and CHGCAR
   VOSKOWN=      0    Vosko Wilk Nusair interpolation
   ROPT   =   -0.00050  -0.00050  -0.00050  -0.00050
   ROPT   =   -0.00050
 Ionic relaxation
   EDIFFG = -.1E-01   stopping-criterion for IOM
   NSW    =      0    number of steps for IOM
   NBLOCK =      1;   KBLOCK =      1    inner block; outer block 
   IBRION =     -1    ionic relax: 0-MD 1-quasi-New 2-CG
   NFREE  =      1    steps in history (QN), initial steepest desc. (CG)
   ISIF   =      2    stress and relaxation
   IWAVPR =     10    prediction:  0-non 1-charg 2-wave 3-comb
   ISYM   =      2    0-nonsym 1-usesym 2-fastsym
   LCORR  =      T    Harris-Foulkes like correction to forces

   POTIM  = 0.5000    time-step for ionic-motion
   TEIN   =    0.0    initial temperature
   TEBEG  =    0.0;   TEEND  =   0.0 temperature during run
   SMASS  =  -3.00    Nose mass-parameter (am)
   estimated Nose-frequenzy (Omega)   =  0.10E-29 period in steps = 0.13E+47 mass=  -0.135E-26a.u.
   SCALEE = 1.0000    scale energy and forces
   NPACO  =    256;   APACO  = 16.0  distance and # of slots for P.C.
   PSTRESS=    0.0 pullay stress

  Mass of Ions in am
   POMASS =  63.55 95.94 12.01 16.00  1.00
  Ionic Valenz
   ZVAL   =  11.00  6.00  4.00  6.00  1.00
  Atomic Wigner-Seitz radii
   RWIGS  =  -1.00 -1.00 -1.00 -1.00 -1.00
  virtual crystal weights 
   VCA    =   1.00  1.00  1.00  1.00  1.00
   NELECT =     402.0000    total number of electrons
   NUPDOWN=      -1.0000    fix difference up-down

 DOS related values:
   EMIN   =  10.00;   EMAX   =-10.00  energy-range for DOS
   EFERMI =   0.00
   ISMEAR =    -5;   SIGMA  =   0.10  broadening in eV -4-tet -1-fermi 0-gaus

 Electronic relaxation 2 (details)
   IALGO  =     68    algorithm
   LDIAG  =      T    sub-space diagonalisation (order eigenvalues)
   LSUBROT=      F    optimize rotation matrix (better conditioning)
   TURBO    =      0    0=normal 1=particle mesh
   IRESTART =      0    0=no restart 2=restart with 2 vectors
   NREBOOT  =      0    no. of reboots
   NMIN     =      0    reboot dimension
   EREF     =   0.00    reference energy to select bands
   IMIX   =      4    mixing-type and parameters
     AMIX     =   0.40;   BMIX     =  1.00
     AMIX_MAG =   1.60;   BMIX_MAG =  1.00
     AMIN     =   0.10
     WC   =   100.;   INIMIX=   1;  MIXPRE=   1;  MAXMIX= -45

 Intra band minimization:
   WEIMIN = 0.0000     energy-eigenvalue tresh-hold
   EBREAK =  0.99E-08  absolut break condition
   DEPER  =   0.30     relativ break condition  

   TIME   =   0.40     timestep for ELM

  volume/ion in A,a.u.               =      34.37       231.97
  Fermi-wavevector in a.u.,A,eV,Ry     =   1.095758  2.070682 16.336319  1.200686
  Thomas-Fermi vector in A             =   2.232088
 
 Write flags
   LWAVE        =      F    write WAVECAR
   LDOWNSAMPLE  =      F    k-point downsampling of WAVECAR
   LCHARG       =      F    write CHGCAR
   LVTOT        =      F    write LOCPOT, total local potential
   LVHAR        =      F    write LOCPOT, Hartree potential only
   LELF         =      F    write electronic localiz. function (ELF)
   LORBIT       =     10    0 simple, 1 ext, 2 COOP (PROOUT), +10 PAW based schemes


 Dipole corrections
   LMONO  =      F    monopole corrections only (constant potential shift)
   LDIPOL =      F    correct potential (dipole corrections)
   IDIPOL =      0    1-x, 2-y, 3-z, 4-all directions 
   EPSILON=  1.0000000 bulk dielectric constant

 Exchange correlation treatment:
   GGA     =    --    GGA type
   LEXCH   =     8    internal setting for exchange type
   VOSKOWN=      0    Vosko Wilk Nusair interpolation
   LHFCALC =     F    Hartree Fock is set to
   LHFONE  =     F    Hartree Fock one center treatment
   AEXX    =    0.0000 exact exchange contribution

 Linear response parameters
   LEPSILON=     F    determine dielectric tensor
   LRPA    =     F    only Hartree local field effects (RPA)
   LNABLA  =     F    use nabla operator in PAW spheres
   LVEL    =     F    velocity operator in full k-point grid
   LINTERFAST=   F  fast interpolation
   KINTER  =     0    interpolate to denser k-point grid
   CSHIFT  =0.1000    complex shift for real part using Kramers Kronig
   OMEGAMAX=  -1.0    maximum frequency
   DEG_THRESHOLD= 0.2000000E-02 threshold for treating states as degnerate
   RTIME   =   -0.100 relaxation time in fs
  (WPLASMAI=    0.000 imaginary part of plasma frequency in eV, 0.658/RTIME)
   DFIELD  = 0.0000000 0.0000000 0.0000000 field for delta impulse in time
 
 Orbital magnetization related:
   ORBITALMAG=     F  switch on orbital magnetization
   LCHIMAG   =     F  perturbation theory with respect to B field
   DQ        =  0.001000  dq finite difference perturbation B field
   LLRAUG    =     F  two centre corrections for induced B field



--------------------------------------------------------------------------------------------------------


 Static calculation
 charge density and potential remain constant during run
 non-spin polarized calculation
 RMM-DIIS sequential band-by-band and
  variant of blocked Davidson during initial phase
 perform sub-space diagonalisation
    before iterative eigenvector-optimisation
 no mixing
 using additional bands           51
 real space projection scheme for non local part
 use partial core corrections
 calculate Harris-corrections to forces 
   (improved forces if not selfconsistent)
 use gradient corrections 
 WARNING: stress and forces are not correct
  (second derivative of E(xc) not defined)
 use of overlap-Matrix (Vanderbilt PP)
 Fermi weights with tetrahedron method with Bloechl corrections


--------------------------------------------------------------------------------------------------------


  energy-cutoff  :      500.00
  volume of cell :     1340.62
      direct lattice vectors                 reciprocal lattice vectors
     7.696786404  0.000000000  0.000000000     0.129924354 -0.075011849  0.000000000
     3.848392758  6.665612809  0.000000000     0.000000000  0.150023716  0.000000000
     0.000000000  0.000000000 26.131062567     0.000000000  0.000000000  0.038268631

  length of vectors
     7.696786404  7.696786404 26.131062567     0.150023716  0.150023716  0.038268631


 
 k-points in units of 2pi/SCALE and weight: Automatic mesh                          
   0.00000000  0.00000000  0.00000000       0.016
   0.01624054 -0.00937648  0.00000000       0.094
   0.03248109 -0.01875296  0.00000000       0.094
   0.04872163 -0.02812944  0.00000000       0.094
   0.06496218 -0.03750592  0.00000000       0.047
   0.03248109  0.00000000  0.00000000       0.094
   0.04872163 -0.00937648  0.00000000       0.188
   0.06496218 -0.01875296  0.00000000       0.188
   0.06496218  0.00000000  0.00000000       0.094
  -0.04872163  0.06563537  0.00000000       0.094
 
 k-points in reciprocal lattice and weights: Automatic mesh                          
   0.00000000  0.00000000  0.00000000       0.016
   0.12500000 -0.00000000  0.00000000       0.094
   0.25000000 -0.00000000  0.00000000       0.094
   0.37500000 -0.00000000  0.00000000       0.094
   0.50000000 -0.00000000  0.00000000       0.047
   0.25000000  0.12500000  0.00000000       0.094
   0.37500000  0.12500000  0.00000000       0.188
   0.50000000  0.12500000  0.00000000       0.188
   0.50000000  0.25000000  0.00000000       0.094
  -0.37500000  0.25000000  0.00000000       0.094
 
 position of ions in fractional coordinates (direct lattice) 
   0.00000000  0.00000000  0.20556224
   0.33333334  0.00000000  0.20556224
   0.66666669  0.00000000  0.20556224
   0.00000000  0.33333334  0.20556224
   0.33333331  0.33333334  0.20556224
   0.66666669  0.33333334  0.20556224
   0.00000000  0.66666669  0.20556224
   0.33333337  0.66666669  0.20556224
   0.66666663  0.66666669  0.20556224
   0.11111112  0.11111111  0.28572738
   0.44444442  0.11111111  0.28572738
   0.77777779  0.11111111  0.28572738
   0.11111112  0.44444445  0.28572738
   0.44444448  0.44444445  0.28572738
   0.77777773  0.44444445  0.28572738
   0.11111111  0.77777773  0.28572738
   0.44444448  0.77777773  0.28572738
   0.77777785  0.77777773  0.28572738
   0.88888651  0.22222700  0.36551654
   0.22181657  0.22181655  0.36532315
   0.55636693  0.22181655  0.36532315
   0.88839435  0.55580280  0.36616109
   0.22181654  0.55636687  0.36532315
   0.55580286  0.55580280  0.36616109
   0.88888651  0.88888651  0.36551654
   0.22222702  0.88888651  0.36551654
   0.55580280  0.88839435  0.36616109
   0.00000000  0.00000000  0.44570377
   0.33305689  0.99817509  0.44672941
   0.66876804  0.99817509  0.44672941
   0.99817509  0.33305689  0.44672941
   0.66876804  0.33305689  0.44672941
   0.99817509  0.66876804  0.44672941
   0.33305692  0.66876804  0.44672941
   0.66666663  0.66666669  0.44620401
   0.33333331  0.33333334  0.44582605
   0.33333331  0.33333334  0.51655145
   0.33333331  0.33333334  0.56507839
   0.33333331  0.33333334  0.60166278
 
 position of ions in cartesian coordinates  (Angst):
   0.00000000  0.00000000  5.37155964
   2.56559554  0.00000000  5.37155964
   5.13119109  0.00000000  5.37155964
   1.28279762  2.22187100  5.37155964
   3.84839293  2.22187100  5.37155964
   6.41398872  2.22187100  5.37155964
   2.56559525  4.44374201  5.37155964
   5.13119102  4.44374201  5.37155964
   7.69678588  4.44374201  5.37155964
   1.28279775  0.74062365  7.46635991
   3.84839295  0.74062365  7.46635991
   6.41398873  0.74062365  7.46635991
   2.56559535  2.96249461  7.46635991
   5.13119101  2.96249461  7.46635991
   7.69678586  2.96249461  7.46635991
   3.84839268  5.18436521  7.46635991
   6.41398840  5.18436521  7.46635991
   8.97958418  5.18436521  7.46635991
   7.69678637  1.48127916  9.55133570
   2.56091193  1.47854324  9.54628198
   5.13587463  1.47854324  9.54628198
   8.97672899  3.70476624  9.56817847
   3.84839272  3.70852613  9.54628198
   6.41684332  3.70476624  9.56817847
  10.26235397  5.92497328  9.55133570
   5.13121829  5.92497328  9.55133570
   7.69678578  5.92169275  9.56817847
   0.00000000  0.00000000 11.64671316
   6.40483758  6.65344869 11.67351414
   8.98873458  6.65344869 11.67351414
   8.96447423  2.22002830 11.67351414
   6.42909851  2.22002830 11.67351414
  10.25642258  4.45774883 11.67351414
   5.13715010  4.45774883 11.67351414
   7.69678588  4.44374201 11.65978498
   3.84839293  2.22187100 11.64990836
   3.84839293  2.22187100 13.49803825
   3.84839293  2.22187100 14.76609881
   3.84839293  2.22187100 15.72208769
 


--------------------------------------------------------------------------------------------------------


 k-point   1 :   0.0000 0.0000 0.0000  plane waves:   33965
 k-point   2 :   0.1250-0.0000 0.0000  plane waves:   33959
 k-point   3 :   0.2500-0.0000 0.0000  plane waves:   34022
 k-point   4 :   0.3750-0.0000 0.0000  plane waves:   33996
 k-point   5 :   0.5000-0.0000 0.0000  plane waves:   34022
 k-point   6 :   0.2500 0.1250 0.0000  plane waves:   34000
 k-point   7 :   0.3750 0.1250 0.0000  plane waves:   34040
 k-point   8 :   0.5000 0.1250 0.0000  plane waves:   34057
 k-point   9 :   0.5000 0.2500 0.0000  plane waves:   34090
 k-point  10 :  -0.3750 0.2500 0.0000  plane waves:   34090

 maximum and minimum number of plane-waves per node :     34090    33959

 maximum number of plane-waves:     34090
 maximum index in each direction: 
   IXMAX=   14   IYMAX=   14   IZMAX=   47
   IXMIN=  -14   IYMIN=  -14   IZMIN=  -47


 serial   3D FFT for wavefunctions
 parallel 3D FFT for charge:
    minimum data exchange during FFTs selected (reduces bandwidth)


 total amount of memory used by VASP MPI-rank0   117782. kBytes
=======================================================================

   base      :      30000. kBytes
   nonlr-proj:      17575. kBytes
   fftplans  :       3497. kBytes
   grid      :      16027. kBytes
   one-center:        606. kBytes
   wavefun   :      50077. kBytes
 
     INWAV:  cpu time    0.0000: real time    0.0000
 initial charge density was supplied:
 number of electron     401.9999413 magnetization 
 keeping initial charge density in first step


--------------------------------------------------------------------------------------------------------


 Maximum index for non-local projection operator         2933
 Maximum index for augmentation-charges          571 (set IRDMAX)


--------------------------------------------------------------------------------------------------------


 First call to EWALD:  gamma=   0.161
 Maximum number of real-space cells 4x 4x 1
 Maximum number of reciprocal cells 2x 2x 6

    FEWALD:  cpu time    0.0012: real time    0.0012


--------------------------------------- Iteration      1(   1)  ---------------------------------------


    POTLOK:  cpu time    0.0335: real time    0.0338
    SETDIJ:  cpu time    0.0046: real time    0.0047
     EDDAV:  cpu time    6.6217: real time    6.6232
 BZINTS: Fermi energy:   12.337929;  402.000000 electrons
         Band energy: 0.237700E+04;  BLOECHL correction:   -0.044456
       DOS:  cpu time    0.0098: real time    0.0098
    --------------------------------------------
      LOOP:  cpu time    6.6695: real time    6.6715

 eigenvalue-minimisations  :  5040
 total energy-change (2. order) : 0.3506483E+04  (-0.1692084E+05)
 number of electron     401.9999413 magnetization 
 augmentation part      401.9999413 magnetization 

 Free energy of the ion-electron system (eV)
  ---------------------------------------------------
  alpha Z        PSCENC =       745.89969306
  Ewald energy   TEWEN  =    241608.79517216
  -Hartree energ DENC   =   -288558.16127848
  -exchange      EXHF   =         0.00000000
  -V(xc)+E(xc)   XCENC  =      1541.50032758
  PAW double counting   =     46969.16319914   -50671.40475762
  entropy T*S    EENTRO =         0.00000000
  eigenvalues    EBANDS =      2377.00475825
  atomic energy  EATOM  =     49493.68625954
  Solvation  Ediel_sol  =         0.00000000
  ---------------------------------------------------
  free energy    TOTEN  =      3506.48337363 eV

  energy without entropy =     3506.48337363  energy(sigma->0) =     3506.48337363


--------------------------------------------------------------------------------------------------------




--------------------------------------- Iteration      1(   2)  ---------------------------------------


     EDDAV:  cpu time    6.5999: real time    6.6001
 BZINTS: Fermi energy:    2.717298;  402.000000 electrons
         Band energy:-0.829602E+03;  BLOECHL correction:   -0.040750
       DOS:  cpu time    0.0098: real time    0.0098
    --------------------------------------------
      LOOP:  cpu time    6.6097: real time    6.6099

 eigenvalue-minimisations  :  5040
 total energy-change (2. order) :-0.3206607E+04  (-0.3080393E+04)
 number of electron     401.9999413 magnetization 
 augmentation part      401.9999413 magnetization 

 Free energy of the ion-electron system (eV)
  ---------------------------------------------------
  alpha Z        PSCENC =       745.89969306
  Ewald energy   TEWEN  =    241608.79517216
  -Hartree energ DENC   =   -288558.16127848
  -exchange      EXHF   =         0.00000000
  -V(xc)+E(xc)   XCENC  =      1541.50032758
  PAW double counting   =     46969.16319914   -50671.40475762
  entropy T*S    EENTRO =         0.00000000
  eigenvalues    EBANDS =      -829.60187710
  atomic energy  EATOM  =     49493.68625954
  Solvation  Ediel_sol  =         0.00000000
  ---------------------------------------------------
  free energy    TOTEN  =       299.87673828 eV

  energy without entropy =      299.87673828  energy(sigma->0) =      299.87673828


--------------------------------------------------------------------------------------------------------




--------------------------------------- Iteration      1(   3)  ---------------------------------------


     EDDAV:  cpu time    7.5382: real time    7.5384
 BZINTS: Fermi energy:    0.209692;  402.000000 electrons
         Band energy:-0.124546E+04;  BLOECHL correction:   -0.028021
       DOS:  cpu time    0.0098: real time    0.0098
    --------------------------------------------
      LOOP:  cpu time    7.5480: real time    7.5482

 eigenvalue-minimisations  :  5936
 total energy-change (2. order) :-0.4158547E+03  (-0.3960672E+03)
 number of electron     401.9999413 magnetization 
 augmentation part      401.9999413 magnetization 

 Free energy of the ion-electron system (eV)
  ---------------------------------------------------
  alpha Z        PSCENC =       745.89969306
  Ewald energy   TEWEN  =    241608.79517216
  -Hartree energ DENC   =   -288558.16127848
  -exchange      EXHF   =         0.00000000
  -V(xc)+E(xc)   XCENC  =      1541.50032758
  PAW double counting   =     46969.16319914   -50671.40475762
  entropy T*S    EENTRO =         0.00000000
  eigenvalues    EBANDS =     -1245.45657409
  atomic energy  EATOM  =     49493.68625954
  Solvation  Ediel_sol  =         0.00000000
  ---------------------------------------------------
  free energy    TOTEN  =      -115.97795871 eV

  energy without entropy =     -115.97795871  energy(sigma->0) =     -115.97795871


--------------------------------------------------------------------------------------------------------




--------------------------------------- Iteration      1(   4)  ---------------------------------------


     EDDAV:  cpu time    8.1846: real time    8.1847
 BZINTS: Fermi energy:   -0.109778;  402.000000 electrons
         Band energy:-0.127797E+04;  BLOECHL correction:   -0.037519
       DOS:  cpu time    0.0097: real time    0.0097
    --------------------------------------------
      LOOP:  cpu time    8.1943: real time    8.1944

 eigenvalue-minimisations  :  6552
 total energy-change (2. order) :-0.3251332E+02  (-0.3166044E+02)
 number of electron     401.9999413 magnetization 
 augmentation part      401.9999413 magnetization 

 Free energy of the ion-electron system (eV)
  ---------------------------------------------------
  alpha Z        PSCENC =       745.89969306
  Ewald energy   TEWEN  =    241608.79517216
  -Hartree energ DENC   =   -288558.16127848
  -exchange      EXHF   =         0.00000000
  -V(xc)+E(xc)   XCENC  =      1541.50032758
  PAW double counting   =     46969.16319914   -50671.40475762
  entropy T*S    EENTRO =         0.00000000
  eigenvalues    EBANDS =     -1277.96988922
  atomic energy  EATOM  =     49493.68625954
  Solvation  Ediel_sol  =         0.00000000
  ---------------------------------------------------
  free energy    TOTEN  =      -148.49127384 eV

  energy without entropy =     -148.49127384  energy(sigma->0) =     -148.49127384


--------------------------------------------------------------------------------------------------------




--------------------------------------- Iteration      1(   5)  ---------------------------------------


     EDDAV:  cpu time    8.0192: real time    8.0194
 BZINTS: Fermi energy:   -0.119923;  402.000000 electrons
         Band energy:-0.127891E+04;  BLOECHL correction:   -0.036692
       DOS:  cpu time    0.0080: real time    0.0080
    --------------------------------------------
      LOOP:  cpu time    8.0273: real time    8.0274

 eigenvalue-minimisations  :  6412
 total energy-change (2. order) :-0.9387192E+00  (-0.9336793E+00)
 number of electron     401.9999413 magnetization 
 augmentation part      401.9999413 magnetization 

 Free energy of the ion-electron system (eV)
  ---------------------------------------------------
  alpha Z        PSCENC =       745.89969306
  Ewald energy   TEWEN  =    241608.79517216
  -Hartree energ DENC   =   -288558.16127848
  -exchange      EXHF   =         0.00000000
  -V(xc)+E(xc)   XCENC  =      1541.50032758
  PAW double counting   =     46969.16319914   -50671.40475762
  entropy T*S    EENTRO =         0.00000000
  eigenvalues    EBANDS =     -1278.90860839
  atomic energy  EATOM  =     49493.68625954
  Solvation  Ediel_sol  =         0.00000000
  ---------------------------------------------------
  free energy    TOTEN  =      -149.42999301 eV

  energy without entropy =     -149.42999301  energy(sigma->0) =     -149.42999301


--------------------------------------------------------------------------------------------------------




--------------------------------------- Iteration      1(   6)  ---------------------------------------


    EDDIAG:  cpu time    1.2594: real time    1.2626
  RMM-DIIS:  cpu time    3.8438: real time    3.8438
    ORTHCH:  cpu time    0.2403: real time    0.2403
 BZINTS: Fermi energy:   -0.119985;  402.000000 electrons
         Band energy:-0.127893E+04;  BLOECHL correction:   -0.036687
       DOS:  cpu time    0.0099: real time    0.0099
    --------------------------------------------
      LOOP:  cpu time    5.3534: real time    5.3567

 eigenvalue-minimisations  :  5508
 total energy-change (2. order) :-0.1884926E-01  (-0.1884928E-01)
 number of electron     401.9999413 magnetization 
 augmentation part      401.9999413 magnetization 

 Free energy of the ion-electron system (eV)
  ---------------------------------------------------
  alpha Z        PSCENC =       745.89969306
  Ewald energy   TEWEN  =    241608.79517216
  -Hartree energ DENC   =   -288558.16127848
  -exchange      EXHF   =         0.00000000
  -V(xc)+E(xc)   XCENC  =      1541.50032758
  PAW double counting   =     46969.16319914   -50671.40475762
  entropy T*S    EENTRO =         0.00000000
  eigenvalues    EBANDS =     -1278.92745765
  atomic energy  EATOM  =     49493.68625954
  Solvation  Ediel_sol  =         0.00000000
  ---------------------------------------------------
  free energy    TOTEN  =      -149.44884227 eV

  energy without entropy =     -149.44884227  energy(sigma->0) =     -149.44884227


--------------------------------------------------------------------------------------------------------




--------------------------------------- Iteration      1(   7)  ---------------------------------------


    EDDIAG:  cpu time    1.2578: real time    1.2581
  RMM-DIIS:  cpu time    5.1902: real time    5.1902
    ORTHCH:  cpu time    0.2401: real time    0.2401
 BZINTS: Fermi energy:   -0.120015;  402.000000 electrons
         Band energy:-0.127894E+04;  BLOECHL correction:   -0.036684
       DOS:  cpu time    0.0099: real time    0.0099
    --------------------------------------------
      LOOP:  cpu time    6.6981: real time    6.6984

 eigenvalue-minimisations  :  7547
 total energy-change (2. order) :-0.8049649E-02  (-0.7960579E-02)
 number of electron     401.9999413 magnetization 
 augmentation part      401.9999413 magnetization 

 Free energy of the ion-electron system (eV)
  ---------------------------------------------------
  alpha Z        PSCENC =       745.89969306
  Ewald energy   TEWEN  =    241608.79517216
  -Hartree energ DENC   =   -288558.16127848
  -exchange      EXHF   =         0.00000000
  -V(xc)+E(xc)   XCENC  =      1541.50032758
  PAW double counting   =     46969.16319914   -50671.40475762
  entropy T*S    EENTRO =         0.00000000
  eigenvalues    EBANDS =     -1278.93550730
  atomic energy  EATOM  =     49493.68625954
  Solvation  Ediel_sol  =         0.00000000
  ---------------------------------------------------
  free energy    TOTEN  =      -149.45689192 eV

  energy without entropy =     -149.45689192  energy(sigma->0) =     -149.45689192


--------------------------------------------------------------------------------------------------------




--------------------------------------- Iteration      1(   8)  ---------------------------------------


    EDDIAG:  cpu time    1.2598: real time    1.2599
  RMM-DIIS:  cpu time    4.9913: real time    4.9913
    ORTHCH:  cpu time    0.2402: real time    0.2402
 BZINTS: Fermi energy:   -0.120017;  402.000000 electrons
         Band energy:-0.127894E+04;  BLOECHL correction:   -0.036684
       DOS:  cpu time    0.0102: real time    0.0102
    --------------------------------------------
      LOOP:  cpu time    6.5014: real time    6.5016

 eigenvalue-minimisations  :  7220
 total energy-change (2. order) :-0.6849639E-03  (-0.6684862E-03)
 number of electron     401.9999413 magnetization 
 augmentation part      401.9999413 magnetization 

 Free energy of the ion-electron system (eV)
  ---------------------------------------------------
  alpha Z        PSCENC =       745.89969306
  Ewald energy   TEWEN  =    241608.79517216
  -Hartree energ DENC   =   -288558.16127848
  -exchange      EXHF   =         0.00000000
  -V(xc)+E(xc)   XCENC  =      1541.50032758
  PAW double counting   =     46969.16319914   -50671.40475762
  entropy T*S    EENTRO =         0.00000000
  eigenvalues    EBANDS =     -1278.93619226
  atomic energy  EATOM  =     49493.68625954
  Solvation  Ediel_sol  =         0.00000000
  ---------------------------------------------------
  free energy    TOTEN  =      -149.45757688 eV

  energy without entropy =     -149.45757688  energy(sigma->0) =     -149.45757688


--------------------------------------------------------------------------------------------------------




--------------------------------------- Iteration      1(   9)  ---------------------------------------


    EDDIAG:  cpu time    1.2595: real time    1.2596
  RMM-DIIS:  cpu time    5.2423: real time    5.2423
    ORTHCH:  cpu time    0.2400: real time    0.2400
 BZINTS: Fermi energy:   -0.120018;  402.000000 electrons
         Band energy:-0.127894E+04;  BLOECHL correction:   -0.036684
       DOS:  cpu time    0.0100: real time    0.0100
    --------------------------------------------
      LOOP:  cpu time    6.7517: real time    6.7519

 eigenvalue-minimisations  :  7601
 total energy-change (2. order) :-0.1460084E-03  (-0.1444339E-03)
 number of electron     401.9999413 magnetization 
 augmentation part      401.9999413 magnetization 

 Free energy of the ion-electron system (eV)
  ---------------------------------------------------
  alpha Z        PSCENC =       745.89969306
  Ewald energy   TEWEN  =    241608.79517216
  -Hartree energ DENC   =   -288558.16127848
  -exchange      EXHF   =         0.00000000
  -V(xc)+E(xc)   XCENC  =      1541.50032758
  PAW double counting   =     46969.16319914   -50671.40475762
  entropy T*S    EENTRO =         0.00000000
  eigenvalues    EBANDS =     -1278.93633827
  atomic energy  EATOM  =     49493.68625954
  Solvation  Ediel_sol  =         0.00000000
  ---------------------------------------------------
  free energy    TOTEN  =      -149.45772289 eV

  energy without entropy =     -149.45772289  energy(sigma->0) =     -149.45772289


--------------------------------------------------------------------------------------------------------




--------------------------------------- Iteration      1(  10)  ---------------------------------------


    EDDIAG:  cpu time    1.2594: real time    1.2596
  RMM-DIIS:  cpu time    4.4020: real time    4.4021
    ORTHCH:  cpu time    0.2404: real time    0.2404
 BZINTS: Fermi energy:   -0.120018;  402.000000 electrons
         Band energy:-0.127894E+04;  BLOECHL correction:   -0.036684
       DOS:  cpu time    0.0102: real time    0.0102
    --------------------------------------------
      LOOP:  cpu time    5.9120: real time    5.9123

 eigenvalue-minimisations  :  6137
 total energy-change (2. order) :-0.1989485E-04  (-0.2001432E-04)
 number of electron     401.9999413 magnetization 
 augmentation part      401.9999413 magnetization 

 Free energy of the ion-electron system (eV)
  ---------------------------------------------------
  alpha Z        PSCENC =       745.89969306
  Ewald energy   TEWEN  =    241608.79517216
  -Hartree energ DENC   =   -288558.16127848
  -exchange      EXHF   =         0.00000000
  -V(xc)+E(xc)   XCENC  =      1541.50032758
  PAW double counting   =     46969.16319914   -50671.40475762
  entropy T*S    EENTRO =         0.00000000
  eigenvalues    EBANDS =     -1278.93635817
  atomic energy  EATOM  =     49493.68625954
  Solvation  Ediel_sol  =         0.00000000
  ---------------------------------------------------
  free energy    TOTEN  =      -149.45774279 eV

  energy without entropy =     -149.45774279  energy(sigma->0) =     -149.45774279


--------------------------------------------------------------------------------------------------------




--------------------------------------- Iteration      1(  11)  ---------------------------------------


    EDDIAG:  cpu time    1.2604: real time    1.2605
  RMM-DIIS:  cpu time    3.3233: real time    3.3234
    ORTHCH:  cpu time    0.2402: real time    0.2402
 BZINTS: Fermi energy:   -0.120018;  402.000000 electrons
         Band energy:-0.127894E+04;  BLOECHL correction:   -0.036684
       DOS:  cpu time    0.0093: real time    0.0093
    --------------------------------------------
      LOOP:  cpu time    4.8332: real time    4.8333

 eigenvalue-minimisations  :  4300
 total energy-change (2. order) :-0.3734312E-05  (-0.3940756E-05)
 number of electron     401.9999413 magnetization 
 augmentation part      401.9999413 magnetization 

 Free energy of the ion-electron system (eV)
  ---------------------------------------------------
  alpha Z        PSCENC =       745.89969306
  Ewald energy   TEWEN  =    241608.79517216
  -Hartree energ DENC   =   -288558.16127848
  -exchange      EXHF   =         0.00000000
  -V(xc)+E(xc)   XCENC  =      1541.50032758
  PAW double counting   =     46969.16319914   -50671.40475762
  entropy T*S    EENTRO =         0.00000000
  eigenvalues    EBANDS =     -1278.93636190
  atomic energy  EATOM  =     49493.68625954
  Solvation  Ediel_sol  =         0.00000000
  ---------------------------------------------------
  free energy    TOTEN  =      -149.45774652 eV

  energy without entropy =     -149.45774652  energy(sigma->0) =     -149.45774652


--------------------------------------------------------------------------------------------------------




 average (electrostatic) potential at core
  the test charge radii are     0.9430  1.2296  0.6991  0.7215  0.5201
  (the norm of the test charge is              1.0000)
       1 -71.1134       2 -71.0953       3 -71.0952       4 -71.0953       5 -71.1077
       6 -71.0950       7 -71.0952       8 -71.0950       9 -71.1021      10 -71.3797
      11 -71.3199      12 -71.3794      13 -71.3199      14 -71.3196      15 -71.3575
      16 -71.3794      17 -71.3575      18 -71.3575      19 -71.3568      20 -71.5179
      21 -71.5178      22 -71.3382      23 -71.5178      24 -71.3382      25 -71.3566
      26 -71.3568      27 -71.3382      28 -71.1571      29 -71.2337      30 -71.2336
      31 -71.2337      32 -71.2335      33 -71.2336      34 -71.2335      35 -71.1452
      36 -43.2271      37 -57.0625      38 -79.1905      39 -43.7430
 
 
 
 E-fermi :  -0.1200     XC(G=0):  -5.0267     alpha+bet : -4.4564

 Fermi energy:        -0.1200176735

 k-point     1 :       0.0000    0.0000    0.0000
  band No.  band energies     occupation 
      1     -24.2152      2.00000
      2     -14.9505      2.00000
      3      -8.9362      2.00000
      4      -7.7468      2.00000
      5      -7.1839      2.00000
      6      -6.9871      2.00000
      7      -6.9870      2.00000
      8      -6.0569      2.00000
      9      -5.9611      2.00000
     10      -5.9610      2.00000
     11      -5.9217      2.00000
     12      -5.9199      2.00000
     13      -5.9198      2.00000
     14      -5.7904      2.00000
     15      -5.2195      2.00000
     16      -5.2195      2.00000
     17      -5.2074      2.00000
     18      -5.1700      2.00000
     19      -5.1681      2.00000
     20      -5.1681      2.00000
     21      -4.9496      2.00000
     22      -4.5762      2.00000
     23      -4.5761      2.00000
     24      -4.4838      2.00000
     25      -4.4706      2.00000
     26      -4.4705      2.00000
     27      -4.3676      2.00000
     28      -4.2008      2.00000
     29      -4.1925      2.00000
     30      -4.1925      2.00000
     31      -4.1690      2.00000
     32      -4.1689      2.00000
     33      -4.1391      2.00000
     34      -4.0584      2.00000
     35      -4.0584      2.00000
     36      -4.0061      2.00000
     37      -4.0061      2.00000
     38      -4.0003      2.00000
     39      -3.9950      2.00000
     40      -3.9931      2.00000
     41      -3.9931      2.00000
     42      -3.9822      2.00000
     43      -3.9822      2.00000
     44      -3.9815      2.00000
     45      -3.9702      2.00000
     46      -3.9056      2.00000
     47      -3.9056      2.00000
     48      -3.8454      2.00000
     49      -3.8454      2.00000
     50      -3.7356      2.00000
     51      -3.7224      2.00000
     52      -3.7141      2.00000
     53      -3.7141      2.00000
[...]
  0.000   0.000   0.000   0.000   0.000   0.000   0.000   0.000   0.000   0.000   1.000   0.000   0.000   0.000   0.000   0.000
  0.000   0.000   0.000   0.000   0.000   0.000   0.000   0.000   0.000   0.000   0.000   0.000   0.000   0.000   0.000   0.000
  0.000   0.000   0.000   0.000   0.000   0.000   0.000   0.000   0.000   0.000   0.000   0.000   0.000   0.000   0.000   0.000
  0.000   0.000   0.000   0.000   0.000   0.000   0.000   0.000   0.000   0.000   0.000   0.000   0.000   0.000   0.000   0.000
  0.000   0.000   0.000   0.000   0.000   0.000   0.000   0.000   0.000   0.000   0.000   0.000   0.000   0.000   0.000   0.000
  0.000   0.000   0.000   0.000   0.000   0.000   0.000   0.000   0.000   0.000   0.000   0.000   0.000   0.000   0.000   0.000
  0.000   0.000   0.000   0.000   0.000   0.000   0.000   0.000   0.000   0.000   0.000   0.000   0.000   0.000   0.000   0.000
  0.000   0.000   0.000   0.000   0.000   0.000   0.000   0.000   0.000   0.000   0.000   0.000   0.000   0.000   0.000   0.000


------------------------ aborting loop because EDIFF is reached ----------------------------------------





 total charge

# of ion       s       p       d       tot
------------------------------------------
    1        0.448   0.284   9.190   9.922
    2        0.450   0.286   9.185   9.921
    3        0.450   0.286   9.185   9.921
    4        0.450   0.286   9.185   9.921
    5        0.448   0.288   9.180   9.916
    6        0.450   0.286   9.185   9.921
    7        0.450   0.286   9.185   9.921
    8        0.450   0.286   9.185   9.921
    9        0.448   0.284   9.190   9.921
   10        0.442   0.372   9.175   9.989
   11        0.444   0.365   9.183   9.992
   12        0.442   0.372   9.175   9.989
   13        0.444   0.365   9.183   9.992
   14        0.444   0.365   9.183   9.992
   15        0.436   0.371   9.176   9.983
   16        0.442   0.372   9.175   9.989
   17        0.436   0.371   9.176   9.983
   18        0.436   0.371   9.176   9.983
   19        0.442   0.368   9.181   9.991
   20        0.463   0.392   9.167  10.022
   21        0.463   0.392   9.167  10.022
   22        0.429   0.374   9.179   9.982
   23        0.463   0.392   9.167  10.022
   24        0.429   0.374   9.179   9.982
   25        0.442   0.368   9.181   9.991
   26        0.442   0.368   9.181   9.991
   27        0.429   0.374   9.179   9.982
   28        0.448   0.293   9.187   9.928
   29        0.466   0.312   9.170   9.948
   30        0.466   0.312   9.170   9.948
   31        0.466   0.312   9.170   9.948
   32        0.466   0.312   9.170   9.948
   33        0.466   0.312   9.170   9.948
   34        0.466   0.312   9.170   9.948
   35        0.446   0.297   9.183   9.926
   36        0.523   0.573   4.520   5.616
   37        0.926   1.433   0.000   2.359
   38        1.522   3.764   0.000   5.286
   39        0.567   0.138   0.000   0.705
--------------------------------------------------
tot         19.240  17.663 325.766 362.669
 
    CHARGE:  cpu time    0.2745: real time    0.2746
    FORLOC:  cpu time    0.0104: real time    0.0104
    FORNL :  cpu time    1.3709: real time    1.3710
    STRESS:  cpu time    4.0799: real time    4.0801
    FORCOR:  cpu time    0.0349: real time    0.0350
    FORHAR:  cpu time    0.0155: real time    0.0155
    OFIELD:  cpu time    0.0002: real time    0.0002

  FORCE on cell =-STRESS in cart. coord.  units (eV):
  Direction    XX          YY          ZZ          XY          YZ          ZX
  --------------------------------------------------------------------------------------
  Alpha Z   745.89969   745.89969   745.89969
  Ewald  267195.03202267195.03165************     0.00038     0.00013     0.00017
  Hartree280086.07238280086.07239************     0.00003     0.00007     0.00006
  E(xc)   -2322.47368 -2322.47327 -2326.81652    -0.00036    -0.00003    -0.00005
  Local  ************************560047.36964     0.01894    -0.00062    -0.00096
  n-local  -805.36184  -791.35978  -810.24932     6.99360    -0.13081     0.32139
  augment  3323.74060  3323.76097  3344.26194    -0.01764     0.00030     0.00053
  Kinetic  3419.29748  3424.78521  3388.78738     3.49202     1.75964    -1.23395
  Fock        0.00000     0.00000     0.00000     0.00000     0.00000     0.00000
  -------------------------------------------------------------------------------------
  Total      -4.38657    -4.38657     1.99998     0.00000     0.00000    -0.00000
  in kB      -5.24239    -5.24239     2.39017     0.00000     0.00000    -0.00000
  external pressure =       -2.70 kB  Pullay stress =        0.00 kB


 VOLUME and BASIS-vectors are now :
 -----------------------------------------------------------------------------
  energy-cutoff  :      500.00
  volume of cell :     1340.62
      direct lattice vectors                 reciprocal lattice vectors
     7.696786404  0.000000000  0.000000000     0.129924354 -0.075011849  0.000000000
     3.848392758  6.665612809  0.000000000     0.000000000  0.150023716  0.000000000
     0.000000000  0.000000000 26.131062567     0.000000000  0.000000000  0.038268631

  length of vectors
     7.696786404  7.696786404 26.131062567     0.150023716  0.150023716  0.038268631


 FORCES acting on ions
    electron-ion (+dipol)            ewald-force                    non-local-force                 convergence-correction
 -----------------------------------------------------------------------------------------------
   -.437E-04 -.106E-05 0.392E+04   0.581E-04 -.430E-05 -.392E+04   -.101E-16 -.733E-17 -.271E+01   -.354E-03 -.171E-03 0.743E-01
   -.737E+00 -.228E+00 0.392E+04   0.640E+00 0.352E+00 -.391E+04   0.716E-01 0.338E-01 -.178E+01   0.367E-01 -.129E+00 0.134E+00
   0.737E+00 -.228E+00 0.392E+04   -.640E+00 0.352E+00 -.391E+04   -.716E-01 0.338E-01 -.178E+01   -.358E-01 -.126E+00 0.135E+00
   -.566E+00 -.524E+00 0.392E+04   0.625E+00 0.378E+00 -.391E+04   0.651E-01 0.452E-01 -.178E+01   -.931E-01 0.961E-01 0.134E+00
   -.696E-04 -.793E-05 0.391E+04   0.116E-03 -.101E-04 -.391E+04   0.118E-17 0.216E-17 -.156E+01   0.121E-01 0.742E-02 0.182E+00
   0.566E+00 -.524E+00 0.392E+04   -.625E+00 0.378E+00 -.391E+04   -.651E-01 0.452E-01 -.178E+01   0.915E-01 0.972E-01 0.135E+00
   0.171E+00 0.752E+00 0.392E+04   -.150E-01 -.730E+00 -.391E+04   -.658E-02 -.789E-01 -.178E+01   -.127E+00 0.321E-01 0.135E+00
   -.171E+00 0.752E+00 0.392E+04   0.147E-01 -.730E+00 -.391E+04   0.658E-02 -.789E-01 -.178E+01   0.131E+00 0.306E-01 0.135E+00
   -.145E-03 -.337E-04 0.392E+04   0.263E-03 0.204E-04 -.391E+04   -.495E-18 -.155E-17 -.245E+01   -.131E-01 -.678E-02 0.983E-01
   -.353E+01 -.204E+01 0.134E+04   0.398E+01 0.230E+01 -.134E+04   -.467E+00 -.270E+00 -.110E+01   0.197E-01 0.113E-01 0.954E-02
   -.903E-04 -.386E+01 0.133E+04   0.190E-03 0.346E+01 -.133E+04   -.203E-07 0.305E+00 -.499E+00   0.120E-01 0.541E-01 0.245E-01
   0.353E+01 -.204E+01 0.134E+04   -.398E+01 0.230E+01 -.134E+04   0.467E+00 -.270E+00 -.110E+01   -.213E-01 0.124E-01 0.956E-02
   -.334E+01 0.193E+01 0.133E+04   0.299E+01 -.173E+01 -.133E+04   0.264E+00 -.152E+00 -.499E+00   0.533E-01 -.158E-01 0.245E-01
   0.334E+01 0.193E+01 0.133E+04   -.299E+01 -.173E+01 -.133E+04   -.264E+00 -.152E+00 -.499E+00   -.295E-01 -.174E-01 0.225E-01
   -.140E-03 -.236E+01 0.134E+04   0.297E-03 0.220E+01 -.134E+04   -.922E-08 0.139E+00 -.978E+00   -.338E-02 0.298E-01 -.134E-01
   -.915E-04 0.408E+01 0.134E+04   0.186E-03 -.460E+01 -.134E+04   -.359E-07 0.540E+00 -.110E+01   -.835E-03 -.259E-01 0.950E-02
   -.204E+01 0.118E+01 0.134E+04   0.190E+01 -.110E+01 -.134E+04   0.120E+00 -.693E-01 -.978E+00   0.248E-01 -.178E-01 -.135E-01
   0.204E+01 0.118E+01 0.134E+04   -.190E+01 -.110E+01 -.134E+04   -.120E+00 -.693E-01 -.978E+00   -.232E-01 -.151E-01 -.115E-01
   -.667E-04 -.633E+01 -.123E+04   0.708E-04 0.620E+01 0.123E+04   -.321E-08 0.482E-01 0.107E+01   -.108E-01 0.789E-01 -.165E+00
   -.466E+02 -.269E+02 -.128E+04   0.472E+02 0.272E+02 0.128E+04   -.102E+01 -.588E+00 -.437E+00   0.153E+00 0.881E-01 0.103E+00
   0.466E+02 -.269E+02 -.128E+04   -.472E+02 0.272E+02 0.128E+04   0.102E+01 -.588E+00 -.437E+00   -.172E+00 0.865E-01 0.102E+00
   -.242E+02 0.140E+02 -.125E+04   0.236E+02 -.136E+02 0.125E+04   0.546E+00 -.315E+00 0.882E+00   0.144E+00 -.818E-01 -.930E-01
   -.861E-04 0.538E+02 -.128E+04   0.150E-03 -.544E+02 0.128E+04   -.783E-07 0.118E+01 -.437E+00   -.121E-01 -.193E+00 0.102E+00
   0.242E+02 0.140E+02 -.125E+04   -.236E+02 -.136E+02 0.125E+04   -.546E+00 -.315E+00 0.882E+00   -.142E+00 -.831E-01 -.930E-01
   0.548E+01 0.316E+01 -.123E+04   -.537E+01 -.310E+01 0.123E+04   -.417E-01 -.241E-01 0.107E+01   -.846E-01 -.488E-01 -.165E+00
   -.548E+01 0.316E+01 -.123E+04   0.537E+01 -.310E+01 0.123E+04   0.417E-01 -.241E-01 0.107E+01   0.633E-01 -.486E-01 -.165E+00
   -.125E-03 -.280E+02 -.125E+04   0.240E-03 0.272E+02 0.125E+04   -.420E-07 0.631E+00 0.882E+00   0.109E-02 0.166E+00 -.928E-01
   -.397E-04 0.154E-04 -.376E+04   0.406E-04 -.326E-04 0.375E+04   0.814E-17 -.286E-17 0.207E+01   -.251E-03 -.924E-04 0.332E+00
   -.276E+02 -.497E+02 -.374E+04   0.280E+02 0.500E+02 0.374E+04   -.551E+00 -.639E+00 0.179E+01   0.897E-01 0.215E+00 0.324E+00
   0.276E+02 -.496E+02 -.374E+04   -.280E+02 0.500E+02 0.374E+04   0.551E+00 -.639E+00 0.179E+01   -.887E-01 0.216E+00 0.323E+00
   -.568E+02 0.939E+00 -.374E+04   0.573E+02 -.741E+00 0.374E+04   -.829E+00 -.158E+00 0.179E+01   0.231E+00 -.297E-01 0.324E+00
   0.568E+02 0.939E+00 -.374E+04   -.573E+02 -.741E+00 0.374E+04   0.829E+00 -.158E+00 0.179E+01   -.231E+00 -.290E-01 0.325E+00
   -.292E+02 0.487E+02 -.374E+04   0.293E+02 -.493E+02 0.374E+04   -.278E+00 0.797E+00 0.179E+01   0.143E+00 -.185E+00 0.323E+00
   0.292E+02 0.487E+02 -.374E+04   -.293E+02 -.493E+02 0.374E+04   0.278E+00 0.797E+00 0.179E+01   -.140E+00 -.185E+00 0.325E+00
   -.145E-03 -.236E-04 -.377E+04   0.253E-03 0.220E-05 0.377E+04   0.569E-17 0.117E-17 0.238E+01   -.126E-01 -.642E-02 0.379E+00
   -.292E-04 -.865E-05 -.192E+04   0.738E-04 0.151E-04 0.192E+04   -.652E-17 -.832E-18 -.104E+01   0.672E-03 0.397E-03 0.109E+00
   -.568E-05 -.726E-04 -.144E+04   0.102E-04 0.488E-05 0.142E+04   -.703E-18 0.443E-19 0.202E+02   0.938E-03 0.567E-03 -.708E-01
   0.228E-03 -.718E-04 -.225E+04   0.219E-05 0.222E-05 0.225E+04   0.165E-18 -.367E-18 -.387E+01   0.332E-02 0.203E-02 -.396E-01
   0.311E-05 -.143E-04 -.406E+03   0.653E-07 0.147E-06 0.415E+03   0.500E-20 -.159E-19 -.870E+01   0.174E-03 0.106E-03 -.706E-02
 -----------------------------------------------------------------------------------------------
   -.105E-03 -.193E-03 -.471E+01   -.866E-13 -.223E-12 0.185E-10   0.332E-15 -.111E-15 0.125E+01   -.316E-01 -.212E-01 0.340E+01
 
 
 POSITION                                       TOTAL-FORCE (eV/Angst)
 -----------------------------------------------------------------------------------
      0.00000      0.00000      5.37156        -0.000000     -0.000000     -0.019142
      2.56560      0.00000      5.37156         0.011401      0.030512      0.055969
      5.13119      0.00000      5.37156        -0.011401      0.030512      0.055969
      1.28280      2.22187      5.37156         0.032125     -0.005382      0.055969
      3.84839      2.22187      5.37156        -0.000000     -0.000000      0.031569
      6.41399      2.22187      5.37156        -0.032125     -0.005382      0.055969
      2.56560      4.44374      5.37156         0.020723     -0.025130      0.055969
      5.13119      4.44374      5.37156        -0.020723     -0.025130      0.055969
      7.69679      4.44374      5.37156        -0.000000     -0.000000      0.016548
      1.28280      0.74062      7.46636         0.003262      0.001883     -0.081869
      3.84839      0.74062      7.46636         0.000000     -0.051885     -0.043706
      6.41399      0.74062      7.46636        -0.003262      0.001883     -0.081869
      2.56560      2.96249      7.46636        -0.044934      0.025943     -0.043706
      5.13119      2.96249      7.46636         0.044934      0.025943     -0.043706
      7.69679      2.96249      7.46636        -0.000000      0.009217      0.018191
      3.84839      5.18437      7.46636         0.000000     -0.003767     -0.081869
      6.41399      5.18437      7.46636         0.007982     -0.004608      0.018191
      8.97958      5.18437      7.46636        -0.007982     -0.004608      0.018191
      7.69679      1.48128      9.55134        -0.000000      0.002608      0.069434
      2.56091      1.47854      9.54628        -0.264939     -0.152962     -0.422409
      5.13587      1.47854      9.54628         0.264939     -0.152962     -0.422409
      8.97673      3.70477      9.56818         0.050840     -0.029352      0.012516
      3.84839      3.70853      9.54628        -0.000000      0.305925     -0.422409
      6.41684      3.70477      9.56818        -0.050840     -0.029352      0.012516
     10.26235      5.92497      9.55134        -0.002258     -0.001304      0.069434
      5.13122      5.92497      9.55134         0.002258     -0.001304      0.069434
      7.69679      5.92169      9.56818        -0.000000      0.058705      0.012516
      0.00000      0.00000     11.64671        -0.000000     -0.000000     -0.128324
      6.40484      6.65345     11.67351        -0.024707     -0.062955      0.006033
      8.98873      6.65345     11.67351         0.024707     -0.062955      0.006033
      8.96447      2.22003     11.67351        -0.066874      0.010080      0.006033
      6.42910      2.22003     11.67351         0.066874      0.010080      0.006033
     10.25642      4.45775     11.67351        -0.042167      0.052874      0.006033
      5.13715      4.45775     11.67351         0.042167      0.052874      0.006033
      7.69679      4.44374     11.65978        -0.000000     -0.000000     -0.119227
      3.84839      2.22187     11.64991        -0.000000     -0.000000      1.171231
      3.84839      2.22187     13.49804        -0.000000     -0.000000      0.028775
      3.84839      2.22187     14.76610        -0.000000     -0.000000     -0.017123
      3.84839      2.22187     15.72209        -0.000000     -0.000000      0.007214
 -----------------------------------------------------------------------------------
    total drift:                               -0.031739     -0.021406     -0.061424


--------------------------------------------------------------------------------------------------------



  FREE ENERGIE OF THE ION-ELECTRON SYSTEM (eV)
  ---------------------------------------------------
  free  energy   TOTEN  =      -149.45774652 eV

  energy  without entropy=     -149.45774652  energy(sigma->0) =     -149.45774652
 


--------------------------------------------------------------------------------------------------------


    POTLOK:  cpu time    0.0333: real time    0.0333


--------------------------------------------------------------------------------------------------------


 stress matrix after NEB project (eV)
     -4.38657      0.00000     -0.00000
      0.00000     -4.38657     -0.00000
     -0.00000      0.00000      1.99998
  FORCES: max atom, RMS     0.028775    0.005485
  FORCE total and by dimension    0.034252    0.028775
  Stress total and by dimension    6.517968    4.386570
     LOOP+:  cpu time   78.9671: real time   78.9792
 -----------------------------------------------------------------------------
|                                                                             |
|           W    W    AA    RRRRR   N    N  II  N    N   GGGG   !!!           |
|           W    W   A  A   R    R  NN   N  II  NN   N  G    G  !!!           |
|           W    W  A    A  R    R  N N  N  II  N N  N  G       !!!           |
|           W WW W  AAAAAA  RRRRR   N  N N  II  N  N N  G  GGG   !            |
|           WW  WW  A    A  R   R   N   NN  II  N   NN  G    G                |
|           W    W  A    A  R    R  N    N  II  N    N   GGGG   !!!           |
|                                                                             |
|     Tetrahedron method does not include variations of the Fermi             |
|     occupations, so forces and stress will be inaccurate. We suggest        |
|     using a different smearing scheme ISMEAR = 1 or 2 for metals in         |
|     relaxations.                                                            |
|                                                                             |
 -----------------------------------------------------------------------------

    4ORBIT:  cpu time    0.0000: real time    0.0000



 total charge

# of ion       s       p       d       tot
------------------------------------------
    1        0.448   0.284   9.190   9.922
    2        0.450   0.286   9.185   9.921
    3        0.450   0.286   9.185   9.921
    4        0.450   0.286   9.185   9.921
    5        0.448   0.288   9.180   9.916
    6        0.450   0.286   9.185   9.921
    7        0.450   0.286   9.185   9.921
    8        0.450   0.286   9.185   9.921
    9        0.448   0.284   9.190   9.921
   10        0.442   0.372   9.175   9.989
   11        0.444   0.365   9.183   9.992
   12        0.442   0.372   9.175   9.989
   13        0.444   0.365   9.183   9.992
   14        0.444   0.365   9.183   9.992
   15        0.436   0.371   9.176   9.983
   16        0.442   0.372   9.175   9.989
   17        0.436   0.371   9.176   9.983
   18        0.436   0.371   9.176   9.983
   19        0.442   0.368   9.181   9.991
   20        0.463   0.392   9.167  10.022
   21        0.463   0.392   9.167  10.022
   22        0.429   0.374   9.179   9.982
   23        0.463   0.392   9.167  10.022
   24        0.429   0.374   9.179   9.982
   25        0.442   0.368   9.181   9.991
   26        0.442   0.368   9.181   9.991
   27        0.429   0.374   9.179   9.982
   28        0.448   0.293   9.187   9.928
   29        0.466   0.312   9.170   9.948
   30        0.466   0.312   9.170   9.948
   31        0.466   0.312   9.170   9.948
   32        0.466   0.312   9.170   9.948
   33        0.466   0.312   9.170   9.948
   34        0.466   0.312   9.170   9.948
   35        0.446   0.297   9.183   9.926
   36        0.523   0.573   4.520   5.616
   37        0.926   1.433   0.000   2.359
   38        1.522   3.764   0.000   5.286
   39        0.567   0.138   0.000   0.705
--------------------------------------------------
tot         19.240  17.663 325.766 362.669
 
 BZINTS: Fermi energy:   -0.120018;  402.000000 electrons
         Band energy:-0.127894E+04;  BLOECHL correction:   -0.036684

 total amount of memory used by VASP MPI-rank0   117782. kBytes
=======================================================================

   base      :      30000. kBytes
   nonlr-proj:      17575. kBytes
   fftplans  :       3497. kBytes
   grid      :      16027. kBytes
   one-center:        606. kBytes
   wavefun   :      50077. kBytes
 
  
  
 General timing and accounting informations for this job:
 ========================================================
  
                  Total CPU time used (sec):       85.851
                            User time (sec):       82.735
                          System time (sec):        3.116
                         Elapsed time (sec):       86.311
  
                   Maximum memory used (kb):      366208.
                   Average memory used (kb):          N/A
  
                          Minor page faults:        81281
                          Major page faults:            0
                 Voluntary context switches:         5893
