PROCAR new format
# of k-points:   10         # of bands:  252         # of ions:   39

 k-point     1 :    0.00000000 0.00000000 0.00000000     weight = 0.01562500

band     1 # energy  -24.21516601 # occ.  2.00000000
 
ion      s      p      d    tot
    1  0.000  0.000  0.000  0.000
    2  0.000  0.000  0.000  0.000
    3  0.000  0.000  0.000  0.000
    4  0.000  0.000  0.000  0.000
    5  0.000  0.000  0.000  0.000
    6  0.000  0.000  0.000  0.000
    7  0.000  0.000  0.000  0.000
    8  0.000  0.000  0.000  0.000
    9  0.000  0.000  0.000  0.000
   10  0.000  0.000  0.000  0.000
   11  0.000  0.000  0.000  0.000
   12  0.000  0.000  0.000  0.000
   13  0.000  0.000  0.000  0.000
   14  0.000  0.000  0.000  0.000
   15  0.000  0.000  0.000  0.000
   16  0.000  0.000  0.000  0.000
   17  0.000  0.000  0.000  0.000
   18  0.000  0.000  0.000  0.000
   19  0.000  0.000  0.000  0.000
   20  0.000  0.000  0.000  0.000
   21  0.000  0.000  0.000  0.000
   22  0.000  0.000  0.000  0.000
   23  0.000  0.000  0.000  0.000
   24  0.000  0.000  0.000  0.000
   25  0.000  0.000  0.000  0.000
   26  0.000  0.000  0.000  0.000
   27  0.000  0.000  0.000  0.000
   28  0.000  0.000  0.000  0.000
   29  0.000  0.000  0.000  0.000
   30  0.000  0.000  0.000  0.000
   31  0.000  0.000  0.000  0.000
   32  0.000  0.000  0.000  0.000
   33  0.000  0.000  0.000  0.000
   34  0.000  0.000  0.000  0.000
   35  0.000  0.000  0.000  0.000
   36  0.000  0.000  0.000  0.000
   37  0.074  0.055  0.000  0.129
   38  0.727  0.006  0.000  0.732
   39  0.065  0.014  0.000  0.078
tot    0.865  0.074  0.000  0.940
 
band     2 # energy  -14.95051130 # occ.  2.00000000
 
ion      s      p      d    tot
    1  0.000  0.000  0.000  0.000
    2  0.000  0.000  0.000  0.000
    3  0.000  0.000  0.000  0.000
    4  0.000  0.000  0.000  0.000
    5  0.000  0.000  0.000  0.000
    6  0.000  0.000  0.000  0.000
    7  0.000  0.000  0.000  0.000
    8  0.000  0.000  0.000  0.000
    9  0.000  0.000  0.000  0.000
   10  0.000  0.000  0.000  0.000
   11  0.000  0.000  0.000  0.000
   12  0.000  0.000  0.000  0.000
   13  0.000  0.000  0.000  0.000
   14  0.000  0.000  0.000  0.000
   15  0.000  0.000  0.000  0.000
   16  0.000  0.000  0.000  0.000
   17  0.000  0.000  0.000  0.000
   18  0.000  0.000  0.000  0.000
   19  0.000  0.000  0.000  0.000
   20  0.000  0.000  0.000  0.000
   21  0.000  0.000  0.000  0.000
   22  0.000  0.000  0.000  0.000
   23  0.000  0.000  0.000  0.000
   24  0.000  0.000  0.000  0.000
   25  0.000  0.000  0.000  0.000
   26  0.000  0.000  0.000  0.000
   27  0.000  0.000  0.000  0.000
   28  0.000  0.000  0.000  0.000
   29  0.000  0.000  0.000  0.000
   30  0.000  0.000  0.000  0.000
   31  0.000  0.000  0.000  0.000
   32  0.000  0.000  0.000  0.000
   33  0.000  0.000  0.000  0.000
   34  0.000  0.000  0.000  0.000
   35  0.000  0.000  0.000  0.000
   36  0.002  0.002  0.003  0.007
   37  0.157  0.052  0.000  0.209
   38  0.015  0.525  0.000  0.540
   39  0.202  0.032  0.000  0.234
tot    0.375  0.611  0.003  0.989
 
band     3 # energy   -8.93615310 # occ.  2.00000000
 
ion      s      p      d    tot
    1  0.006  0.001  0.000  0.007
    2  0.006  0.001  0.000  0.007
    3  0.006  0.001  0.000  0.007
    4  0.006  0.001  0.000  0.007
    5  0.006  0.001  0.000  0.007
    6  0.006  0.001  0.000  0.007
    7  0.006  0.001  0.000  0.007
    8  0.006  0.001  0.000  0.007
    9  0.006  0.001  0.000  0.007
   10  0.024  0.000  0.000  0.024
   11  0.024  0.000  0.000  0.024
   12  0.024  0.000  0.000  0.024
   13  0.024  0.000  0.000  0.024
   14  0.024  0.000  0.000  0.024
   15  0.023  0.000  0.000  0.024
   16  0.024  0.000  0.000  0.024
   17  0.023  0.000  0.000  0.024
   18  0.023  0.000  0.000  0.024
   19  0.025  0.000  0.000  0.025
   20  0.026  0.000  0.000  0.026
   21  0.026  0.000  0.000  0.026
   22  0.024  0.000  0.000  0.024
   23  0.026  0.000  0.000  0.026
   24  0.024  0.000  0.000  0.024
   25  0.025  0.000  0.000  0.025
   26  0.025  0.000  0.000  0.025
   27  0.024  0.000  0.000  0.024
   28  0.007  0.001  0.000  0.008
   29  0.007  0.001  0.000  0.008
   30  0.007  0.001  0.000  0.008
   31  0.007  0.001  0.000  0.008
   32  0.007  0.001  0.000  0.008
   33  0.007  0.001  0.000  0.008
   34  0.007  0.001  0.000  0.008
   35  0.007  0.001  0.000  0.008
   36  0.014  0.000  0.002  0.017
   37  0.002  0.003  0.000  0.005
   38  0.000  0.001  0.000  0.001
   39  0.000  0.000  0.000  0.000
tot    0.565  0.018  0.003  0.587
 
band     4 # energy   -7.74677966 # occ.  2.00000000
 
ion      s      p      d    tot
    1  0.015  0.001  0.000  0.016
    2  0.014  0.001  0.000  0.015
    3  0.014  0.001  0.000  0.015
    4  0.014  0.001  0.000  0.015
    5  0.014  0.001  0.000  0.015
    6  0.014  0.001  0.000  0.015
    7  0.014  0.001  0.000  0.015
    8  0.014  0.001  0.000  0.015
    9  0.015  0.001  0.000  0.016
   10  0.010  0.001  0.000  0.012
   11  0.009  0.002  0.000  0.011
   12  0.010  0.001  0.000  0.012
   13  0.009  0.002  0.000  0.011
   14  0.009  0.002  0.000  0.011
   15  0.011  0.001  0.000  0.012
   16  0.010  0.001  0.000  0.012
   17  0.011  0.001  0.000  0.012
   18  0.011  0.001  0.000  0.012
   19  0.005  0.002  0.000  0.007
   20  0.008  0.003  0.001  0.012
   21  0.008  0.003  0.001  0.012
   22  0.005  0.002  0.000  0.007
   23  0.008  0.003  0.001  0.012
   24  0.005  0.002  0.000  0.007
   25  0.005  0.002  0.000  0.007
   26  0.005  0.002  0.000  0.007
   27  0.005  0.002  0.000  0.007
   28  0.012  0.000  0.000  0.013
   29  0.014  0.000  0.000  0.015
   30  0.014  0.000  0.000  0.015
   31  0.014  0.000  0.000  0.015
   32  0.014  0.000  0.000  0.015
   33  0.014  0.000  0.000  0.015
   34  0.014  0.000  0.000  0.015
   35  0.012  0.000  0.000  0.013
   36  0.065  0.006  0.035  0.106
   37  0.044  0.039  0.000  0.083
   38  0.003  0.013  0.000  0.016
   39  0.004  0.000  0.000  0.004
tot    0.498  0.099  0.049  0.646
 
band     5 # energy   -7.18391371 # occ.  2.00000000
 
ion      s      p      d    tot
    1  0.004  0.000  0.000  0.005
    2  0.004  0.000  0.000  0.005
    3  0.004  0.000  0.000  0.005
    4  0.004  0.000  0.000  0.005
    5  0.005  0.000  0.000  0.006
    6  0.004  0.000  0.000  0.005
    7  0.004  0.000  0.000  0.005
    8  0.004  0.000  0.000  0.005
    9  0.004  0.000  0.000  0.004
   10  0.001  0.001  0.000  0.002
   11  0.002  0.001  0.000  0.002
   12  0.001  0.001  0.000  0.002
   13  0.002  0.001  0.000  0.002
   14  0.002  0.001  0.000  0.002
   15  0.000  0.001  0.000  0.001
   16  0.001  0.001  0.000  0.002
   17  0.000  0.001  0.000  0.001
   18  0.000  0.001  0.000  0.001
   19  0.010  0.000  0.000  0.010
   20  0.000  0.002  0.004  0.006
   21  0.000  0.002  0.004  0.006
   22  0.008  0.001  0.000  0.009
   23  0.000  0.002  0.004  0.006
   24  0.008  0.001  0.000  0.009
   25  0.010  0.000  0.000  0.010
   26  0.010  0.000  0.000  0.010
   27  0.008  0.001  0.000  0.009
   28  0.009  0.001  0.000  0.010
   29  0.004  0.001  0.000  0.005
   30  0.004  0.001  0.000  0.005
   31  0.004  0.001  0.000  0.005
   32  0.004  0.001  0.000  0.005
   33  0.004  0.001  0.000  0.005
   34  0.004  0.001  0.000  0.005
   35  0.009  0.001  0.000  0.010
   36  0.051  0.041  0.207  0.299
   37  0.153  0.126  0.000  0.279
   38  0.011  0.035  0.000  0.045
   39  0.010  0.001  0.000  0.011
tot    0.364  0.230  0.229  0.823
 
band     6 # energy   -6.98710404 # occ.  2.00000000
 
ion      s      p      d    tot
    1  0.000  0.000  0.000  0.000
    2  0.000  0.000  0.000  0.000
    3  0.000  0.000  0.000  0.000
    4  0.000  0.000  0.000  0.000
    5  0.000  0.000  0.000  0.000
    6  0.000  0.000  0.000  0.000
    7  0.000  0.000  0.000  0.000
    8  0.000  0.000  0.000  0.000
    9  0.000  0.000  0.000  0.000
   10  0.000  0.000  0.000  0.000
   11  0.000  0.000  0.000  0.000
   12  0.000  0.000  0.000  0.000
   13  0.000  0.000  0.000  0.000
   14  0.000  0.000  0.000  0.000
   15  0.000  0.000  0.000  0.000
   16  0.000  0.000  0.000  0.000
   17  0.000  0.000  0.000  0.000
   18  0.000  0.000  0.000  0.000
   19  0.000  0.000  0.000  0.000
   20  0.000  0.000  0.000  0.000
   21  0.000  0.000  0.000  0.000
   22  0.000  0.000  0.000  0.000
   23  0.000  0.000  0.000  0.000
   24  0.000  0.000  0.000  0.000
   25  0.000  0.000  0.000  0.000
   26  0.000  0.000  0.000  0.000
   27  0.000  0.000  0.000  0.000
   28  0.000  0.000  0.000  0.000
   29  0.000  0.000  0.000  0.001
   30  0.000  0.000  0.000  0.000
   31  0.000  0.000  0.000  0.001
   32  0.000  0.000  0.000  0.001
   33  0.000  0.000  0.000  0.000
   34  0.000  0.000  0.000  0.001
   35  0.000  0.000  0.000  0.000
   36  0.000  0.002  0.015  0.017
   37  0.000  0.109  0.000  0.109
   38  0.000  0.541  0.000  0.541
   39  0.000  0.008  0.000  0.008
tot    0.001  0.661  0.017  0.679
 
band     7 # energy   -6.98698940 # occ.  2.00000000
 
ion      s      p      d    tot
    1  0.000  0.000  0.000  0.000
    2  0.000  0.000  0.000  0.000
    3  0.000  0.000  0.000  0.000
    4  0.000  0.000  0.000  0.000
    5  0.000  0.000  0.000  0.000
    6  0.000  0.000  0.000  0.000
    7  0.000  0.000  0.000  0.000
    8  0.000  0.000  0.000  0.000
    9  0.000  0.000  0.000  0.000
   10  0.000  0.000  0.000  0.000
   11  0.000  0.000  0.000  0.000
   12  0.000  0.000  0.000  0.000
   13  0.000  0.000  0.000  0.000
   14  0.000  0.000  0.000  0.000
   15  0.000  0.000  0.000  0.000
   16  0.000  0.000  0.000  0.000
   17  0.000  0.000  0.000  0.000
   18  0.000  0.000  0.000  0.000
   19  0.000  0.000  0.000  0.000
   20  0.000  0.000  0.000  0.000
   21  0.000  0.000  0.000  0.000
   22  0.000  0.000  0.000  0.000
   23  0.000  0.000  0.000  0.000
   24  0.000  0.000  0.000  0.000
   25  0.000  0.000  0.000  0.000
   26  0.000  0.000  0.000  0.000
   27  0.000  0.000  0.000  0.000
   28  0.000  0.000  0.000  0.000
   29  0.000  0.000  0.000  0.000
   30  0.000  0.000  0.001  0.001
   31  0.000  0.000  0.000  0.000
   32  0.000  0.000  0.000  0.000
   33  0.000  0.000  0.001  0.001
   34  0.000  0.000  0.000  0.000
   35  0.000  0.000  0.000  0.000
   36  0.000  0.002  0.015  0.017
   37  0.000  0.109  0.000  0.109
   38  0.000  0.541  0.000  0.541
   39  0.000  0.008  0.000  0.008
tot    0.001  0.661  0.017  0.679
 
band     8 # energy   -6.05691127 # occ.  2.00000000
 
ion      s      p      d    tot
    1  0.015  0.000  0.005  0.021
    2  0.014  0.000  0.005  0.020
    3  0.014  0.000  0.005  0.020
    4  0.014  0.000  0.005  0.020
    5  0.007  0.000  0.006  0.013
    6  0.014  0.000  0.005  0.020
    7  0.014  0.000  0.005  0.020
    8  0.014  0.000  0.005  0.020
    9  0.024  0.000  0.004  0.028
   10  0.003  0.003  0.002  0.009
   11  0.010  0.005  0.001  0.016
   12  0.003  0.003  0.002  0.009
   13  0.010  0.005  0.001  0.016
   14  0.010  0.005  0.001  0.016
   15  0.000  0.003  0.003  0.006
   16  0.003  0.003  0.002  0.009
   17  0.000  0.003  0.003  0.006
   18  0.000  0.003  0.003  0.006
   19  0.001  0.003  0.005  0.009
   20  0.019  0.004  0.003  0.026
   21  0.019  0.004  0.003  0.026
   22  0.001  0.004  0.004  0.008
   23  0.019  0.004  0.003  0.026
   24  0.001  0.004  0.004  0.008
   25  0.001  0.003  0.005  0.009
   26  0.001  0.003  0.005  0.009
   27  0.001  0.004  0.004  0.008
   28  0.021  0.000  0.006  0.027
   29  0.017  0.000  0.007  0.024
   30  0.017  0.000  0.007  0.024
   31  0.017  0.000  0.007  0.024
   32  0.017  0.000  0.007  0.024
   33  0.017  0.000  0.007  0.024
   34  0.017  0.000  0.007  0.024
   35  0.026  0.000  0.005  0.032
   36  0.004  0.002  0.016  0.023
   37  0.000  0.000  0.000  0.000
   38  0.000  0.000  0.000  0.000
   39  0.000  0.000  0.000  0.000
tot    0.386  0.069  0.175  0.630
 
band     9 # energy   -5.96112014 # occ.  2.00000000
 
ion      s      p      d    tot
    1  0.000  0.003  0.005  0.008
    2  0.009  0.002  0.002  0.014
    3  0.003  0.001  0.002  0.006
    4  0.009  0.002  0.002  0.013
    5  0.000  0.002  0.003  0.004
    6  0.002  0.001  0.002  0.005
    7  0.003  0.001  0.002  0.006
    8  0.001  0.001  0.002  0.005
    9  0.000  0.000  0.003  0.003
   10  0.059  0.004  0.004  0.067
   11  0.004  0.010  0.003  0.017
   12  0.015  0.004  0.011  0.029
   13  0.004  0.010  0.003  0.017
   14  0.015  0.000  0.006  0.022
   15  0.003  0.003  0.009  0.015
   16  0.015  0.004  0.011  0.029
   17  0.004  0.003  0.009  0.015
   18  0.014  0.003  0.002  0.020
   19  0.010  0.009  0.005  0.024
   20  0.058  0.004  0.004  0.067
   21  0.015  0.001  0.015  0.032
   22  0.000  0.007  0.006  0.012
   23  0.014  0.001  0.016  0.031
   24  0.001  0.002  0.004  0.007
   25  0.040  0.001  0.007  0.048
   26  0.010  0.009  0.005  0.025
   27  0.000  0.007  0.006  0.013
   28  0.000  0.003  0.004  0.008
   29  0.010  0.003  0.003  0.016
   30  0.007  0.002  0.003  0.012
   31  0.010  0.003  0.003  0.016
   32  0.000  0.001  0.003  0.004
   33  0.007  0.002  0.003  0.011
   34  0.000  0.001  0.003  0.004
   35  0.000  0.000  0.003  0.003
   36  0.000  0.003  0.013  0.016
   37  0.000  0.000  0.000  0.000
   38  0.000  0.000  0.000  0.000
   39  0.000  0.000  0.000  0.000
tot    0.344  0.113  0.188  0.645
 
band    10 # energy   -5.96101669 # occ.  2.00000000
 
ion      s      p      d    tot
    1  0.000  0.003  0.005  0.008
    2  0.000  0.001  0.002  0.003
    3  0.006  0.002  0.002  0.010
    4  0.000  0.001  0.002  0.003
    5  0.000  0.002  0.003  0.004
    6  0.008  0.002  0.002  0.012
    7  0.006  0.002  0.002  0.010
    8  0.008  0.002  0.002  0.012
    9  0.000  0.000  0.003  0.003
   10  0.000  0.004  0.013  0.017
   11  0.011  0.003  0.005  0.020
   12  0.044  0.004  0.007  0.055
   13  0.011  0.003  0.005  0.020
   14  0.000  0.013  0.002  0.015
   15  0.011  0.003  0.005  0.018
   16  0.045  0.004  0.006  0.055
   17  0.010  0.003  0.005  0.018
   18  0.000  0.003  0.011  0.014
   19  0.030  0.004  0.006  0.040
   20  0.000  0.000  0.019  0.020
   21  0.044  0.003  0.008  0.055
   22  0.001  0.003  0.005  0.009
   23  0.044  0.003  0.008  0.055
   24  0.000  0.008  0.006  0.014
   25  0.000  0.012  0.004  0.017
   26  0.030  0.004  0.006  0.040
   27  0.001  0.003  0.005  0.009
   28  0.000  0.003  0.005  0.008
   29  0.001  0.001  0.003  0.005
   30  0.005  0.002  0.003  0.010
   31  0.001  0.001  0.003  0.005
   32  0.011  0.003  0.003  0.017
   33  0.005  0.002  0.003  0.010
   34  0.011  0.003  0.003  0.017
   35  0.000  0.000  0.003  0.003
   36  0.000  0.003  0.013  0.016
   37  0.000  0.000  0.000  0.000
   38  0.000  0.000  0.000  0.000
   39  0.000  0.000  0.000  0.000
tot    0.344  0.113  0.188  0.645
 
band    11 # energy   -5.92174716 # occ.  2.00000000
 
ion      s      p      d    tot
    1  0.021  0.003  0.001  0.025
    2  0.000  0.002  0.004  0.006
    3  0.000  0.002  0.004  0.006
    4  0.000  0.002  0.004  0.006
    5  0.002  0.000  0.000  0.003
    6  0.000  0.002  0.004  0.006
    7  0.000  0.002  0.004  0.006
    8  0.000  0.002  0.004  0.006
    9  0.008  0.001  0.000  0.010
   10  0.030  0.006  0.005  0.041
   11  0.006  0.000  0.011  0.018
   12  0.030  0.006  0.006  0.041
   13  0.006  0.000  0.011  0.018
   14  0.005  0.000  0.011  0.017
   15  0.010  0.008  0.004  0.021
   16  0.030  0.006  0.006  0.041
   17  0.010  0.008  0.004  0.021
   18  0.011  0.008  0.004  0.023
   19  0.023  0.009  0.002  0.034
   20  0.000  0.003  0.011  0.014
   21  0.000  0.003  0.011  0.013
   22  0.025  0.002  0.009  0.036
   23  0.000  0.003  0.011  0.013
   24  0.023  0.002  0.009  0.034
   25  0.022  0.009  0.002  0.034
   26  0.023  0.009  0.002  0.034
   27  0.025  0.002  0.009  0.036
   28  0.019  0.003  0.000  0.023
   29  0.000  0.002  0.004  0.006
   30  0.000  0.002  0.004  0.006
   31  0.000  0.002  0.004  0.006
   32  0.000  0.002  0.004  0.006
   33  0.000  0.002  0.004  0.006
   34  0.000  0.002  0.004  0.006
   35  0.013  0.002  0.001  0.016
   36  0.000  0.000  0.000  0.000
   37  0.000  0.000  0.000  0.000
   38  0.000  0.000  0.000  0.000
   39  0.000  0.000  0.000  0.000
tot    0.344  0.114  0.180  0.639
 
band    12 # energy   -5.91990215 # occ.  2.00000000
 
ion      s      p      d    tot
    1  0.000  0.000  0.002  0.002
    2  0.010  0.002  0.002  0.014
    3  0.004  0.001  0.002  0.007
    4  0.009  0.002  0.002  0.014
    5  0.000  0.002  0.005  0.006
    6  0.002  0.001  0.002  0.005
    7  0.003  0.001  0.002  0.007
    8  0.001  0.001  0.002  0.005
    9  0.000  0.003  0.004  0.008
   10  0.000  0.009  0.005  0.014
   11  0.034  0.004  0.006  0.043
   12  0.000  0.003  0.005  0.008
   13  0.033  0.003  0.006  0.043
   14  0.000  0.000  0.016  0.016
   15  0.033  0.003  0.006  0.043
   16  0.000  0.003  0.005  0.008
   17  0.033  0.004  0.006  0.042
   18  0.000  0.010  0.006  0.016
   19  0.018  0.004  0.005  0.027
   20  0.000  0.014  0.001  0.015
   21  0.007  0.004  0.005  0.017
   22  0.046  0.004  0.006  0.057
   23  0.008  0.004  0.005  0.017
   24  0.000  0.005  0.012  0.017
   25  0.000  0.002  0.015  0.016
   26  0.018  0.003  0.005  0.026
   27  0.047  0.004  0.006  0.057
   28  0.000  0.001  0.004  0.005
   29  0.011  0.003  0.003  0.017
   30  0.005  0.002  0.003  0.011
   31  0.011  0.003  0.003  0.017
   32  0.001  0.001  0.003  0.005
   33  0.005  0.002  0.003  0.010
   34  0.001  0.001  0.003  0.005
   35  0.000  0.004  0.006  0.010
   36  0.000  0.002  0.007  0.009
   37  0.000  0.000  0.000  0.000
   38  0.000  0.000  0.000  0.000
   39  0.000  0.000  0.000  0.000
tot    0.342  0.116  0.180  0.639
 
band    13 # energy   -5.91981095 # occ.  2.00000000
 
ion      s      p      d    tot
    1  0.000  0.000  0.002  0.002
    2  0.000  0.001  0.002  0.003
    3  0.006  0.002  0.002  0.010
    4  0.000  0.001  0.002  0.003
    5  0.000  0.002  0.005  0.006
    6  0.008  0.002  0.002  0.012
    7  0.006  0.002  0.002  0.010
    8  0.008  0.002  0.002  0.013
    9  0.000  0.003  0.004  0.008
   10  0.000  0.001  0.005  0.006
   11  0.011  0.001  0.013  0.024
   12  0.000  0.007  0.005  0.012
   13  0.011  0.001  0.012  0.025
   14  0.045  0.005  0.002  0.053
   15  0.011  0.008  0.006  0.025
   16  0.000  0.007  0.005  0.012
   17  0.012  0.008  0.006  0.026
   18  0.043  0.001  0.006  0.051
   19  0.005  0.002  0.012  0.019
   20  0.010  0.000  0.007  0.017
   21  0.003  0.011  0.003  0.016
   22  0.016  0.005  0.010  0.030
   23  0.002  0.011  0.002  0.016
   24  0.064  0.003  0.004  0.071
   25  0.025  0.004  0.002  0.031
   26  0.006  0.002  0.011  0.020
   27  0.014  0.005  0.010  0.029
   28  0.000  0.001  0.004  0.005
   29  0.000  0.001  0.003  0.005
   30  0.007  0.002  0.003  0.011
   31  0.000  0.001  0.003  0.005
   32  0.010  0.003  0.003  0.017
   33  0.007  0.002  0.003  0.011
   34  0.011  0.003  0.003  0.017
   35  0.000  0.004  0.006  0.010
   36  0.000  0.002  0.007  0.009
   37  0.000  0.000  0.000  0.000
   38  0.000  0.000  0.000  0.000
   39  0.000  0.000  0.000  0.000
tot    0.342  0.116  0.180  0.639
 
band    14 # energy   -5.79040277 # occ.  2.00000000
 
ion      s      p      d    tot
    1  0.000  0.000  0.001  0.001
    2  0.002  0.002  0.006  0.010
    3  0.002  0.002  0.006  0.010
    4  0.002  0.002  0.006  0.010
    5  0.039  0.003  0.000  0.043
    6  0.002  0.002  0.006  0.010
    7  0.002  0.002  0.006  0.010
    8  0.002  0.002  0.006  0.010
    9  0.006  0.003  0.004  0.012
   10  0.002  0.004  0.010  0.016
   11  0.021  0.010  0.003  0.035
   12  0.002  0.004  0.010  0.016
   13  0.021  0.010  0.003  0.035
   14  0.021  0.010  0.003  0.035
   15  0.029  0.002  0.012  0.043
   16  0.002  0.004  0.010  0.016
   17  0.029  0.002  0.012  0.043
   18  0.029  0.002  0.012  0.043
   19  0.006  0.002  0.008  0.015
   20  0.016  0.003  0.009  0.027
   21  0.016  0.003  0.009  0.027
   22  0.007  0.006  0.004  0.018
   23  0.016  0.003  0.009  0.027
   24  0.007  0.006  0.004  0.018
   25  0.006  0.002  0.008  0.015
   26  0.006  0.002  0.008  0.015
   27  0.007  0.006  0.004  0.018
   28  0.001  0.000  0.003  0.004
   29  0.003  0.000  0.003  0.006
   30  0.003  0.000  0.003  0.006
   31  0.003  0.000  0.003  0.006
   32  0.003  0.000  0.003  0.006
   33  0.003  0.000  0.003  0.006
   34  0.003  0.000  0.003  0.006
   35  0.000  0.001  0.002  0.002
   36  0.004  0.008  0.013  0.025
   37  0.007  0.005  0.000  0.012
   38  0.000  0.001  0.000  0.002
   39  0.000  0.000  0.000  0.000
tot    0.329  0.116  0.217  0.662
 
band    15 # energy   -5.21953846 # occ.  2.00000000
 
ion      s      p      d    tot
    1  0.000  0.003  0.010  0.013
    2  0.018  0.003  0.005  0.026
    3  0.001  0.002  0.005  0.007
    4  0.018  0.003  0.005  0.026
    5  0.000  0.000  0.010  0.010
    6  0.011  0.003  0.005  0.019
    7  0.001  0.002  0.005  0.007
    8  0.011  0.003  0.005  0.019
    9  0.000  0.005  0.008  0.013
   10  0.000  0.005  0.017  0.021
   11  0.004  0.002  0.009  0.015
   12  0.006  0.002  0.009  0.017
   13  0.004  0.002  0.009  0.015
   14  0.000  0.002  0.014  0.016
   15  0.019  0.004  0.009  0.032
   16  0.006  0.002  0.009  0.017
   17  0.020  0.004  0.009  0.032
   18  0.000  0.000  0.021  0.021
   19  0.008  0.004  0.010  0.022
   20  0.000  0.003  0.019  0.022
   21  0.000  0.001  0.013  0.014
   22  0.008  0.003  0.009  0.020
   23  0.000  0.001  0.013  0.014
   24  0.000  0.002  0.028  0.030
   25  0.000  0.000  0.013  0.013
   26  0.009  0.004  0.010  0.023
   27  0.008  0.003  0.009  0.020
   28  0.000  0.004  0.008  0.012
   29  0.022  0.003  0.008  0.034
   30  0.000  0.002  0.009  0.011
   31  0.022  0.003  0.008  0.034
   32  0.017  0.002  0.009  0.028
   33  0.000  0.002  0.009  0.011
   34  0.017  0.002  0.009  0.028
   35  0.000  0.006  0.009  0.015
   36  0.000  0.000  0.028  0.028
   37  0.000  0.000  0.000  0.000
   38  0.000  0.000  0.000  0.000
   39  0.000  0.000  0.000  0.000
tot    0.231  0.092  0.382  0.704
 
band    16 # energy   -5.21950919 # occ.  2.00000000
 
ion      s      p      d    tot
    1  0.000  0.003  0.010  0.013
    2  0.002  0.002  0.005  0.009
    3  0.019  0.004  0.005  0.028
    4  0.002  0.002  0.005  0.009
    5  0.000  0.000  0.010  0.010
    6  0.008  0.002  0.005  0.015
    7  0.019  0.004  0.005  0.028
    8  0.008  0.002  0.005  0.015
    9  0.000  0.005  0.008  0.013
   10  0.008  0.001  0.006  0.015
   11  0.001  0.002  0.012  0.016
   12  0.002  0.004  0.014  0.020
   13  0.001  0.002  0.013  0.016
   14  0.005  0.002  0.007  0.014
   15  0.007  0.001  0.017  0.025
   16  0.002  0.004  0.014  0.020
   17  0.006  0.001  0.017  0.025
   18  0.026  0.005  0.004  0.035
   19  0.003  0.002  0.012  0.016
   20  0.000  0.001  0.011  0.011
   21  0.000  0.002  0.017  0.019
   22  0.003  0.002  0.022  0.026
   23  0.000  0.002  0.017  0.019
   24  0.010  0.003  0.003  0.017
   25  0.011  0.006  0.009  0.026
   26  0.003  0.001  0.012  0.016
   27  0.003  0.002  0.022  0.026
   28  0.000  0.004  0.008  0.012
   29  0.004  0.002  0.009  0.015
   30  0.026  0.003  0.008  0.037
   31  0.004  0.002  0.009  0.015
   32  0.010  0.003  0.009  0.021
   33  0.026  0.003  0.008  0.037
   34  0.009  0.003  0.009  0.021
   35  0.000  0.006  0.009  0.015
   36  0.000  0.000  0.028  0.028
   37  0.000  0.000  0.000  0.000
   38  0.000  0.000  0.000  0.000
   39  0.000  0.000  0.000  0.000
tot    0.231  0.092  0.382  0.704
 
band    17 # energy   -5.20740108 # occ.  2.00000000
 
ion      s      p      d    tot
    1  0.004  0.001  0.010  0.015
    2  0.006  0.001  0.010  0.016
    3  0.006  0.001  0.010  0.016
    4  0.006  0.001  0.010  0.016
    5  0.002  0.001  0.009  0.012
    6  0.006  0.001  0.010  0.016
    7  0.006  0.001  0.010  0.016
    8  0.006  0.001  0.010  0.016
    9  0.015  0.000  0.008  0.023
   10  0.009  0.000  0.025  0.035
   11  0.009  0.000  0.022  0.031
   12  0.009  0.000  0.025  0.035
   13  0.009  0.000  0.022  0.031
   14  0.009  0.000  0.022  0.031
   15  0.003  0.000  0.023  0.026
   16  0.009  0.000  0.025  0.035
   17  0.003  0.000  0.023  0.026
   18  0.003  0.000  0.023  0.026
   19  0.006  0.000  0.020  0.026
   20  0.008  0.000  0.027  0.036
   21  0.008  0.000  0.027  0.036
   22  0.003  0.000  0.019  0.022
   23  0.008  0.000  0.027  0.036
   24  0.003  0.000  0.019  0.022
   25  0.006  0.000  0.020  0.026
   26  0.006  0.000  0.020  0.026
   27  0.003  0.000  0.019  0.022
   28  0.001  0.001  0.007  0.009
   29  0.004  0.000  0.007  0.011
   30  0.003  0.000  0.007  0.011
   31  0.004  0.000  0.007  0.011
   32  0.004  0.000  0.007  0.011
   33  0.003  0.000  0.007  0.011
   34  0.004  0.000  0.007  0.011
   35  0.008  0.000  0.006  0.014
   36  0.002  0.003  0.007  0.012
   37  0.001  0.000  0.000  0.001
   38  0.000  0.000  0.000  0.000
   39  0.000  0.000  0.000  0.000
tot    0.204  0.015  0.557  0.776
 
band    18 # energy   -5.17004983 # occ.  2.00000000
 
ion      s      p      d    tot
    1  0.035  0.003  0.000  0.039
    2  0.000  0.003  0.010  0.013
    3  0.000  0.003  0.010  0.013
    4  0.000  0.003  0.010  0.013
    5  0.000  0.000  0.001  0.001
    6  0.000  0.003  0.010  0.013
    7  0.000  0.003  0.010  0.013
    8  0.000  0.003  0.010  0.013
    9  0.027  0.004  0.001  0.031
   10  0.007  0.003  0.011  0.022
   11  0.002  0.000  0.015  0.016
   12  0.007  0.003  0.011  0.022
   13  0.002  0.000  0.015  0.016
   14  0.002  0.000  0.015  0.016
   15  0.008  0.003  0.016  0.027
   16  0.008  0.003  0.011  0.022
   17  0.008  0.003  0.016  0.027
   18  0.008  0.003  0.016  0.028
   19  0.004  0.003  0.019  0.026
   20  0.000  0.000  0.015  0.015
   21  0.000  0.000  0.015  0.015
   22  0.012  0.003  0.010  0.025
   23  0.000  0.000  0.015  0.015
   24  0.012  0.003  0.010  0.025
   25  0.004  0.003  0.019  0.026
   26  0.004  0.003  0.019  0.026
   27  0.012  0.003  0.010  0.025
   28  0.039  0.003  0.000  0.042
   29  0.000  0.003  0.012  0.015
   30  0.000  0.003  0.012  0.015
   31  0.000  0.003  0.012  0.015
   32  0.000  0.003  0.012  0.015
   33  0.000  0.003  0.012  0.015
   34  0.000  0.003  0.012  0.015
   35  0.027  0.004  0.001  0.032
   36  0.000  0.000  0.000  0.000
   37  0.000  0.000  0.000  0.000
   38  0.000  0.000  0.000  0.000
   39  0.000  0.000  0.000  0.000
tot    0.227  0.090  0.387  0.705
 
band    19 # energy   -5.16811768 # occ.  2.00000000
 
ion      s      p      d    tot
    1  0.000  0.003  0.009  0.012
    2  0.020  0.004  0.005  0.029
    3  0.001  0.002  0.005  0.008
    4  0.020  0.004  0.005  0.029
    5  0.000  0.006  0.010  0.016
    6  0.011  0.003  0.006  0.020
    7  0.001  0.002  0.005  0.008
    8  0.012  0.003  0.006  0.020
    9  0.000  0.001  0.013  0.013
   10  0.018  0.005  0.008  0.031
   11  0.005  0.003  0.021  0.028
   12  0.004  0.001  0.017  0.022
   13  0.004  0.003  0.021  0.028
   14  0.019  0.003  0.005  0.027
   15  0.000  0.003  0.015  0.017
   16  0.005  0.001  0.017  0.023
   17  0.000  0.003  0.015  0.018
   18  0.000  0.000  0.009  0.009
   19  0.001  0.002  0.019  0.022
   20  0.020  0.006  0.005  0.031
   21  0.005  0.002  0.026  0.033
   22  0.002  0.002  0.012  0.015
   23  0.005  0.002  0.026  0.033
   24  0.007  0.003  0.010  0.020
   25  0.003  0.000  0.006  0.010
   26  0.001  0.002  0.019  0.022
   27  0.002  0.002  0.012  0.015
   28  0.000  0.002  0.012  0.014
   29  0.016  0.003  0.007  0.026
   30  0.000  0.001  0.005  0.007
   31  0.016  0.003  0.007  0.026
   32  0.011  0.003  0.007  0.020
   33  0.001  0.001  0.005  0.007
   34  0.011  0.003  0.007  0.021
   35  0.000  0.001  0.010  0.011
   36  0.000  0.007  0.014  0.021
   37  0.000  0.000  0.000  0.000
   38  0.000  0.000  0.000  0.000
   39  0.000  0.000  0.000  0.000
tot    0.219  0.094  0.399  0.712
 
band    20 # energy   -5.16806844 # occ.  2.00000000
 
ion      s      p      d    tot
    1  0.000  0.003  0.009  0.012
    2  0.002  0.002  0.005  0.009
    3  0.021  0.004  0.006  0.030
    4  0.002  0.002  0.005  0.009
    5  0.000  0.006  0.010  0.016
    6  0.011  0.003  0.005  0.019
    7  0.020  0.004  0.006  0.030
    8  0.010  0.003  0.005  0.018
    9  0.000  0.001  0.013  0.013
   10  0.000  0.000  0.020  0.020
   11  0.014  0.003  0.011  0.027
   12  0.014  0.004  0.011  0.028
   13  0.014  0.003  0.010  0.027
   14  0.000  0.002  0.026  0.029
   15  0.000  0.001  0.011  0.012
   16  0.013  0.004  0.011  0.028
   17  0.000  0.001  0.011  0.012
   18  0.000  0.004  0.017  0.020
   19  0.002  0.001  0.011  0.014
   20  0.000  0.001  0.033  0.034
   21  0.015  0.004  0.012  0.031
   22  0.005  0.003  0.011  0.018
   23  0.015  0.004  0.012  0.031
   24  0.000  0.001  0.013  0.014
   25  0.000  0.003  0.023  0.026
   26  0.002  0.001  0.010  0.014
   27  0.005  0.002  0.011  0.018
   28  0.000  0.002  0.012  0.014
   29  0.002  0.002  0.006  0.009
   30  0.018  0.004  0.007  0.029
   31  0.002  0.002  0.006  0.010
   32  0.007  0.002  0.006  0.015
   33  0.018  0.004  0.007  0.028
   34  0.007  0.002  0.006  0.015
   35  0.000  0.001  0.010  0.011
   36  0.000  0.007  0.014  0.021
   37  0.000  0.000  0.000  0.000
   38  0.000  0.000  0.000  0.000
   39  0.000  0.000  0.000  0.000