 vasp.6.2.0 18Jan21 (build Jun 12 2021 23:27:24) complex                        
  
 executed on             LinuxIFC date 2022.05.26  20:01:58
 running on   28 total cores
 distrk:  each k-point on   28 cores,    1 groups
 distr:  one band on NCORE=   1 cores,   28 groups


--------------------------------------------------------------------------------------------------------


 INCAR:
   ISMEAR = -5
   SIGMA = 0.1
   ISPIN = 1
   EDIFF = 1.d-5
   EDIFFG = -0.01
   NSW = 0
   NELM = 150
   ENCUT = 500
   ISIF = 2
   IBRION = 2
   LREAL = Auto
   ALGO = Fast
   ICHARG = 11
   LORBIT = 10
   LCHARG = .F.
   LWAVE = .F.

 POTCAR:    PAW_PBE Cu 22Jun2005                  
 POTCAR:    PAW_PBE Zr_sv 04Jan2005               
 POTCAR:    PAW_PBE H 15Jun2001                   
 -----------------------------------------------------------------------------
|                                                                             |
|           W    W    AA    RRRRR   N    N  II  N    N   GGGG   !!!           |
|           W    W   A  A   R    R  NN   N  II  NN   N  G    G  !!!           |
|           W    W  A    A  R    R  N N  N  II  N N  N  G       !!!           |
|           W WW W  AAAAAA  RRRRR   N  N N  II  N  N N  G  GGG   !            |
|           WW  WW  A    A  R   R   N   NN  II  N   NN  G    G                |
|           W    W  A    A  R    R  N    N  II  N    N   GGGG   !!!           |
|                                                                             |
|     For optimal performance we recommend to set                             |
|       NCORE = 2 up to number-of-cores-per-socket                            |
|     NCORE specifies how many cores store one orbital (NPAR=cpu/NCORE).      |
|     This setting can greatly improve the performance of VASP for DFT.       |
|     The default, NCORE=1 might be grossly inefficient on modern             |
|     multi-core architectures or massively parallel machines. Do your        |
|     own testing! More info at https://www.vasp.at/wiki/index.php/NCORE      |
|     Unfortunately you need to use the default for GW and RPA                |
|     calculations (for HF NCORE is supported but not extensively tested      |
|     yet).                                                                   |
|                                                                             |
 -----------------------------------------------------------------------------

 POTCAR:    PAW_PBE Cu 22Jun2005                  
   VRHFIN =Cu: d10 p1                                                                               
   LEXCH  = PE                                                                                      
   EATOM  =  1390.9808 eV,  102.2342 Ry                                                             
                                                                                                    
   TITEL  = PAW_PBE Cu 22Jun2005                                                                    
   LULTRA =        F    use ultrasoft PP ?                                                          
   IUNSCR =        1    unscreen: 0-lin 1-nonlin 2-no                                               
   RPACOR =    2.000    partial core radius                                                         
   POMASS =   63.546; ZVAL   =   11.000    mass and valenz                                          
   RCORE  =    2.300    outmost cutoff radius                                                       
   RWIGS  =    2.200; RWIGS  =    1.164    wigner-seitz radius (au A)                               
   ENMAX  =  295.446; ENMIN  =  221.585 eV                                                          
   ICORE  =        3    local potential                                                             
   LCOR   =        T    correct aug charges                                                         
   LPAW   =        T    paw PP                                                                      
   EAUG   =  586.980                                                                                
   DEXC   =    0.000                                                                                
   RMAX   =    2.344    core radius for proj-oper                                                   
   RAUG   =    1.300    factor for augmentation sphere                                              
   RDEP   =    2.302    radius for radial grids                                                     
   RDEPT  =    1.771    core radius for aug-charge                                                  
                                                                                                    
   Atomic configuration                                                                             
    9 entries                                                                                       
     n  l   j            E        occ.                                                              
     1  0  0.50     -8850.2468   2.0000                                                             
     2  0  0.50     -1062.3498   2.0000                                                             
     2  1  1.50      -916.8226   6.0000                                                             
     3  0  0.50      -114.6929   2.0000                                                             
     3  1  1.50       -72.1325   6.0000                                                             
     3  2  2.50        -5.0394  10.0000                                                             
     4  0  0.50        -4.6097   1.0000                                                             
     4  1  0.50        -4.0817   0.0000                                                             
     4  3  2.50        -1.3606   0.0000                                                             
   Description                                                                                      
     l       E           TYP  RCUT    TYP  RCUT                                                     
     2     -5.0393973     23  2.200                                                                 
     2     10.8846608     23  2.200                                                                 
     0     -4.6097109     23  2.200                                                                 
     0      8.2520465     23  2.200                                                                 
     1     -2.7211652     23  2.200                                                                 
     1     21.7055443     23  2.200                                                                 
     3      2.7211652     23  2.300                                                                 
  local pseudopotential read in
  partial core-charges read in
  partial kinetic energy density read in
  atomic valenz-charges read in
  non local Contribution for L=           2  read in
    real space projection operators read in
  non local Contribution for L=           2  read in
    real space projection operators read in
  non local Contribution for L=           0  read in
    real space projection operators read in
  non local Contribution for L=           0  read in
    real space projection operators read in
  non local Contribution for L=           1  read in
    real space projection operators read in
  non local Contribution for L=           1  read in
    real space projection operators read in
    PAW grid and wavefunctions read in
 
   number of l-projection  operators is LMAX  =           6
   number of lm-projection operators is LMMAX =          18
 
 POTCAR:    PAW_PBE Zr_sv 04Jan2005               
   VRHFIN =Zr: 4s4p5s4d                                                                             
   LEXCH  = PE                                                                                      
   EATOM  =  1284.2219 eV,   94.3876 Ry                                                             
                                                                                                    
   TITEL  = PAW_PBE Zr_sv 04Jan2005                                                                 
   LULTRA =        F    use ultrasoft PP ?                                                          
   IUNSCR =        1    unscreen: 0-lin 1-nonlin 2-no                                               
   RPACOR =    2.200    partial core radius                                                         
   POMASS =   91.224; ZVAL   =   12.000    mass and valenz                                          
   RCORE  =    2.500    outmost cutoff radius                                                       
   RWIGS  =    3.070; RWIGS  =    1.625    wigner-seitz radius (au A)                               
   ENMAX  =  229.898; ENMIN  =  172.424 eV                                                          
   ICORE  =        3    local potential                                                             
   LCOR   =        T    correct aug charges                                                         
   LPAW   =        T    paw PP                                                                      
   EAUG   =  461.257                                                                                
   DEXC   =    0.000                                                                                
   RMAX   =    2.561    core radius for proj-oper                                                   
   RAUG   =    1.300    factor for augmentation sphere                                              
   RDEP   =    2.597    radius for radial grids                                                     
   RDEPT  =    2.007    core radius for aug-charge                                                  
                                                                                                    
   Atomic configuration                                                                             
   11 entries                                                                                       
     n  l   j            E        occ.                                                              
     1  0  0.50    -17820.0161   2.0000                                                             
     2  0  0.50     -2467.0882   2.0000                                                             
     2  1  1.50     -2199.6095   6.0000                                                             
     3  0  0.50      -402.4863   2.0000                                                             
     3  1  1.50      -315.3675   6.0000                                                             
     3  2  2.50      -172.4472  10.0000                                                             
     4  0  0.50       -52.4146   2.0000                                                             
     5  0  0.50        -3.8421   1.0000                                                             
     4  1  1.50       -30.5054   6.0000                                                             
     4  2  2.50        -2.3341   3.0000                                                             
     4  3  2.50        -1.3606   0.0000                                                             
   Description                                                                                      
     l       E           TYP  RCUT    TYP  RCUT                                                     
     0    -52.4145962     23  2.200                                                                 
     0     -3.8421270     23  2.500                                                                 
     1    -30.5053914     23  2.200                                                                 
     1     20.4087390     23  2.200                                                                 
     2     -2.3340816     23  2.500                                                                 
     2     -0.6120942     23  2.500                                                                 
     3     -4.0817478     23  2.500                                                                 
  local pseudopotential read in
  partial core-charges read in
  partial kinetic energy density read in
  atomic valenz-charges read in
  non local Contribution for L=           0  read in
    real space projection operators read in
  non local Contribution for L=           0  read in
    real space projection operators read in
  non local Contribution for L=           1  read in
    real space projection operators read in
  non local Contribution for L=           1  read in
    real space projection operators read in
  non local Contribution for L=           2  read in
    real space projection operators read in
  non local Contribution for L=           2  read in
    real space projection operators read in
    PAW grid and wavefunctions read in
 
   number of l-projection  operators is LMAX  =           6
   number of lm-projection operators is LMMAX =          18
 
 POTCAR:    PAW_PBE H 15Jun2001                   
   VRHFIN =H: ultrasoft test                                                                        
   LEXCH  = PE                                                                                      
   EATOM  =    12.4884 eV,    0.9179 Ry                                                             
                                                                                                    
   TITEL  = PAW_PBE H 15Jun2001                                                                     
   LULTRA =        F    use ultrasoft PP ?                                                          
   IUNSCR =        0    unscreen: 0-lin 1-nonlin 2-no                                               
   RPACOR =    0.000    partial core radius                                                         
   POMASS =    1.000; ZVAL   =    1.000    mass and valenz                                          
   RCORE  =    1.100    outmost cutoff radius                                                       
   RWIGS  =    0.700; RWIGS  =    0.370    wigner-seitz radius (au A)                               
   ENMAX  =  250.000; ENMIN  =  200.000 eV                                                          
   RCLOC  =    0.701    cutoff for local pot                                                        
   LCOR   =        T    correct aug charges                                                         
   LPAW   =        T    paw PP                                                                      
   EAUG   =  400.000                                                                                
   RMAX   =    1.123    core radius for proj-oper                                                   
   RAUG   =    1.200    factor for augmentation sphere                                              
   RDEP   =    1.112    radius for radial grids                                                     
   RDEPT  =    0.926    core radius for aug-charge                                                  
                                                                                                    
   Atomic configuration                                                                             
    2 entries                                                                                       
     n  l   j            E        occ.                                                              
     1  0  0.50        -6.4927   1.0000                                                             
     2  1  0.50        -3.4015   0.0000                                                             
   Description                                                                                      
     l       E           TYP  RCUT    TYP  RCUT                                                     
     0     -6.4927494     23  1.100                                                                 
     0      6.8029130     23  1.100                                                                 
     1     -4.0817478     23  1.100                                                                 
  local pseudopotential read in
  atomic valenz-charges read in
  non local Contribution for L=           0  read in
    real space projection operators read in
  non local Contribution for L=           0  read in
    real space projection operators read in
  non local Contribution for L=           1  read in
    real space projection operators read in
    PAW grid and wavefunctions read in
 
   number of l-projection  operators is LMAX  =           3
   number of lm-projection operators is LMMAX =           5
 
 Optimization of the real space projectors (new method)

 maximal supplied QI-value         = 16.25
 optimisation between [QCUT,QGAM] = [ 11.38, 22.75] = [ 36.24,144.96] Ry 
 Optimized for a Real-space Cutoff    1.52 Angstroem

   l    n(q)    QCUT    max X(q) W(low)/X(q) W(high)/X(q)  e(spline) 
   2      9    11.376     4.610    0.21E-03    0.10E-03    0.26E-06
   2      9    11.376     8.522    0.33E-03    0.16E-03    0.37E-06
   0     10    11.376    51.609    0.62E-04    0.20E-04    0.13E-06
   0     10    11.376    27.747    0.54E-04    0.20E-04    0.13E-06
   1     10    11.376    20.408    0.13E-04    0.99E-04    0.19E-06
   1     10    11.376    13.425    0.12E-04    0.87E-04    0.17E-06
 Optimization of the real space projectors (new method)

 maximal supplied QI-value         = 15.12
 optimisation between [QCUT,QGAM] = [ 11.34, 22.83] = [ 36.00,145.93] Ry 
 Optimized for a Real-space Cutoff    1.47 Angstroem

   l    n(q)    QCUT    max X(q) W(low)/X(q) W(high)/X(q)  e(spline) 
   0     10    11.338    12.107    0.38E-04    0.13E-04    0.27E-07
   0     10    11.338     9.948    0.69E-04    0.30E-04    0.38E-07
   1     10    11.338     3.563    0.26E-04    0.18E-04    0.40E-07
   1     10    11.338     4.524    0.25E-03    0.39E-04    0.44E-06
   2      9    11.338    87.261    0.26E-03    0.91E-05    0.26E-06
   2      9    11.338    70.950    0.25E-03    0.91E-05    0.25E-06
 Optimization of the real space projectors (new method)

 maximal supplied QI-value         = 34.20
 optimisation between [QCUT,QGAM] = [ 11.29, 22.57] = [ 35.68,142.71] Ry 
 Optimized for a Real-space Cutoff    1.16 Angstroem

   l    n(q)    QCUT    max X(q) W(low)/X(q) W(high)/X(q)  e(spline) 
   0      8    11.287    19.460    0.40E-03    0.73E-03    0.16E-06
   0      8    11.287    12.209    0.38E-03    0.70E-03    0.15E-06
   1      7    11.287     4.655    0.22E-03    0.25E-04    0.22E-06
  PAW_PBE Cu 22Jun2005                  :
 energy of atom  1       EATOM=-1390.9808
 kinetic energy error for atom=    0.0043 (will be added to EATOM!!)
  PAW_PBE Zr_sv 04Jan2005               :
 energy of atom  2       EATOM=-1284.2219
 kinetic energy error for atom=    0.0049 (will be added to EATOM!!)
  PAW_PBE H 15Jun2001                   :
 energy of atom  3       EATOM=  -12.4884
 kinetic energy error for atom=    0.0020 (will be added to EATOM!!)
 
 
 POSCAR: Cu-Zr-H
  positions in direct lattice
  velocities in cartesian coordinates
 exchange correlation table for  LEXCH =        8
   RHO(1)=    0.500       N(1)  =     2000
   RHO(2)=  100.500       N(2)  =     4000

 VTST: version 3.2, (02/03/18)

 CHAIN: initializing optimizer
 
 OPT: Using VASP Conjugate-Gradient optimizer
 CHAIN: Read ICHAIN            0
 
 POSCAR: Cu-Zr-H
  positions in direct lattice
  velocities in cartesian coordinates
 


--------------------------------------------------------------------------------------------------------


 ion  position               nearest neighbor table
   1  0.000  0.000  0.252-   7 2.57   3 2.57   4 2.57   2 2.57   6 2.57   8 2.57  12 2.57  10 2.57
                            16 2.57
   2  0.333  0.000  0.252-   8 2.57   9 2.57   5 2.57   1 2.57   3 2.57  11 2.57   4 2.57  10 2.57
                            17 2.57
   3  0.667  0.000  0.252-   1 2.57   7 2.57   6 2.57   9 2.57   2 2.57  12 2.57   5 2.57  18 2.57
                            11 2.57
   4  0.000  0.333  0.252-   5 2.57   6 2.57   1 2.57   7 2.57   2 2.57  13 2.57   9 2.57  10 2.57
                            15 2.57
   5  0.333  0.333  0.252-   4 2.57   2 2.57   7 2.57  13 2.57   8 2.57   6 2.57   3 2.57  11 2.57
                            14 2.57
   6  0.667  0.333  0.252-   4 2.57   9 2.57  15 2.57   3 2.57   1 2.57   8 2.57  14 2.57   5 2.57
                            12 2.57
   7  0.000  0.667  0.252-   1 2.57   3 2.57  16 2.57  18 2.57   4 2.57   5 2.57   8 2.57   9 2.57
                            13 2.57
   8  0.333  0.667  0.252-   9 2.57   2 2.57  17 2.57   6 2.57   1 2.57   7 2.57   5 2.57  14 2.57
                            16 2.57
   9  0.667  0.667  0.252-   8 2.57   6 2.57   2 2.57  17 2.57   3 2.57   7 2.57   4 2.57  15 2.57
                            18 2.57
  10  0.111  0.111  0.351-  26 2.54  19 2.54  11 2.57  12 2.57  13 2.57   1 2.57   2 2.57   4 2.57
                            15 2.57  16 2.57  17 2.57  20 2.59
  11  0.444  0.111  0.351-  27 2.56  10 2.57  13 2.57   2 2.57  17 2.57  14 2.57  12 2.57   5 2.57
                             3 2.57  18 2.57  20 2.58  21 2.58
  12  0.778  0.111  0.351-  19 2.54  25 2.54  15 2.57  10 2.57  14 2.57  18 2.57   3 2.57   1 2.57
                            16 2.57  11 2.57   6 2.57  21 2.59
  13  0.111  0.444  0.351-  22 2.56  16 2.57  18 2.57  10 2.57  11 2.57  14 2.57   5 2.57   4 2.57
                             7 2.57  15 2.57  23 2.58  20 2.58
  14  0.444  0.444  0.351-  24 2.56  15 2.57  17 2.57  12 2.57  16 2.57  13 2.57  11 2.57   6 2.57
                             8 2.57   5 2.57  21 2.58  23 2.58
  15  0.778  0.444  0.351-  19 2.54  24 2.56  22 2.56  14 2.57  17 2.57  12 2.57   6 2.57  18 2.57
                            10 2.57   9 2.57  13 2.57   4 2.57
  16  0.111  0.778  0.351-  25 2.54  26 2.54  18 2.57  13 2.57   7 2.57  14 2.57  17 2.57  12 2.57
                            10 2.57   8 2.57   1 2.57  23 2.59
  17  0.444  0.778  0.351-  26 2.54  27 2.56  24 2.56  14 2.57  15 2.57   8 2.57   9 2.57  11 2.57
                            16 2.57  18 2.57  10 2.57   2 2.57
  18  0.778  0.778  0.351-  25 2.54  22 2.56  27 2.56  16 2.57  13 2.57   7 2.57  15 2.57  12 2.57
                            17 2.57   9 2.57   3 2.57  11 2.57
  19  0.889  0.221  0.448-  12 2.54  10 2.54  15 2.54  25 2.55  26 2.55  32 2.56  31 2.56  22 2.57
                            24 2.57  28 2.57  21 2.58  20 2.58
  20  0.223  0.223  0.450-  23 2.55  21 2.55  29 2.57  31 2.57  27 2.57  22 2.57  26 2.58  19 2.58
                            11 2.58  13 2.58  10 2.59  36 2.86
  21  0.554  0.223  0.450-  20 2.55  23 2.55  32 2.57  30 2.57  24 2.57  27 2.57  19 2.58  25 2.58
                            14 2.58  11 2.58  12 2.59  36 2.86
  22  0.889  0.556  0.449-  18 2.56  15 2.56  13 2.56  31 2.56  33 2.56  24 2.57  27 2.57  23 2.57
                            20 2.57  19 2.57  25 2.57  35 2.58
  23  0.223  0.554  0.450-  20 2.55  21 2.55  33 2.57  34 2.57  22 2.57  24 2.57  25 2.58  26 2.58
                            13 2.58  14 2.58  16 2.59  36 2.86
  24  0.556  0.556  0.449-  15 2.56  17 2.56  14 2.56  32 2.56  34 2.56  22 2.57  27 2.57  21 2.57
                            23 2.57  19 2.57  26 2.57  35 2.58
  25  0.889  0.889  0.448-  12 2.54  16 2.54  18 2.54  19 2.55  26 2.55  33 2.56  30 2.56  22 2.57
                            27 2.57  28 2.57  21 2.58  23 2.58
  26  0.221  0.889  0.448-  10 2.54  16 2.54  17 2.54  25 2.55  19 2.55  29 2.56  34 2.56  27 2.57
                            24 2.57  28 2.57  20 2.58  23 2.58
  27  0.556  0.889  0.449-  17 2.56  18 2.56  11 2.56  29 2.56  30 2.56  24 2.57  22 2.57  20 2.57
                            21 2.57  26 2.57  25 2.57  35 2.58
  28  0.000  0.000  0.547-  33 2.55  30 2.55  31 2.55  29 2.55  32 2.55  34 2.55  25 2.57  19 2.57
                            26 2.57
  29  0.334  0.994  0.547-  34 2.47  35 2.54  28 2.55  27 2.56  26 2.56  20 2.57  30 2.60  31 2.62
                            36 2.64
  30  0.672  0.994  0.547-  33 2.47  35 2.54  28 2.55  27 2.56  25 2.56  21 2.57  29 2.60  32 2.62
                            36 2.64
  31  0.994  0.334  0.547-  32 2.47  35 2.54  28 2.55  22 2.56  19 2.56  20 2.57  33 2.60  29 2.62
                            36 2.64
  32  0.672  0.334  0.547-  31 2.47  35 2.54  28 2.55  24 2.56  19 2.56  21 2.57  34 2.60  30 2.62
                            36 2.64
  33  0.994  0.672  0.547-  30 2.47  35 2.54  28 2.55  22 2.56  25 2.56  23 2.57  31 2.60  34 2.62
                            36 2.64
  34  0.334  0.672  0.547-  29 2.47  35 2.54  28 2.55  24 2.56  26 2.56  23 2.57  32 2.60  33 2.62
                            36 2.64
  35  0.667  0.667  0.548-  34 2.54  32 2.54  29 2.54  30 2.54  33 2.54  31 2.54  24 2.58  27 2.58
                            22 2.58
  36  0.333  0.333  0.565-  37 1.87  31 2.64  29 2.64  33 2.64  32 2.64  34 2.64  30 2.64  23 2.86
                            20 2.86  21 2.86
  37  0.333  0.333  0.653-  36 1.87
 
  LATTYP: Found a hexagonal cell.
 ALAT       =     7.6967864036
 C/A-ratio  =     2.7653617908
  
  Lattice vectors:
  
 A1 = (  -3.8483927580,  -6.6656128093,   0.0000000000)
 A2 = (   7.6967864037,   0.0000000000,   0.0000000000)
 A3 = (   0.0000000000,   0.0000000000,  21.2843990326)


Analysis of symmetry for initial positions (statically):
=====================================================================
 Subroutine PRICEL returns:
 Original cell was already a primitive cell.
 

 Routine SETGRP: Setting up the symmetry group for a 
 hexagonal supercell.


 Subroutine GETGRP returns: Found  6 space group operations
 (whereof  6 operations were pure point group operations)
 out of a pool of 24 trial point group operations.


The static configuration has the point symmetry C_3v.


Analysis of symmetry for dynamics (positions and initial velocities):
=====================================================================
 Subroutine PRICEL returns:
 Original cell was already a primitive cell.
 

 Routine SETGRP: Setting up the symmetry group for a 
 hexagonal supercell.


 Subroutine GETGRP returns: Found  6 space group operations
 (whereof  6 operations were pure point group operations)
 out of a pool of 24 trial point group operations.


The dynamic configuration has the point symmetry C_3v.


Analysis of constrained symmetry for selective dynamics:
=====================================================================
 Subroutine PRICEL returns:
 Original cell was already a primitive cell.
 

 Routine SETGRP: Setting up the symmetry group for a 
 hexagonal supercell.


 Subroutine GETGRP returns: Found  6 space group operations
 (whereof  6 operations were pure point group operations)
 out of a pool of 24 trial point group operations.


The constrained configuration has the point symmetry C_3v.


 Subroutine INISYM returns: Found  6 space group operations
 (whereof  6 operations are pure point group operations),
 and found     1 'primitive' translations


----------------------------------------------------------------------------------------

                                     Primitive cell                                     

  volume of cell :    1091.9705

  direct lattice vectors                    reciprocal lattice vectors
     7.696786404  0.000000000  0.000000000     0.129924354 -0.075011849  0.000000000
     3.848392758  6.665612809  0.000000000     0.000000000  0.150023716  0.000000000
     0.000000000  0.000000000 21.284399033     0.000000000  0.000000000  0.046982769

  length of vectors
     7.696786404  7.696786404 21.284399033     0.150023716  0.150023716  0.046982769

  position of ions in fractional coordinates (direct lattice)
     0.000000000  0.000000000  0.252370745
     0.333333343  0.000000000  0.252370745
     0.666666687  0.000000000  0.252370745
     1.000000000  0.333333343  0.252370745
     0.333333313  0.333333343  0.252370745
     0.666666687  0.333333343  0.252370745
     1.000000000  0.666666687  0.252370745
     0.333333373  0.666666687  0.252370745
     0.666666627  0.666666687  0.252370745
     0.111111119  0.111111112  0.350790262
     0.444444418  0.111111112  0.350790262
     0.777777791  0.111111112  0.350790262
     0.111111119  0.444444448  0.350790262
     0.444444478  0.444444448  0.350790262
     0.777777731  0.444444448  0.350790262
     0.111111112  0.777777731  0.350790262
     0.444444478  0.777777731  0.350790262
     0.777777851  0.777777731  0.350790262
     0.889406203  0.221187610  0.447709154
     0.223097349  0.223097334  0.450141283
     0.553805361  0.223097334  0.450141283
     0.888858350  0.555570795  0.448772467
     0.223097319  0.553805301  0.450141283
     0.555570855  0.555570795  0.448772467
     0.889406203  0.889406203  0.447709154
     0.221187625  0.889406203  0.447709154
     0.555570795  0.888858350  0.448772467
     0.000000000  0.000000000  0.546769210
     0.334159469  0.993667856  0.546920887
     0.672172705  0.993667856  0.546920887
     0.993667856  0.334159469  0.546920887
     0.672172705  0.334159469  0.546920887
     0.993667856  0.672172705  0.546920887
     0.334159499  0.672172705  0.546920887
     0.666666627  0.666666687  0.548138078
     0.333333313  0.333333343  0.565338885
     0.333333313  0.333333343  0.653331446

  ion indices of the primitive-cell ions
   primitive index   ion index
                 1           1
                 2           2
                 3           3
                 4           4
                 5           5
                 6           6
                 7           7
                 8           8
                 9           9
                10          10
                11          11
                12          12
                13          13
                14          14
                15          15
                16          16
                17          17
                18          18
                19          19
                20          20
                21          21
                22          22
                23          23
                24          24
                25          25
                26          26
                27          27
                28          28
                29          29
                30          30
                31          31
                32          32
                33          33
                34          34
                35          35
                36          36
                37          37

----------------------------------------------------------------------------------------

 
 
 KPOINTS: Automatic mesh                          

Automatic generation of k-mesh.
 Grid dimensions read from file:
 generate k-points for:    8    8    1

 Generating k-lattice:

  Cartesian coordinates                     Fractional coordinates (reciprocal lattice)
     0.016240544 -0.009376481  0.000000000     0.125000000 -0.000000000  0.000000000
     0.000000000  0.018752964  0.000000000     0.000000000  0.125000000  0.000000000
     0.000000000  0.000000000  0.046982769     0.000000000  0.000000000  1.000000000

  Length of vectors
     0.018752964  0.018752964  0.046982769

  Shift w.r.t. Gamma in fractional coordinates (k-lattice)
     0.000000000  0.000000000  0.000000000

 TETIRR: Found     36 inequivalent tetrahedra from      384
 
 Subroutine IBZKPT returns following result:
 ===========================================
 
 Found     10 irreducible k-points:
 
 Following reciprocal coordinates:
            Coordinates               Weight
  0.000000  0.000000  0.000000      1.000000
  0.125000 -0.000000  0.000000      6.000000
  0.250000 -0.000000  0.000000      6.000000
  0.375000 -0.000000  0.000000      6.000000
  0.500000 -0.000000  0.000000      3.000000
  0.250000  0.125000  0.000000      6.000000
  0.375000  0.125000  0.000000     12.000000
  0.500000  0.125000  0.000000     12.000000
  0.500000  0.250000  0.000000      6.000000
 -0.375000  0.250000  0.000000      6.000000
 
 Following cartesian coordinates:
            Coordinates               Weight
  0.000000  0.000000  0.000000      1.000000
  0.016241 -0.009376  0.000000      6.000000
  0.032481 -0.018753  0.000000      6.000000
  0.048722 -0.028129  0.000000      6.000000
  0.064962 -0.037506  0.000000      3.000000
  0.032481  0.000000  0.000000      6.000000
  0.048722 -0.009376  0.000000     12.000000
  0.064962 -0.018753  0.000000     12.000000
  0.064962  0.000000  0.000000      6.000000
 -0.048722  0.065635  0.000000      6.000000
 


--------------------------------------------------------------------------------------------------------




 Dimension of arrays:
   k-points           NKPTS =     10   k-points in BZ     NKDIM =     10   number of bands    NBANDS=    252
   number of dos      NEDOS =    301   number of ions     NIONS =     37
   non local maximal  LDIM  =      6   non local SUM 2l+1 LMDIM =     18
   total plane-waves  NPLWV = 211680
   max r-space proj   IRMAX =   2893   max aug-charges    IRDMAX=   8259
   dimension x,y,z NGX =    42 NGY =   42 NGZ =  120
   dimension x,y,z NGXF=    84 NGYF=   84 NGZF=  240
   support grid    NGXF=    84 NGYF=   84 NGZF=  240
   ions per type =              35   1   1
   NGX,Y,Z   is equivalent  to a cutoff of   9.07,  9.07,  9.37 a.u.
   NGXF,Y,Z  is equivalent  to a cutoff of  18.14, 18.14, 18.75 a.u.

 SYSTEM =  unknown system                          
 POSCAR =  Cu-Zr-H                                 

 Startparameter for this run:
   NWRITE =      2    write-flag & timer
   PREC   = normal    normal or accurate (medium, high low for compatibility)
   ISTART =      0    job   : 0-new  1-cont  2-samecut
   ICHARG =     11    charge: 1-file 2-atom 10-const
   ISPIN  =      1    spin polarized calculation?
   LNONCOLLINEAR =      F non collinear calculations
   LSORBIT =      F    spin-orbit coupling
   INIWAV =      1    electr: 0-lowe 1-rand  2-diag
   LASPH  =      F    aspherical Exc in radial PAW
   METAGGA=      F    non-selfconsistent MetaGGA calc.

 Electronic Relaxation 1
   ENCUT  =  500.0 eV  36.75 Ry    6.06 a.u.  14.03 14.03 38.81*2*pi/ulx,y,z
   ENINI  =  500.0     initial cutoff
   ENAUG  =  587.0 eV  augmentation charge cutoff
   NELM   =    150;   NELMIN=  2; NELMDL= -5     # of ELM steps 
   EDIFF  = 0.1E-04   stopping-criterion for ELM
   LREAL  =      T    real-space projection
   NLSPLINE    = F    spline interpolate recip. space projectors
   LCOMPAT=      F    compatible to vasp.4.4
   GGA_COMPAT  = T    GGA compatible to vasp.4.4-vasp.4.6
   LMAXPAW     = -100 max onsite density
   LMAXMIX     =    2 max onsite mixed and CHGCAR
   VOSKOWN=      0    Vosko Wilk Nusair interpolation
   ROPT   =   -0.00050  -0.00050  -0.00050
 Ionic relaxation
   EDIFFG = -.1E-01   stopping-criterion for IOM
   NSW    =      0    number of steps for IOM
   NBLOCK =      1;   KBLOCK =      1    inner block; outer block 
   IBRION =     -1    ionic relax: 0-MD 1-quasi-New 2-CG
   NFREE  =      1    steps in history (QN), initial steepest desc. (CG)
   ISIF   =      2    stress and relaxation
   IWAVPR =     10    prediction:  0-non 1-charg 2-wave 3-comb
   ISYM   =      2    0-nonsym 1-usesym 2-fastsym
   LCORR  =      T    Harris-Foulkes like correction to forces

   POTIM  = 0.5000    time-step for ionic-motion
   TEIN   =    0.0    initial temperature
   TEBEG  =    0.0;   TEEND  =   0.0 temperature during run
   SMASS  =  -3.00    Nose mass-parameter (am)
   estimated Nose-frequenzy (Omega)   =  0.10E-29 period in steps = 0.13E+47 mass=  -0.135E-26a.u.
   SCALEE = 1.0000    scale energy and forces
   NPACO  =    256;   APACO  = 16.0  distance and # of slots for P.C.
   PSTRESS=    0.0 pullay stress

  Mass of Ions in am
   POMASS =  63.55 91.22  1.00
  Ionic Valenz
   ZVAL   =  11.00 12.00  1.00
  Atomic Wigner-Seitz radii
   RWIGS  =  -1.00 -1.00 -1.00
  virtual crystal weights 
   VCA    =   1.00  1.00  1.00
   NELECT =     398.0000    total number of electrons
   NUPDOWN=      -1.0000    fix difference up-down

 DOS related values:
   EMIN   =  10.00;   EMAX   =-10.00  energy-range for DOS
   EFERMI =   0.00
   ISMEAR =    -5;   SIGMA  =   0.10  broadening in eV -4-tet -1-fermi 0-gaus

 Electronic relaxation 2 (details)
   IALGO  =     68    algorithm
   LDIAG  =      T    sub-space diagonalisation (order eigenvalues)
   LSUBROT=      F    optimize rotation matrix (better conditioning)
   TURBO    =      0    0=normal 1=particle mesh
   IRESTART =      0    0=no restart 2=restart with 2 vectors
   NREBOOT  =      0    no. of reboots
   NMIN     =      0    reboot dimension
   EREF     =   0.00    reference energy to select bands
   IMIX   =      4    mixing-type and parameters
     AMIX     =   0.40;   BMIX     =  1.00
     AMIX_MAG =   1.60;   BMIX_MAG =  1.00
     AMIN     =   0.10
     WC   =   100.;   INIMIX=   1;  MIXPRE=   1;  MAXMIX= -45

 Intra band minimization:
   WEIMIN = 0.0000     energy-eigenvalue tresh-hold
   EBREAK =  0.99E-08  absolut break condition
   DEPER  =   0.30     relativ break condition  

   TIME   =   0.40     timestep for ELM

  volume/ion in A,a.u.               =      29.51       199.16
  Fermi-wavevector in a.u.,A,eV,Ry     =   1.169407  2.209858 18.606129  1.367512
  Thomas-Fermi vector in A             =   2.305880
 
 Write flags
   LWAVE        =      F    write WAVECAR
   LDOWNSAMPLE  =      F    k-point downsampling of WAVECAR
   LCHARG       =      F    write CHGCAR
   LVTOT        =      F    write LOCPOT, total local potential
   LVHAR        =      F    write LOCPOT, Hartree potential only
   LELF         =      F    write electronic localiz. function (ELF)
   LORBIT       =     10    0 simple, 1 ext, 2 COOP (PROOUT), +10 PAW based schemes


 Dipole corrections
   LMONO  =      F    monopole corrections only (constant potential shift)
   LDIPOL =      F    correct potential (dipole corrections)
   IDIPOL =      0    1-x, 2-y, 3-z, 4-all directions 
   EPSILON=  1.0000000 bulk dielectric constant

 Exchange correlation treatment:
   GGA     =    --    GGA type
   LEXCH   =     8    internal setting for exchange type
   VOSKOWN=      0    Vosko Wilk Nusair interpolation
   LHFCALC =     F    Hartree Fock is set to
   LHFONE  =     F    Hartree Fock one center treatment
   AEXX    =    0.0000 exact exchange contribution

 Linear response parameters
   LEPSILON=     F    determine dielectric tensor
   LRPA    =     F    only Hartree local field effects (RPA)
   LNABLA  =     F    use nabla operator in PAW spheres
   LVEL    =     F    velocity operator in full k-point grid
   LINTERFAST=   F  fast interpolation
   KINTER  =     0    interpolate to denser k-point grid
   CSHIFT  =0.1000    complex shift for real part using Kramers Kronig
   OMEGAMAX=  -1.0    maximum frequency
   DEG_THRESHOLD= 0.2000000E-02 threshold for treating states as degnerate
   RTIME   =   -0.100 relaxation time in fs
  (WPLASMAI=    0.000 imaginary part of plasma frequency in eV, 0.658/RTIME)
   DFIELD  = 0.0000000 0.0000000 0.0000000 field for delta impulse in time
 
 Orbital magnetization related:
   ORBITALMAG=     F  switch on orbital magnetization
   LCHIMAG   =     F  perturbation theory with respect to B field
   DQ        =  0.001000  dq finite difference perturbation B field
   LLRAUG    =     F  two centre corrections for induced B field



--------------------------------------------------------------------------------------------------------


 Static calculation
 charge density and potential remain constant during run
 non-spin polarized calculation
 RMM-DIIS sequential band-by-band and
  variant of blocked Davidson during initial phase
 perform sub-space diagonalisation
    before iterative eigenvector-optimisation
 no mixing
 using additional bands           53
 real space projection scheme for non local part
 use partial core corrections
 calculate Harris-corrections to forces 
   (improved forces if not selfconsistent)
 use gradient corrections 
 WARNING: stress and forces are not correct
  (second derivative of E(xc) not defined)
 use of overlap-Matrix (Vanderbilt PP)
 Fermi weights with tetrahedron method with Bloechl corrections


--------------------------------------------------------------------------------------------------------


  energy-cutoff  :      500.00
  volume of cell :     1091.97
      direct lattice vectors                 reciprocal lattice vectors
     7.696786404  0.000000000  0.000000000     0.129924354 -0.075011849  0.000000000
     3.848392758  6.665612809  0.000000000     0.000000000  0.150023716  0.000000000
     0.000000000  0.000000000 21.284399033     0.000000000  0.000000000  0.046982769

  length of vectors
     7.696786404  7.696786404 21.284399033     0.150023716  0.150023716  0.046982769


 
 k-points in units of 2pi/SCALE and weight: Automatic mesh                          
   0.00000000  0.00000000  0.00000000       0.016
   0.01624054 -0.00937648  0.00000000       0.094
   0.03248109 -0.01875296  0.00000000       0.094
   0.04872163 -0.02812944  0.00000000       0.094
   0.06496218 -0.03750592  0.00000000       0.047
   0.03248109  0.00000000  0.00000000       0.094
   0.04872163 -0.00937648  0.00000000       0.188
   0.06496218 -0.01875296  0.00000000       0.188
   0.06496218  0.00000000  0.00000000       0.094
  -0.04872163  0.06563537  0.00000000       0.094
 
 k-points in reciprocal lattice and weights: Automatic mesh                          
   0.00000000  0.00000000  0.00000000       0.016
   0.12500000 -0.00000000  0.00000000       0.094
   0.25000000 -0.00000000  0.00000000       0.094
   0.37500000 -0.00000000  0.00000000       0.094
   0.50000000 -0.00000000  0.00000000       0.047
   0.25000000  0.12500000  0.00000000       0.094
   0.37500000  0.12500000  0.00000000       0.188
   0.50000000  0.12500000  0.00000000       0.188
   0.50000000  0.25000000  0.00000000       0.094
  -0.37500000  0.25000000  0.00000000       0.094
 
 position of ions in fractional coordinates (direct lattice) 
   0.00000000  0.00000000  0.25237075
   0.33333334  0.00000000  0.25237075
   0.66666669  0.00000000  0.25237075
   0.00000000  0.33333334  0.25237075
   0.33333331  0.33333334  0.25237075
   0.66666669  0.33333334  0.25237075
   0.00000000  0.66666669  0.25237075
   0.33333337  0.66666669  0.25237075
   0.66666663  0.66666669  0.25237075
   0.11111112  0.11111111  0.35079026
   0.44444442  0.11111111  0.35079026
   0.77777779  0.11111111  0.35079026
   0.11111112  0.44444445  0.35079026
   0.44444448  0.44444445  0.35079026
   0.77777773  0.44444445  0.35079026
   0.11111111  0.77777773  0.35079026
   0.44444448  0.77777773  0.35079026
   0.77777785  0.77777773  0.35079026
   0.88940620  0.22118761  0.44770915
   0.22309735  0.22309733  0.45014128
   0.55380536  0.22309733  0.45014128
   0.88885835  0.55557079  0.44877247
   0.22309732  0.55380530  0.45014128
   0.55557085  0.55557079  0.44877247
   0.88940620  0.88940620  0.44770915
   0.22118762  0.88940620  0.44770915
   0.55557079  0.88885835  0.44877247
   0.00000000  0.00000000  0.54676921
   0.33415947  0.99366786  0.54692089
   0.67217271  0.99366786  0.54692089
   0.99366786  0.33415947  0.54692089
   0.67217271  0.33415947  0.54692089
   0.99366786  0.67217271  0.54692089
   0.33415950  0.67217271  0.54692089
   0.66666663  0.66666669  0.54813808
   0.33333331  0.33333334  0.56533888
   0.33333331  0.33333334  0.65333145
 
 position of ions in cartesian coordinates  (Angst):
   0.00000000  0.00000000  5.37155964
   2.56559554  0.00000000  5.37155964
   5.13119109  0.00000000  5.37155964
   1.28279762  2.22187100  5.37155964
   3.84839293  2.22187100  5.37155964
   6.41398872  2.22187100  5.37155964
   2.56559525  4.44374201  5.37155964
   5.13119102  4.44374201  5.37155964
   7.69678588  4.44374201  5.37155964
   1.28279775  0.74062365  7.46635991
   3.84839295  0.74062365  7.46635991
   6.41398873  0.74062365  7.46635991
   2.56559535  2.96249461  7.46635991
   5.13119101  2.96249461  7.46635991
   7.69678586  2.96249461  7.46635991
   3.84839268  5.18436521  7.46635991
   6.41398840  5.18436521  7.46635991
   8.97958418  5.18436521  7.46635991
   7.69678637  1.47435097  9.52922029
   2.57569881  1.48708045  9.58098670
   5.12108774  1.48708045  9.58098670
   8.97940749  3.70321981  9.55185227
   3.84839273  3.69145171  9.58098670
   6.41416482  3.70321981  9.55185227
  10.26835396  5.92843738  9.52922029
   5.12521829  5.92843738  9.52922029
   7.69678578  5.92478561  9.55185227
   0.00000000  0.00000000 11.63765405
   6.39597824  6.62340519 11.64088240
   8.99759392  6.62340519 11.64088240
   8.93402612  2.22737764 11.64088240
   6.45954662  2.22737764 11.64088240
  10.23483381  4.48044299 11.64088240
   5.15873886  4.48044299 11.64088240
   7.69678588  4.44374201 11.66678957
   3.84839293  2.22187100 12.03289841
   3.84839293  2.22187100 13.90576719
 


--------------------------------------------------------------------------------------------------------


 k-point   1 :   0.0000 0.0000 0.0000  plane waves:   27671
 k-point   2 :   0.1250-0.0000 0.0000  plane waves:   27649
 k-point   3 :   0.2500-0.0000 0.0000  plane waves:   27714
 k-point   4 :   0.3750-0.0000 0.0000  plane waves:   27740
 k-point   5 :   0.5000-0.0000 0.0000  plane waves:   27782
 k-point   6 :   0.2500 0.1250 0.0000  plane waves:   27698
 k-point   7 :   0.3750 0.1250 0.0000  plane waves:   27702
 k-point   8 :   0.5000 0.1250 0.0000  plane waves:   27747
 k-point   9 :   0.5000 0.2500 0.0000  plane waves:   27734
 k-point  10 :  -0.3750 0.2500 0.0000  plane waves:   27782

 maximum and minimum number of plane-waves per node :     27782    27649

 maximum number of plane-waves:     27782
 maximum index in each direction: 
   IXMAX=   14   IYMAX=   14   IZMAX=   38
   IXMIN=  -14   IYMIN=  -14   IZMIN=  -38


 serial   3D FFT for wavefunctions
 parallel 3D FFT for charge:
    minimum data exchange during FFTs selected (reduces bandwidth)


 total amount of memory used by VASP MPI-rank0   104485. kBytes
=======================================================================

   base      :      30000. kBytes
   nonlr-proj:      17599. kBytes
   fftplans  :       2916. kBytes
   grid      :      12390. kBytes
   one-center:        575. kBytes
   wavefun   :      41005. kBytes
 
     INWAV:  cpu time    0.0000: real time    0.0000
 initial charge density was supplied:
 number of electron     398.0000205 magnetization 
 keeping initial charge density in first step


--------------------------------------------------------------------------------------------------------


 Maximum index for non-local projection operator         2775
 Maximum index for augmentation-charges          438 (set IRDMAX)


--------------------------------------------------------------------------------------------------------


 First call to EWALD:  gamma=   0.172
 Maximum number of real-space cells 4x 4x 2
 Maximum number of reciprocal cells 2x 2x 5

    FEWALD:  cpu time    0.0014: real time    0.0014


--------------------------------------- Iteration      1(   1)  ---------------------------------------


    POTLOK:  cpu time    0.0293: real time    0.0297
    SETDIJ:  cpu time    0.0041: real time    0.0041
     EDDAV:  cpu time    5.7330: real time    5.7342
 BZINTS: Fermi energy:   13.811017;  398.000000 electrons
         Band energy: 0.248811E+04;  BLOECHL correction:   -0.033479
       DOS:  cpu time    0.0101: real time    0.0101
    --------------------------------------------
      LOOP:  cpu time    5.7765: real time    5.7782

 eigenvalue-minimisations  :  5040
 total energy-change (2. order) : 0.3714833E+04  (-0.1717958E+05)
 number of electron     398.0000205 magnetization 
 augmentation part      398.0000205 magnetization 

 Free energy of the ion-electron system (eV)
  ---------------------------------------------------
  alpha Z        PSCENC =       889.36852643
  Ewald energy   TEWEN  =    147397.35618826
  -Hartree energ DENC   =   -194902.14929742
  -exchange      EXHF   =         0.00000000
  -V(xc)+E(xc)   XCENC  =      1609.65150923
  PAW double counting   =     47222.15756911   -50970.54891179
  entropy T*S    EENTRO =         0.00000000
  eigenvalues    EBANDS =      2488.11476042
  atomic energy  EATOM  =     49980.88255679
  Solvation  Ediel_sol  =         0.00000000
  ---------------------------------------------------
  free energy    TOTEN  =      3714.83290103 eV

  energy without entropy =     3714.83290103  energy(sigma->0) =     3714.83290103


--------------------------------------------------------------------------------------------------------




--------------------------------------- Iteration      1(   2)  ---------------------------------------


     EDDAV:  cpu time    6.1992: real time    6.1995
 BZINTS: Fermi energy:    3.134216;  398.000000 electrons
         Band energy:-0.845922E+03;  BLOECHL correction:   -0.010782
       DOS:  cpu time    0.0099: real time    0.0127
    --------------------------------------------
      LOOP:  cpu time    6.2091: real time    6.2122

 eigenvalue-minimisations  :  5544
 total energy-change (2. order) :-0.3334037E+04  (-0.3195627E+04)
 number of electron     398.0000205 magnetization 
 augmentation part      398.0000205 magnetization 

 Free energy of the ion-electron system (eV)
  ---------------------------------------------------
  alpha Z        PSCENC =       889.36852643
  Ewald energy   TEWEN  =    147397.35618826
  -Hartree energ DENC   =   -194902.14929742
  -exchange      EXHF   =         0.00000000
  -V(xc)+E(xc)   XCENC  =      1609.65150923
  PAW double counting   =     47222.15756911   -50970.54891179
  entropy T*S    EENTRO =         0.00000000
  eigenvalues    EBANDS =      -845.92247091
  atomic energy  EATOM  =     49980.88255679
  Solvation  Ediel_sol  =         0.00000000
  ---------------------------------------------------
  free energy    TOTEN  =       380.79566971 eV

  energy without entropy =      380.79566971  energy(sigma->0) =      380.79566971


--------------------------------------------------------------------------------------------------------




--------------------------------------- Iteration      1(   3)  ---------------------------------------


     EDDAV:  cpu time    6.0202: real time    6.0205
 BZINTS: Fermi energy:    0.252204;  398.000000 electrons
         Band energy:-0.133049E+04;  BLOECHL correction:   -0.060728
       DOS:  cpu time    0.0100: real time    0.0100
    --------------------------------------------
      LOOP:  cpu time    6.0302: real time    6.0305

 eigenvalue-minimisations  :  5348
 total energy-change (2. order) :-0.4845644E+03  (-0.4566185E+03)
 number of electron     398.0000205 magnetization 
 augmentation part      398.0000205 magnetization 

 Free energy of the ion-electron system (eV)
  ---------------------------------------------------
  alpha Z        PSCENC =       889.36852643
  Ewald energy   TEWEN  =    147397.35618826
  -Hartree energ DENC   =   -194902.14929742
  -exchange      EXHF   =         0.00000000
  -V(xc)+E(xc)   XCENC  =      1609.65150923
  PAW double counting   =     47222.15756911   -50970.54891179
  entropy T*S    EENTRO =         0.00000000
  eigenvalues    EBANDS =     -1330.48686107
  atomic energy  EATOM  =     49980.88255679
  Solvation  Ediel_sol  =         0.00000000
  ---------------------------------------------------
  free energy    TOTEN  =      -103.76872045 eV

  energy without entropy =     -103.76872045  energy(sigma->0) =     -103.76872045


--------------------------------------------------------------------------------------------------------




--------------------------------------- Iteration      1(   4)  ---------------------------------------


     EDDAV:  cpu time    7.2820: real time    7.2824
 BZINTS: Fermi energy:    0.065398;  398.000000 electrons
         Band energy:-0.135903E+04;  BLOECHL correction:   -0.056277
       DOS:  cpu time    0.0107: real time    0.0107
    --------------------------------------------
      LOOP:  cpu time    7.2927: real time    7.2931

 eigenvalue-minimisations  :  6720
 total energy-change (2. order) :-0.2854395E+02  (-0.2795080E+02)
 number of electron     398.0000205 magnetization 
 augmentation part      398.0000205 magnetization 

 Free energy of the ion-electron system (eV)
  ---------------------------------------------------
  alpha Z        PSCENC =       889.36852643
  Ewald energy   TEWEN  =    147397.35618826
  -Hartree energ DENC   =   -194902.14929742
  -exchange      EXHF   =         0.00000000
  -V(xc)+E(xc)   XCENC  =      1609.65150923
  PAW double counting   =     47222.15756911   -50970.54891179
  entropy T*S    EENTRO =         0.00000000
  eigenvalues    EBANDS =     -1359.03081291
  atomic energy  EATOM  =     49980.88255679
  Solvation  Ediel_sol  =         0.00000000
  ---------------------------------------------------
  free energy    TOTEN  =      -132.31267230 eV

  energy without entropy =     -132.31267230  energy(sigma->0) =     -132.31267230


--------------------------------------------------------------------------------------------------------




--------------------------------------- Iteration      1(   5)  ---------------------------------------


     EDDAV:  cpu time    9.5177: real time    9.5180
 BZINTS: Fermi energy:    0.056829;  398.000000 electrons
         Band energy:-0.136031E+04;  BLOECHL correction:   -0.056836
       DOS:  cpu time    0.0106: real time    0.0106
    --------------------------------------------
      LOOP:  cpu time    9.5283: real time    9.5286

 eigenvalue-minimisations  :  9128
 total energy-change (2. order) :-0.1275877E+01  (-0.1270433E+01)
 number of electron     398.0000205 magnetization 
 augmentation part      398.0000205 magnetization 

 Free energy of the ion-electron system (eV)
  ---------------------------------------------------
  alpha Z        PSCENC =       889.36852643
  Ewald energy   TEWEN  =    147397.35618826
  -Hartree energ DENC   =   -194902.14929742
  -exchange      EXHF   =         0.00000000
  -V(xc)+E(xc)   XCENC  =      1609.65150923
  PAW double counting   =     47222.15756911   -50970.54891179
  entropy T*S    EENTRO =         0.00000000
  eigenvalues    EBANDS =     -1360.30668958
  atomic energy  EATOM  =     49980.88255679
  Solvation  Ediel_sol  =         0.00000000
  ---------------------------------------------------
  free energy    TOTEN  =      -133.58854897 eV

  energy without entropy =     -133.58854897  energy(sigma->0) =     -133.58854897


--------------------------------------------------------------------------------------------------------




--------------------------------------- Iteration      1(   6)  ---------------------------------------


    EDDIAG:  cpu time    1.0987: real time    1.0991
  RMM-DIIS:  cpu time    3.3004: real time    3.3005
    ORTHCH:  cpu time    0.2084: real time    0.2084
 BZINTS: Fermi energy:    0.056632;  398.000000 electrons
         Band energy:-0.136032E+04;  BLOECHL correction:   -0.056894
       DOS:  cpu time    0.0106: real time    0.0106
    --------------------------------------------
      LOOP:  cpu time    4.6182: real time    4.6186

 eigenvalue-minimisations  :  5821
 total energy-change (2. order) :-0.1577280E-01  (-0.1577542E-01)
 number of electron     398.0000205 magnetization 
 augmentation part      398.0000205 magnetization 

 Free energy of the ion-electron system (eV)
  ---------------------------------------------------
  alpha Z        PSCENC =       889.36852643
  Ewald energy   TEWEN  =    147397.35618826
  -Hartree energ DENC   =   -194902.14929742
  -exchange      EXHF   =         0.00000000
  -V(xc)+E(xc)   XCENC  =      1609.65150923
  PAW double counting   =     47222.15756911   -50970.54891179
  entropy T*S    EENTRO =         0.00000000
  eigenvalues    EBANDS =     -1360.32246238
  atomic energy  EATOM  =     49980.88255679
  Solvation  Ediel_sol  =         0.00000000
  ---------------------------------------------------
  free energy    TOTEN  =      -133.60432177 eV

  energy without entropy =     -133.60432177  energy(sigma->0) =     -133.60432177


--------------------------------------------------------------------------------------------------------




--------------------------------------- Iteration      1(   7)  ---------------------------------------


    EDDIAG:  cpu time    1.0966: real time    1.0967
  RMM-DIIS:  cpu time    4.6193: real time    4.6194
    ORTHCH:  cpu time    0.2076: real time    0.2076
 BZINTS: Fermi energy:    0.056504;  398.000000 electrons
         Band energy:-0.136033E+04;  BLOECHL correction:   -0.056929
       DOS:  cpu time    0.0104: real time    0.0104
    --------------------------------------------
      LOOP:  cpu time    5.9339: real time    5.9340

 eigenvalue-minimisations  :  7969
 total energy-change (2. order) :-0.5828309E-02  (-0.5717708E-02)
 number of electron     398.0000205 magnetization 
 augmentation part      398.0000205 magnetization 

 Free energy of the ion-electron system (eV)
  ---------------------------------------------------
  alpha Z        PSCENC =       889.36852643
  Ewald energy   TEWEN  =    147397.35618826
  -Hartree energ DENC   =   -194902.14929742
  -exchange      EXHF   =         0.00000000
  -V(xc)+E(xc)   XCENC  =      1609.65150923
  PAW double counting   =     47222.15756911   -50970.54891179
  entropy T*S    EENTRO =         0.00000000
  eigenvalues    EBANDS =     -1360.32829069
  atomic energy  EATOM  =     49980.88255679
  Solvation  Ediel_sol  =         0.00000000
  ---------------------------------------------------
  free energy    TOTEN  =      -133.61015008 eV

  energy without entropy =     -133.61015008  energy(sigma->0) =     -133.61015008


--------------------------------------------------------------------------------------------------------




--------------------------------------- Iteration      1(   8)  ---------------------------------------


    EDDIAG:  cpu time    1.0980: real time    1.0981
  RMM-DIIS:  cpu time    5.3225: real time    5.3225
    ORTHCH:  cpu time    0.2078: real time    0.2078
 BZINTS: Fermi energy:    0.056480;  398.000000 electrons
         Band energy:-0.136033E+04;  BLOECHL correction:   -0.056938
       DOS:  cpu time    0.0104: real time    0.0104
    --------------------------------------------
      LOOP:  cpu time    6.6386: real time    6.6389

 eigenvalue-minimisations  :  9242
 total energy-change (2. order) :-0.1236891E-02  (-0.1199362E-02)
 number of electron     398.0000205 magnetization 
 augmentation part      398.0000205 magnetization 

 Free energy of the ion-electron system (eV)
  ---------------------------------------------------
  alpha Z        PSCENC =       889.36852643
  Ewald energy   TEWEN  =    147397.35618826
  -Hartree energ DENC   =   -194902.14929742
  -exchange      EXHF   =         0.00000000
  -V(xc)+E(xc)   XCENC  =      1609.65150923
  PAW double counting   =     47222.15756911   -50970.54891179
  entropy T*S    EENTRO =         0.00000000
  eigenvalues    EBANDS =     -1360.32952758
  atomic energy  EATOM  =     49980.88255679
  Solvation  Ediel_sol  =         0.00000000
  ---------------------------------------------------
  free energy    TOTEN  =      -133.61138697 eV

  energy without entropy =     -133.61138697  energy(sigma->0) =     -133.61138697


--------------------------------------------------------------------------------------------------------




--------------------------------------- Iteration      1(   9)  ---------------------------------------


    EDDIAG:  cpu time    1.0993: real time    1.0994
  RMM-DIIS:  cpu time    4.9964: real time    4.9965
    ORTHCH:  cpu time    0.2075: real time    0.2075
 BZINTS: Fermi energy:    0.056468;  398.000000 electrons
         Band energy:-0.136033E+04;  BLOECHL correction:   -0.056942
       DOS:  cpu time    0.0106: real time    0.0106
    --------------------------------------------
      LOOP:  cpu time    6.3138: real time    6.3140

 eigenvalue-minimisations  :  8637
 total energy-change (2. order) :-0.3526149E-03  (-0.3350697E-03)
 number of electron     398.0000205 magnetization 
 augmentation part      398.0000205 magnetization 

 Free energy of the ion-electron system (eV)
  ---------------------------------------------------
  alpha Z        PSCENC =       889.36852643
  Ewald energy   TEWEN  =    147397.35618826
  -Hartree energ DENC   =   -194902.14929742
  -exchange      EXHF   =         0.00000000
  -V(xc)+E(xc)   XCENC  =      1609.65150923
  PAW double counting   =     47222.15756911   -50970.54891179
  entropy T*S    EENTRO =         0.00000000
  eigenvalues    EBANDS =     -1360.32988019
  atomic energy  EATOM  =     49980.88255679
  Solvation  Ediel_sol  =         0.00000000
  ---------------------------------------------------
  free energy    TOTEN  =      -133.61173958 eV

  energy without entropy =     -133.61173958  energy(sigma->0) =     -133.61173958


--------------------------------------------------------------------------------------------------------




--------------------------------------- Iteration      1(  10)  ---------------------------------------


    EDDIAG:  cpu time    1.0996: real time    1.0998
  RMM-DIIS:  cpu time    4.0832: real time    4.0833
    ORTHCH:  cpu time    0.2074: real time    0.2074
 BZINTS: Fermi energy:    0.056462;  398.000000 electrons
         Band energy:-0.136033E+04;  BLOECHL correction:   -0.056944
       DOS:  cpu time    0.0099: real time    0.0099
    --------------------------------------------
      LOOP:  cpu time    5.4001: real time    5.4004

 eigenvalue-minimisations  :  6878
 total energy-change (2. order) :-0.1444186E-03  (-0.1397992E-03)
 number of electron     398.0000205 magnetization 
 augmentation part      398.0000205 magnetization 

 Free energy of the ion-electron system (eV)
  ---------------------------------------------------
  alpha Z        PSCENC =       889.36852643
  Ewald energy   TEWEN  =    147397.35618826
  -Hartree energ DENC   =   -194902.14929742
  -exchange      EXHF   =         0.00000000
  -V(xc)+E(xc)   XCENC  =      1609.65150923
  PAW double counting   =     47222.15756911   -50970.54891179
  entropy T*S    EENTRO =         0.00000000
  eigenvalues    EBANDS =     -1360.33002461
  atomic energy  EATOM  =     49980.88255679
  Solvation  Ediel_sol  =         0.00000000
  ---------------------------------------------------
  free energy    TOTEN  =      -133.61188400 eV

  energy without entropy =     -133.61188400  energy(sigma->0) =     -133.61188400


--------------------------------------------------------------------------------------------------------




--------------------------------------- Iteration      1(  11)  ---------------------------------------


    EDDIAG:  cpu time    1.0945: real time    1.0946
  RMM-DIIS:  cpu time    3.9962: real time    3.9963
    ORTHCH:  cpu time    0.2072: real time    0.2072
 BZINTS: Fermi energy:    0.056459;  398.000000 electrons
         Band energy:-0.136033E+04;  BLOECHL correction:   -0.056945
       DOS:  cpu time    0.0101: real time    0.0101
    --------------------------------------------
      LOOP:  cpu time    5.3080: real time    5.3082

 eigenvalue-minimisations  :  6520
 total energy-change (2. order) :-0.6255435E-04  (-0.6149454E-04)
 number of electron     398.0000205 magnetization 
 augmentation part      398.0000205 magnetization 

 Free energy of the ion-electron system (eV)
  ---------------------------------------------------
  alpha Z        PSCENC =       889.36852643
  Ewald energy   TEWEN  =    147397.35618826
  -Hartree energ DENC   =   -194902.14929742
  -exchange      EXHF   =         0.00000000
  -V(xc)+E(xc)   XCENC  =      1609.65150923
  PAW double counting   =     47222.15756911   -50970.54891179
  entropy T*S    EENTRO =         0.00000000
  eigenvalues    EBANDS =     -1360.33008717
  atomic energy  EATOM  =     49980.88255679
  Solvation  Ediel_sol  =         0.00000000
  ---------------------------------------------------
  free energy    TOTEN  =      -133.61194655 eV

  energy without entropy =     -133.61194655  energy(sigma->0) =     -133.61194655


--------------------------------------------------------------------------------------------------------




--------------------------------------- Iteration      1(  12)  ---------------------------------------


    EDDIAG:  cpu time    1.0952: real time    1.0953
  RMM-DIIS:  cpu time    3.5526: real time    3.5527
    ORTHCH:  cpu time    0.2078: real time    0.2078
 BZINTS: Fermi energy:    0.056458;  398.000000 electrons
         Band energy:-0.136033E+04;  BLOECHL correction:   -0.056946
       DOS:  cpu time    0.0104: real time    0.0104
    --------------------------------------------
      LOOP:  cpu time    4.8659: real time    4.8661

 eigenvalue-minimisations  :  5827
 total energy-change (2. order) :-0.2820641E-04  (-0.2804992E-04)
 number of electron     398.0000205 magnetization 
 augmentation part      398.0000205 magnetization 

 Free energy of the ion-electron system (eV)
  ---------------------------------------------------
  alpha Z        PSCENC =       889.36852643
  Ewald energy   TEWEN  =    147397.35618826
  -Hartree energ DENC   =   -194902.14929742
  -exchange      EXHF   =         0.00000000
  -V(xc)+E(xc)   XCENC  =      1609.65150923
  PAW double counting   =     47222.15756911   -50970.54891179
  entropy T*S    EENTRO =         0.00000000
  eigenvalues    EBANDS =     -1360.33011537
  atomic energy  EATOM  =     49980.88255679
  Solvation  Ediel_sol  =         0.00000000
  ---------------------------------------------------
  free energy    TOTEN  =      -133.61197476 eV

  energy without entropy =     -133.61197476  energy(sigma->0) =     -133.61197476


--------------------------------------------------------------------------------------------------------




--------------------------------------- Iteration      1(  13)  ---------------------------------------


    EDDIAG:  cpu time    1.0984: real time    1.0987
  RMM-DIIS:  cpu time    3.3333: real time    3.3334
    ORTHCH:  cpu time    0.2076: real time    0.2076
 BZINTS: Fermi energy:    0.056457;  398.000000 electrons
         Band energy:-0.136033E+04;  BLOECHL correction:   -0.056946
       DOS:  cpu time    0.0090: real time    0.0090
    --------------------------------------------
      LOOP:  cpu time    4.6484: real time    4.6486

 eigenvalue-minimisations  :  5415
 total energy-change (2. order) :-0.1325208E-04  (-0.1338991E-04)
 number of electron     398.0000205 magnetization 
 augmentation part      398.0000205 magnetization 

 Free energy of the ion-electron system (eV)
  ---------------------------------------------------
  alpha Z        PSCENC =       889.36852643
  Ewald energy   TEWEN  =    147397.35618826
  -Hartree energ DENC   =   -194902.14929742
  -exchange      EXHF   =         0.00000000
  -V(xc)+E(xc)   XCENC  =      1609.65150923
  PAW double counting   =     47222.15756911   -50970.54891179
  entropy T*S    EENTRO =         0.00000000
  eigenvalues    EBANDS =     -1360.33012863
  atomic energy  EATOM  =     49980.88255679
  Solvation  Ediel_sol  =         0.00000000
  ---------------------------------------------------
  free energy    TOTEN  =      -133.61198801 eV

  energy without entropy =     -133.61198801  energy(sigma->0) =     -133.61198801


--------------------------------------------------------------------------------------------------------




--------------------------------------- Iteration      1(  14)  ---------------------------------------


    EDDIAG:  cpu time    1.0921: real time    1.0923
  RMM-DIIS:  cpu time    2.9834: real time    2.9835
    ORTHCH:  cpu time    0.2078: real time    0.2078
 BZINTS: Fermi energy:    0.056457;  398.000000 electrons
         Band energy:-0.136033E+04;  BLOECHL correction:   -0.056946
       DOS:  cpu time    0.0104: real time    0.0104
    --------------------------------------------
      LOOP:  cpu time    4.2936: real time    4.2940

 eigenvalue-minimisations  :  4785
 total energy-change (2. order) :-0.6146671E-05  (-0.6511042E-05)
 number of electron     398.0000205 magnetization 
 augmentation part      398.0000205 magnetization 

 Free energy of the ion-electron system (eV)
  ---------------------------------------------------
  alpha Z        PSCENC =       889.36852643
  Ewald energy   TEWEN  =    147397.35618826
  -Hartree energ DENC   =   -194902.14929742
  -exchange      EXHF   =         0.00000000
  -V(xc)+E(xc)   XCENC  =      1609.65150923
  PAW double counting   =     47222.15756911   -50970.54891179
  entropy T*S    EENTRO =         0.00000000
  eigenvalues    EBANDS =     -1360.33013477
  atomic energy  EATOM  =     49980.88255679
  Solvation  Ediel_sol  =         0.00000000
  ---------------------------------------------------
  free energy    TOTEN  =      -133.61199416 eV

  energy without entropy =     -133.61199416  energy(sigma->0) =     -133.61199416


--------------------------------------------------------------------------------------------------------




 average (electrostatic) potential at core
  the test charge radii are     0.9430  1.0638  0.5201
  (the norm of the test charge is              1.0000)
       1 -70.9194       2 -70.9241       3 -70.9240       4 -70.9241       5 -70.9374
       6 -70.9238       7 -70.9240       8 -70.9238       9 -70.9157      10 -71.1985
      11 -71.1765      12 -71.1982      13 -71.1765      14 -71.1760      15 -71.1919
      16 -71.1982      17 -71.1919      18 -71.1920      19 -71.2126      20 -71.2850
      21 -71.2846      22 -71.1910      23 -71.2846      24 -71.1906      25 -71.2126
      26 -71.2126      27 -71.1910      28 -71.0115      29 -71.2617      30 -71.2617
      31 -71.2617      32 -71.2614      33 -71.2617      34 -71.2614      35 -70.9865
      36 -83.8997      37 -34.2682
 
 
 
 E-fermi :   0.0565     XC(G=0):  -5.9584     alpha+bet : -5.4468

 Fermi energy:         0.0564565930

 k-point     1 :       0.0000    0.0000    0.0000
  band No.  band energies     occupation 
      1     -48.9835      2.00000
      2     -27.1343      2.00000
      3     -27.1343      2.00000
      4     -26.8996      2.00000
      5      -8.7590      2.00000
      6      -7.4735      2.00000
      7      -5.8856      2.00000
      8      -5.8097      2.00000
      9      -5.8096      2.00000
     10      -5.7872      2.00000
     11      -5.7537      2.00000
     12      -5.7536      2.00000
     13      -5.6772      2.00000
     14      -5.0833      2.00000
     15      -5.0832      2.00000
     16      -5.0412      2.00000
     17      -5.0298      2.00000
     18      -5.0028      2.00000
     19      -5.0027      2.00000
     20      -4.8439      2.00000
     21      -4.3990      2.00000
     22      -4.3990      2.00000
     23      -4.3664      2.00000
     24      -4.3280      2.00000
     25      -4.3280      2.00000
     26      -4.2242      2.00000
     27      -4.0375      2.00000
     28      -4.0375      2.00000
     29      -4.0184      2.00000
     30      -4.0145      2.00000
     31      -4.0144      2.00000
     32      -3.9906      2.00000
     33      -3.8964      2.00000
     34      -3.8912      2.00000
     35      -3.8911      2.00000
     36      -3.8633      2.00000
     37      -3.8605      2.00000
     38      -3.8605      2.00000
     39      -3.8432      2.00000
     40      -3.8431      2.00000
     41      -3.8268      2.00000
     42      -3.8256      2.00000
     43      -3.8255      2.00000
     44      -3.8168      2.00000
     45      -3.7713      2.00000
     46      -3.7713      2.00000
     47      -3.6781      2.00000
     48      -3.6781      2.00000
     49      -3.6148      2.00000
     50      -3.6142      2.00000
     51      -3.5658      2.00000
     52      -3.5468      2.00000
     53      -3.5468      2.00000
     54      -3.5442      2.00000
     55      -3.5372      2.00000
     56      -3.5372      2.00000
     57      -3.4621      2.00000
     58      -3.4387      2.00000
     59      -3.2324      2.00000
     60      -3.1987      2.00000
     61      -3.1987      2.00000
     62      -3.1866      2.00000
     63      -3.1742      2.00000
     64      -3.1741      2.00000
     65      -3.1545      2.00000
     66      -3.1545      2.00000
     67      -3.1004      2.00000
     68      -3.1004      2.00000
     69      -3.0777      2.00000
     70      -3.0589      2.00000
     71      -3.0589      2.00000
     72      -3.0440      2.00000
     73      -3.0440      2.00000
     74      -3.0285      2.00000
     75      -3.0014      2.00000
     76      -2.9791      2.00000
     77      -2.9746      2.00000
     78      -2.9745      2.00000
     79      -2.9080      2.00000
     80      -2.9080      2.00000
     81      -2.8648      2.00000
     82      -2.8647      2.00000
     83      -2.8561      2.00000
     84      -2.8535      2.00000
     85      -2.8535      2.00000
     86      -2.8428      2.00000
     87      -2.8428      2.00000
     88      -2.8167      2.00000
     89      -2.7928      2.00000
     90      -2.7928      2.00000
     91      -2.7619      2.00000
     92      -2.7408      2.00000
     93      -2.7408      2.00000
     94      -2.7366      2.00000
     95      -2.7118      2.00000
     96      -2.6982      2.00000
     97      -2.6982      2.00000
     98      -2.6688      2.00000
     99      -2.6688      2.00000
    100      -2.6461      2.00000
    101      -2.6461      2.00000
    102      -2.6340      2.00000
    103      -2.6305      2.00000
    104      -2.6108      2.00000
    105      -2.6108      2.00000
    106      -2.6087      2.00000
    107      -2.6087      2.00000
    108      -2.5826      2.00000
    109      -2.5826      2.00000
    110      -2.5615      2.00000
    111      -2.5615      2.00000
    112      -2.4074      2.00000
    113      -2.3977      2.00000
    114      -2.3894      2.00000
    115      -2.3894      2.00000
    116      -2.3695      2.00000
    117      -2.3695      2.00000
    118      -2.3678      2.00000
    119      -2.2896      2.00000
    120      -2.2896      2.00000
    121      -2.2874      2.00000
    122      -2.2600      2.00000
    123      -2.2449      2.00000
    124      -2.2289      2.00000
    125      -2.2289      2.00000
    126      -2.1906      2.00000
    127      -2.1906      2.00000
    128      -2.1731      2.00000
    129      -2.1731      2.00000
    130      -2.1592      2.00000
    131      -2.1439      2.00000
    132      -2.1438      2.00000
    133      -2.1349      2.00000
    134      -2.1138      2.00000
    135      -2.1138      2.00000
    136      -2.0589      2.00000
    137      -2.0589      2.00000
    138      -2.0412      2.00000
    139      -2.0305      2.00000
    140      -2.0086      2.00000
    141      -2.0085      2.00000
    142      -1.9939      2.00000
    143      -1.9938      2.00000
    144      -1.9908      2.00000
    145      -1.9639      2.00000
    146      -1.9343      2.00000
    147      -1.9342      2.00000
    148      -1.9134      2.00000
    149      -1.9134      2.00000
    150      -1.8972      2.00000
    151      -1.8972      2.00000
    152      -1.8745      2.00000
    153      -1.8735      2.00000
    154      -1.8395      2.00000
    155      -1.8394      2.00000
    156      -1.8307      2.00000
    157      -1.8234      2.00000
    158      -1.8233      2.00000
    159      -1.8132      2.00000
    160      -1.8102      2.00000
    161      -1.7755      2.00000
    162      -1.7730      2.00000
    163      -1.7730      2.00000
    164      -1.7578      2.00000
    165      -1.7577      2.00000
    166      -1.7541      2.00000
    167      -1.7536      2.00000
    168      -1.7441      2.00000
    169      -1.7440      2.00000
    170      -1.7128      2.00000
    171      -1.7096      2.00000
    172      -1.7096      2.00000
    173      -1.6904      2.00000
    174      -1.6904      2.00000
    175      -1.6697      2.00000
    176      -1.6696      2.00000
    177      -1.6326      2.00000
    178      -1.6326      2.00000
    179      -1.6325      2.00000
    180      -1.6314      2.00000
    181      -1.6288      2.00000
    182      -1.6288      2.00000
    183      -1.6287      2.00000
    184      -1.6280      2.00000
    185      -1.6168      2.00000
    186      -1.6168      2.00000
    187      -1.5626      2.00000
    188      -1.5626      2.00000
    189      -1.5259      2.00000
    190      -1.5255      2.00000
    191      -1.5254      2.00000
    192      -1.5185      2.00000
    193      -1.5150      2.00000
    194      -1.5150      2.00000
    195      -1.3936      2.00000
    196      -1.1155      2.00000
    197      -0.4216      2.00000
    198      -0.4216      2.00000
    199      -0.3963      2.00000
    200      -0.2777      2.00000
    201      -0.2739      2.00000
    202      -0.2739      2.00000
    203      -0.1190      1.65758
    204       0.9306      0.00000
    205       0.9306      0.00000
    206       1.1789      0.00000
    207       1.1789      0.00000
    208       1.6805      0.00000
    209       2.0509      0.00000
    210       2.0787      0.00000
    211       2.0787      0.00000
    212       2.5170      0.00000
    213       2.5170      0.00000
    214       3.4129      0.00000
    215       3.4937      0.00000
    216       3.7211      0.00000
    217       3.7211      0.00000
    218       3.8989      0.00000
    219       3.8989      0.00000
    220       4.1542      0.00000
    221       4.4796      0.00000
    222       4.4796      0.00000
    223       4.5270      0.00000
    224       4.5506      0.00000
    225       4.5506      0.00000
    226       4.5782      0.00000
[...]
  0.000   0.000   0.000   0.000   0.000   0.000   0.000   0.000   0.000   0.000   0.000   0.000   0.000   0.000   0.000   0.000
  0.000   0.000   0.000   0.000   0.000   0.000   0.000   0.000   0.000   0.000   0.000   0.000   0.000   0.000   0.000   0.000
  0.000   0.000   0.000   0.000   0.000   0.000   0.000   0.000   0.000   0.000   0.000   0.000   0.000   0.000   0.000   0.000
  0.000   0.000   0.000   0.000   0.000   0.000   0.000   0.000   0.000   0.000   0.000   0.000   0.000   0.000   0.000   0.000
  0.000   0.000   0.000   0.000   0.000   0.000   0.000   0.000   0.000   0.000   0.000   0.000   0.000   0.000   0.000   0.000
  0.000   0.000   0.000   0.000   0.000   0.000   0.000   0.000   0.000   0.000   1.000   0.000   0.000   0.000   0.000   0.000
  0.000   0.000   0.000   0.000   0.000   0.000   0.000   0.000   0.000   0.000   0.000   0.000   0.000   0.000   0.000   0.000
  0.000   0.000   0.000   0.000   0.000   0.000   0.000   0.000   0.000   0.000   0.000   0.000   0.000   0.000   0.000   0.000
  0.000   0.000   0.000   0.000   0.000   0.000   0.000   0.000   0.000   0.000   0.000   0.000   0.000   0.000   0.000   0.000
  0.000   0.000   0.000   0.000   0.000   0.000   0.000   0.000   0.000   0.000   0.000   0.000   0.000   0.000   0.000   0.000
  0.000   0.000   0.000   0.000   0.000   0.000   0.000   0.000   0.000   0.000   0.000   0.000   0.000   0.000   0.000   0.000
  0.000   0.000   0.000   0.000   0.000   0.000   0.000   0.000   0.000   0.000   0.000   0.000   0.000   0.000   0.000   0.000
  0.000   0.000   0.000   0.000   0.000   0.000   0.000   0.000   0.000   0.000   0.000   0.000   0.000   0.000   0.000   0.000


------------------------ aborting loop because EDIFF is reached ----------------------------------------





 total charge

# of ion       s       p       d       tot
------------------------------------------
    1        0.449   0.283   9.188   9.920
    2        0.448   0.285   9.186   9.919
    3        0.448   0.285   9.186   9.919
    4        0.448   0.285   9.186   9.919
    5        0.449   0.285   9.185   9.918
    6        0.448   0.285   9.186   9.919
    7        0.448   0.285   9.186   9.919
    8        0.448   0.285   9.186   9.919
    9        0.449   0.284   9.188   9.921
   10        0.443   0.370   9.179   9.992
   11        0.440   0.365   9.181   9.987
   12        0.443   0.370   9.179   9.992
   13        0.440   0.365   9.181   9.987
   14        0.440   0.365   9.181   9.987
   15        0.440   0.373   9.177   9.990
   16        0.443   0.370   9.179   9.992
   17        0.440   0.373   9.177   9.990
   18        0.440   0.373   9.177   9.990
   19        0.446   0.372   9.181   9.999
   20        0.454   0.374   9.169   9.998
   21        0.454   0.374   9.169   9.998
   22        0.435   0.376   9.177   9.988
   23        0.454   0.374   9.169   9.998
   24        0.435   0.376   9.177   9.988
   25        0.446   0.372   9.181   9.999
   26        0.446   0.372   9.181   9.999
   27        0.435   0.376   9.177   9.988
   28        0.444   0.298   9.179   9.922
   29        0.489   0.318   9.163   9.970
   30        0.489   0.318   9.163   9.970
   31        0.489   0.318   9.163   9.970
   32        0.489   0.318   9.163   9.970
   33        0.489   0.318   9.163   9.970
   34        0.489   0.318   9.163   9.970
   35        0.444   0.303   9.178   9.925
   36        2.240   5.981   1.599   9.820
   37        0.535   0.005   0.000   0.541
--------------------------------------------------
tot         18.610  17.747 322.806 359.164
 
    CHARGE:  cpu time    0.2106: real time    0.2106
    FORLOC:  cpu time    0.0074: real time    0.0074
    FORNL :  cpu time    1.1834: real time    1.1836
    STRESS:  cpu time    3.5178: real time    3.5181
    FORCOR:  cpu time    0.0264: real time    0.0265
    FORHAR:  cpu time    0.0114: real time    0.0115
    OFIELD:  cpu time    0.0001: real time    0.0001

  FORCE on cell =-STRESS in cart. coord.  units (eV):
  Direction    XX          YY          ZZ          XY          YZ          ZX
  --------------------------------------------------------------------------------------
  Alpha Z   889.36853   889.36853   889.36853
  Ewald  173719.51103173719.51060************     0.00038     0.00013     0.00021
  Hartree186733.28751186733.28749************     0.00003     0.00006     0.00007
  E(xc)   -2300.56402 -2300.56352 -2305.06855    -0.00043    -0.00003    -0.00006
  Local  ************************374058.92000     0.01825    -0.00057    -0.00092
  n-local  -772.88290  -761.07341  -779.98192     6.59850    -0.37553     0.39772
  augment  3308.65458  3308.67422  3331.33517    -0.01700     0.00024     0.00043
  Kinetic  3366.62733  3366.74888  3401.31319     0.29935     2.15230    -1.53061
  Fock        0.00000     0.00000     0.00000     0.00000     0.00000     0.00000
  -------------------------------------------------------------------------------------
  Total      -2.39170    -2.39170     1.18013     0.00000    -0.00000    -0.00000
  in kB      -3.50919    -3.50919     1.73152     0.00000    -0.00000    -0.00000
  external pressure =       -1.76 kB  Pullay stress =        0.00 kB


 VOLUME and BASIS-vectors are now :
 -----------------------------------------------------------------------------
  energy-cutoff  :      500.00
  volume of cell :     1091.97
      direct lattice vectors                 reciprocal lattice vectors
     7.696786404  0.000000000  0.000000000     0.129924354 -0.075011849  0.000000000
     3.848392758  6.665612809  0.000000000     0.000000000  0.150023716  0.000000000
     0.000000000  0.000000000 21.284399033     0.000000000  0.000000000  0.046982769

  length of vectors
     7.696786404  7.696786404 21.284399033     0.150023716  0.150023716  0.046982769


 FORCES acting on ions
    electron-ion (+dipol)            ewald-force                    non-local-force                 convergence-correction
 -----------------------------------------------------------------------------------------------
   -.409E-04 0.500E-06 0.349E+04   0.579E-04 -.429E-05 -.349E+04   0.198E-16 0.430E-17 -.214E+01   -.334E-03 -.160E-03 -.344E+00
   -.938E+00 -.107E+01 0.349E+04   0.919E+00 0.998E+00 -.349E+04   0.385E-01 0.806E-01 -.200E+01   -.157E-01 -.727E-02 -.279E+00
   0.938E+00 -.107E+01 0.349E+04   -.919E+00 0.998E+00 -.349E+04   -.385E-01 0.806E-01 -.200E+01   0.165E-01 -.464E-02 -.278E+00
   -.139E+01 -.278E+00 0.349E+04   0.132E+01 0.297E+00 -.349E+04   0.891E-01 -.699E-02 -.200E+01   -.141E-01 -.100E-01 -.279E+00
   -.607E-04 -.278E-05 0.348E+04   0.116E-03 -.101E-04 -.348E+04   -.145E-17 -.198E-17 -.192E+01   0.122E-01 0.748E-02 -.275E+00
   0.139E+01 -.278E+00 0.349E+04   -.132E+01 0.297E+00 -.349E+04   -.891E-01 -.699E-02 -.200E+01   0.124E-01 -.878E-02 -.277E+00
   -.456E+00 0.135E+01 0.349E+04   0.404E+00 -.129E+01 -.349E+04   0.506E-01 -.736E-01 -.200E+01   0.427E-02 0.166E-01 -.277E+00
   0.457E+00 0.135E+01 0.349E+04   -.405E+00 -.129E+01 -.349E+04   -.506E-01 -.736E-01 -.200E+01   -.738E-03 0.151E-01 -.277E+00
   -.143E-03 -.326E-04 0.349E+04   0.263E-03 0.205E-04 -.349E+04   -.348E-17 0.431E-19 -.201E+01   -.133E-01 -.685E-02 -.279E+00
   -.108E+02 -.625E+01 0.118E+04   0.110E+02 0.634E+01 -.118E+04   -.156E+00 -.899E-01 -.829E+00   0.284E-01 0.164E-01 -.199E+00
   -.905E-04 -.903E+01 0.117E+04   0.189E-03 0.875E+01 -.117E+04   -.180E-07 0.270E+00 -.478E+00   0.118E-01 0.676E-02 -.161E+00
   0.108E+02 -.625E+01 0.118E+04   -.110E+02 0.634E+01 -.118E+04   0.156E+00 -.899E-01 -.829E+00   -.304E-01 0.184E-01 -.199E+00
   -.782E+01 0.451E+01 0.117E+04   0.758E+01 -.438E+01 -.117E+04   0.234E+00 -.135E+00 -.478E+00   0.122E-01 0.766E-02 -.161E+00
   0.782E+01 0.451E+01 0.117E+04   -.758E+01 -.438E+01 -.117E+04   -.234E+00 -.135E+00 -.478E+00   0.122E-01 0.667E-02 -.161E+00
   -.140E-03 -.190E+01 0.118E+04   0.295E-03 0.184E+01 -.118E+04   -.369E-08 0.555E-01 -.930E+00   -.405E-02 0.113E-01 -.160E+00
   -.921E-04 0.125E+02 0.118E+04   0.186E-03 -.127E+02 -.118E+04   -.120E-07 0.180E+00 -.829E+00   -.169E-03 -.368E-01 -.199E+00
   -.164E+01 0.949E+00 0.118E+04   0.160E+01 -.922E+00 -.118E+04   0.480E-01 -.277E-01 -.930E+00   0.844E-02 -.916E-02 -.160E+00
   0.164E+01 0.949E+00 0.118E+04   -.160E+01 -.922E+00 -.118E+04   -.480E-01 -.277E-01 -.930E+00   -.768E-02 -.613E-02 -.159E+00
   -.685E-04 -.547E+01 -.111E+04   0.678E-04 0.544E+01 0.111E+04   0.235E-08 -.353E-01 0.106E+01   -.247E-02 0.427E-01 -.617E-01
   -.295E+02 -.171E+02 -.119E+04   0.303E+02 0.175E+02 0.119E+04   -.863E+00 -.498E+00 -.313E+00   0.179E-01 0.102E-01 -.703E-01
   0.295E+02 -.171E+02 -.119E+04   -.303E+02 0.175E+02 0.119E+04   0.863E+00 -.498E+00 -.313E+00   0.616E-02 0.116E-01 -.708E-01
   -.132E+02 0.765E+01 -.113E+04   0.132E+02 -.762E+01 0.113E+04   0.153E+00 -.883E-01 0.714E+00   -.705E-01 0.397E-01 -.459E-02
   -.471E-04 0.341E+02 -.119E+04   0.150E-03 -.350E+02 0.119E+04   -.664E-07 0.997E+00 -.313E+00   0.120E-01 -.170E-02 -.709E-01
   0.132E+02 0.765E+01 -.113E+04   -.132E+02 -.762E+01 0.113E+04   -.153E+00 -.883E-01 0.714E+00   0.679E-01 0.383E-01 -.455E-02
   0.473E+01 0.273E+01 -.111E+04   -.471E+01 -.272E+01 0.111E+04   0.305E-01 0.176E-01 0.106E+01   -.355E-01 -.205E-01 -.621E-01
   -.473E+01 0.273E+01 -.111E+04   0.471E+01 -.272E+01 0.111E+04   -.305E-01 0.176E-01 0.106E+01   0.361E-01 -.233E-01 -.616E-01
   -.146E-03 -.153E+02 -.113E+04   0.243E-03 0.152E+02 0.113E+04   -.118E-07 0.177E+00 0.714E+00   -.952E-03 -.809E-01 -.445E-02
   -.172E-04 0.301E-04 -.344E+04   0.416E-04 -.324E-04 0.344E+04   -.755E-18 -.785E-18 0.177E+01   -.312E-03 -.127E-03 0.283E+00
   -.702E+01 -.262E+02 -.341E+04   0.730E+01 0.264E+02 0.341E+04   -.322E+00 -.161E+00 0.982E+00   -.186E-01 -.766E-01 0.112E+00
   0.702E+01 -.262E+02 -.341E+04   -.730E+01 0.264E+02 0.341E+04   0.322E+00 -.161E+00 0.982E+00   0.197E-01 -.741E-01 0.112E+00
   -.262E+02 0.704E+01 -.341E+04   0.265E+02 -.686E+01 0.341E+04   -.301E+00 -.198E+00 0.982E+00   -.756E-01 0.221E-01 0.112E+00
   0.262E+02 0.704E+01 -.341E+04   -.265E+02 -.686E+01 0.341E+04   0.301E+00 -.198E+00 0.982E+00   0.739E-01 0.231E-01 0.111E+00
   -.192E+02 0.192E+02 -.341E+04   0.192E+02 -.195E+02 0.341E+04   0.214E-01 0.359E+00 0.982E+00   -.543E-01 0.540E-01 0.112E+00
   0.192E+02 0.192E+02 -.341E+04   -.192E+02 -.195E+02 0.341E+04   -.214E-01 0.359E+00 0.982E+00   0.577E-01 0.525E-01 0.112E+00
   -.127E-03 -.710E-05 -.346E+04   0.256E-03 -.955E-06 0.346E+04   0.226E-17 0.688E-18 0.187E+01   -.133E-01 -.686E-02 0.143E+00
   0.128E-03 -.164E-03 -.391E+04   0.122E-03 0.327E-04 0.392E+04   -.774E-18 0.287E-18 -.112E+01   0.508E-02 0.306E-02 0.112E+00
   0.750E-05 -.563E-05 -.361E+03   0.141E-05 0.815E-06 0.363E+03   0.211E-19 -.993E-20 -.179E+01   0.102E-03 0.609E-04 0.180E-01
 -----------------------------------------------------------------------------------------------
   -.220E-04 -.930E-04 0.171E+02   0.132E-12 0.919E-13 0.682E-12   -.575E-16 0.965E-18 -.138E+02   0.570E-01 0.299E-01 -.331E+01
 
 
 POSITION                                       TOTAL-FORCE (eV/Angst)
 -----------------------------------------------------------------------------------
      0.00000      0.00000      5.37156         0.000000      0.000000      0.015179
      2.56560      0.00000      5.37156         0.004014      0.003335      0.059774
      5.13119      0.00000      5.37156        -0.004014      0.003335      0.059774
      1.28280      2.22187      5.37156         0.004895      0.001809      0.059774
      3.84839      2.22187      5.37156         0.000000      0.000000      0.061094
      6.41399      2.22187      5.37156        -0.004895      0.001809      0.059774
      2.56560      4.44374      5.37156         0.000881     -0.005144      0.059774
      5.13119      4.44374      5.37156        -0.000881     -0.005144      0.059774
      7.69679      4.44374      5.37156         0.000000      0.000000      0.034922
      1.28280      0.74062      7.46636         0.028015      0.016174     -0.112062
      3.84839      0.74062      7.46636         0.000000     -0.005771     -0.012472
      6.41399      0.74062      7.46636        -0.028015      0.016174     -0.112062
      2.56560      2.96249      7.46636        -0.004998      0.002886     -0.012472
      5.13119      2.96249      7.46636         0.004998      0.002886     -0.012472
      7.69679      2.96249      7.46636        -0.000000      0.012046     -0.041830
      3.84839      5.18437      7.46636         0.000000     -0.032348     -0.112062
      6.41399      5.18437      7.46636         0.010432     -0.006023     -0.041830
      8.97958      5.18437      7.46636        -0.010432     -0.006023     -0.041830
      7.69679      1.47435      9.52922         0.000000     -0.022175      0.010304
      2.57570      1.48708      9.58099        -0.112187     -0.064771     -0.159672
      5.12109      1.48708      9.58099         0.112187     -0.064771     -0.159672
      8.97941      3.70322      9.55185         0.029442     -0.016998      0.028428
      3.84839      3.69145      9.58099        -0.000000      0.129542     -0.159672
      6.41416      3.70322      9.55185        -0.029442     -0.016998      0.028428
     10.26835      5.92844      9.52922         0.019204      0.011087      0.010304
      5.12522      5.92844      9.52922        -0.019204      0.011087      0.010304
      7.69679      5.92479      9.55185        -0.000000      0.033996      0.028428
      0.00000      0.00000     11.63765         0.000000      0.000000      0.002573
      6.39598      6.62341     11.64088        -0.059299     -0.104764     -0.108144
      8.99759      6.62341     11.64088         0.059299     -0.104764     -0.108144
      8.93403      2.22738     11.64088        -0.120378      0.001028     -0.108144
      6.45955      2.22738     11.64088         0.120378      0.001028     -0.108144
     10.23483      4.48044     11.64088        -0.061079      0.103736     -0.108144
      5.15874      4.48044     11.64088         0.061079      0.103736     -0.108144
      7.69679      4.44374     11.66679         0.000000      0.000000      0.002677
      3.84839      2.22187     12.03290         0.000000      0.000000      1.047078
      3.84839      2.22187     13.90577         0.000000      0.000000     -0.011389
 -----------------------------------------------------------------------------------
    total drift:                                0.056952      0.029803      0.011345


--------------------------------------------------------------------------------------------------------



  FREE ENERGIE OF THE ION-ELECTRON SYSTEM (eV)
  ---------------------------------------------------
  free  energy   TOTEN  =      -133.61199416 eV

  energy  without entropy=     -133.61199416  energy(sigma->0) =     -133.61199416
 


--------------------------------------------------------------------------------------------------------


    POTLOK:  cpu time    0.0284: real time    0.0284


--------------------------------------------------------------------------------------------------------


 stress matrix after NEB project (eV)
     -2.39170      0.00000     -0.00000
      0.00000     -2.39170     -0.00000
     -0.00000     -0.00000      1.18013
  FORCES: max atom, RMS     0.011389    0.001872
  FORCE total and by dimension    0.011389    0.011389
  Stress total and by dimension    3.582345    2.391704
     LOOP+:  cpu time   87.8908: real time   87.9501
 -----------------------------------------------------------------------------
|                                                                             |
|           W    W    AA    RRRRR   N    N  II  N    N   GGGG   !!!           |
|           W    W   A  A   R    R  NN   N  II  NN   N  G    G  !!!           |
|           W    W  A    A  R    R  N N  N  II  N N  N  G       !!!           |
|           W WW W  AAAAAA  RRRRR   N  N N  II  N  N N  G  GGG   !            |
|           WW  WW  A    A  R   R   N   NN  II  N   NN  G    G                |
|           W    W  A    A  R    R  N    N  II  N    N   GGGG   !!!           |
|                                                                             |
|     Tetrahedron method does not include variations of the Fermi             |
|     occupations, so forces and stress will be inaccurate. We suggest        |
|     using a different smearing scheme ISMEAR = 1 or 2 for metals in         |
|     relaxations.                                                            |
|                                                                             |
 -----------------------------------------------------------------------------

    4ORBIT:  cpu time    0.0000: real time    0.0000



 total charge

# of ion       s       p       d       tot
------------------------------------------
    1        0.449   0.283   9.188   9.920
    2        0.448   0.285   9.186   9.919
    3        0.448   0.285   9.186   9.919
    4        0.448   0.285   9.186   9.919
    5        0.449   0.285   9.185   9.918
    6        0.448   0.285   9.186   9.919
    7        0.448   0.285   9.186   9.919
    8        0.448   0.285   9.186   9.919
    9        0.449   0.284   9.188   9.921
   10        0.443   0.370   9.179   9.992
   11        0.440   0.365   9.181   9.987
   12        0.443   0.370   9.179   9.992
   13        0.440   0.365   9.181   9.987
   14        0.440   0.365   9.181   9.987
   15        0.440   0.373   9.177   9.990
   16        0.443   0.370   9.179   9.992
   17        0.440   0.373   9.177   9.990
   18        0.440   0.373   9.177   9.990
   19        0.446   0.372   9.181   9.999
   20        0.454   0.374   9.169   9.998
   21        0.454   0.374   9.169   9.998
   22        0.435   0.376   9.177   9.988
   23        0.454   0.374   9.169   9.998
   24        0.435   0.376   9.177   9.988
   25        0.446   0.372   9.181   9.999
   26        0.446   0.372   9.181   9.999
   27        0.435   0.376   9.177   9.988
   28        0.444   0.298   9.179   9.922
   29        0.489   0.318   9.163   9.970
   30        0.489   0.318   9.163   9.970
   31        0.489   0.318   9.163   9.970
   32        0.489   0.318   9.163   9.970
   33        0.489   0.318   9.163   9.970
   34        0.489   0.318   9.163   9.970
   35        0.444   0.303   9.178   9.925
   36        2.240   5.981   1.599   9.820
   37        0.535   0.005   0.000   0.541
--------------------------------------------------
tot         18.610  17.747 322.806 359.164
 
 BZINTS: Fermi energy:    0.056457;  398.000000 electrons
         Band energy:-0.136033E+04;  BLOECHL correction:   -0.056946

 total amount of memory used by VASP MPI-rank0   104485. kBytes
=======================================================================

   base      :      30000. kBytes
   nonlr-proj:      17599. kBytes
   fftplans  :       2916. kBytes
   grid      :      12390. kBytes
   one-center:        575. kBytes
   wavefun   :      41005. kBytes
 
  
  
 General timing and accounting informations for this job:
 ========================================================
  
                  Total CPU time used (sec):       93.806
                            User time (sec):       90.482
                          System time (sec):        3.324
                         Elapsed time (sec):       94.176
  
                   Maximum memory used (kb):      344372.
                   Average memory used (kb):          N/A
  
                          Minor page faults:        93920
                          Major page faults:            0
                 Voluntary context switches:         7288
