PROCAR new format
# of k-points:   10         # of bands:  252         # of ions:   37

 k-point     1 :    0.00000000 0.00000000 0.00000000     weight = 0.01562500

band     1 # energy  -10.67745929 # occ.  2.00000000
 
ion      s      p      d    tot
    1  0.000  0.000  0.000  0.000
    2  0.000  0.000  0.000  0.000
    3  0.000  0.000  0.000  0.000
    4  0.000  0.000  0.000  0.000
    5  0.000  0.000  0.000  0.000
    6  0.000  0.000  0.000  0.000
    7  0.000  0.000  0.000  0.000
    8  0.000  0.000  0.000  0.000
    9  0.000  0.000  0.000  0.000
   10  0.000  0.000  0.000  0.000
   11  0.000  0.000  0.000  0.000
   12  0.000  0.000  0.000  0.000
   13  0.000  0.000  0.000  0.000
   14  0.000  0.000  0.000  0.000
   15  0.000  0.000  0.000  0.000
   16  0.000  0.000  0.000  0.000
   17  0.000  0.000  0.000  0.000
   18  0.000  0.000  0.000  0.000
   19  0.000  0.000  0.000  0.000
   20  0.001  0.000  0.001  0.002
   21  0.001  0.000  0.001  0.002
   22  0.000  0.000  0.000  0.000
   23  0.001  0.000  0.001  0.002
   24  0.000  0.000  0.000  0.000
   25  0.000  0.000  0.000  0.000
   26  0.000  0.000  0.000  0.000
   27  0.000  0.000  0.000  0.000
   28  0.000  0.000  0.000  0.000
   29  0.000  0.000  0.000  0.001
   30  0.000  0.000  0.000  0.001
   31  0.000  0.000  0.000  0.001
   32  0.000  0.000  0.000  0.001
   33  0.000  0.000  0.000  0.001
   34  0.000  0.000  0.000  0.001
   35  0.000  0.000  0.000  0.000
   36  0.127  0.063  0.250  0.440
   37  0.387  0.042  0.000  0.429
tot    0.519  0.108  0.256  0.882
 
band     2 # energy   -6.79188041 # occ.  2.00000000
 
ion      s      p      d    tot
    1  0.005  0.001  0.000  0.006
    2  0.005  0.001  0.000  0.006
    3  0.005  0.001  0.000  0.006
    4  0.005  0.001  0.000  0.006
    5  0.005  0.001  0.000  0.006
    6  0.005  0.001  0.000  0.006
    7  0.005  0.001  0.000  0.006
    8  0.005  0.001  0.000  0.006
    9  0.005  0.001  0.000  0.006
   10  0.021  0.000  0.000  0.022
   11  0.022  0.000  0.000  0.022
   12  0.021  0.000  0.000  0.022
   13  0.022  0.000  0.000  0.022
   14  0.022  0.000  0.000  0.022
   15  0.021  0.000  0.000  0.022
   16  0.021  0.000  0.000  0.022
   17  0.021  0.000  0.000  0.022
   18  0.021  0.000  0.000  0.022
   19  0.022  0.000  0.000  0.023
   20  0.026  0.000  0.000  0.026
   21  0.026  0.000  0.000  0.026
   22  0.023  0.000  0.000  0.024
   23  0.026  0.000  0.000  0.026
   24  0.023  0.000  0.000  0.024
   25  0.022  0.000  0.000  0.023
   26  0.022  0.000  0.000  0.023
   27  0.023  0.000  0.000  0.024
   28  0.006  0.001  0.000  0.006
   29  0.007  0.001  0.000  0.008
   30  0.007  0.001  0.000  0.008
   31  0.007  0.001  0.000  0.008
   32  0.007  0.001  0.000  0.008
   33  0.007  0.001  0.000  0.008
   34  0.007  0.001  0.000  0.008
   35  0.006  0.001  0.000  0.007
   36  0.011  0.004  0.007  0.022
   37  0.003  0.000  0.000  0.004
tot    0.523  0.017  0.013  0.552
 
band     3 # energy   -5.94847107 # occ.  2.00000000
 
ion      s      p      d    tot
    1  0.009  0.000  0.001  0.010
    2  0.010  0.000  0.001  0.011
    3  0.010  0.000  0.001  0.011
    4  0.010  0.000  0.001  0.011
    5  0.009  0.000  0.000  0.010
    6  0.010  0.000  0.001  0.011
    7  0.010  0.000  0.001  0.011
    8  0.010  0.000  0.001  0.011
    9  0.010  0.001  0.001  0.011
   10  0.012  0.001  0.009  0.022
   11  0.012  0.001  0.010  0.022
   12  0.012  0.001  0.009  0.022
   13  0.012  0.001  0.010  0.022
   14  0.012  0.001  0.010  0.022
   15  0.014  0.001  0.009  0.023
   16  0.012  0.001  0.009  0.022
   17  0.014  0.001  0.009  0.023
   18  0.014  0.001  0.009  0.023
   19  0.004  0.001  0.006  0.011
   20  0.009  0.002  0.002  0.014
   21  0.009  0.002  0.002  0.014
   22  0.006  0.001  0.008  0.015
   23  0.009  0.002  0.002  0.014
   24  0.006  0.001  0.008  0.015
   25  0.004  0.001  0.006  0.011
   26  0.004  0.001  0.006  0.011
   27  0.006  0.001  0.008  0.015
   28  0.008  0.000  0.002  0.010
   29  0.013  0.001  0.006  0.020
   30  0.013  0.001  0.006  0.020
   31  0.013  0.001  0.006  0.020
   32  0.013  0.001  0.006  0.020
   33  0.013  0.001  0.006  0.020
   34  0.013  0.001  0.006  0.020
   35  0.008  0.000  0.002  0.010
   36  0.036  0.004  0.037  0.076
   37  0.002  0.001  0.000  0.003
tot    0.388  0.033  0.214  0.635
 
band     4 # energy   -5.75946699 # occ.  2.00000000
 
ion      s      p      d    tot
    1  0.000  0.000  0.003  0.003
    2  0.000  0.000  0.001  0.002
    3  0.000  0.000  0.001  0.002
    4  0.000  0.000  0.001  0.002
    5  0.000  0.000  0.001  0.001
    6  0.000  0.000  0.001  0.002
    7  0.000  0.000  0.001  0.002
    8  0.000  0.000  0.001  0.002
    9  0.001  0.000  0.001  0.002
   10  0.001  0.000  0.016  0.017
   11  0.001  0.000  0.011  0.013
   12  0.001  0.000  0.016  0.017
   13  0.001  0.000  0.011  0.013
   14  0.001  0.000  0.011  0.013
   15  0.000  0.000  0.010  0.011
   16  0.001  0.000  0.016  0.017
   17  0.000  0.000  0.010  0.011
   18  0.000  0.000  0.010  0.011
   19  0.008  0.000  0.026  0.035
   20  0.003  0.000  0.060  0.063
   21  0.003  0.000  0.060  0.063
   22  0.004  0.000  0.022  0.026
   23  0.003  0.000  0.060  0.063
   24  0.004  0.000  0.022  0.026
   25  0.008  0.000  0.026  0.035
   26  0.008  0.000  0.026  0.035
   27  0.004  0.000  0.022  0.026
   28  0.001  0.000  0.012  0.013
   29  0.006  0.000  0.023  0.030
   30  0.006  0.000  0.023  0.030
   31  0.006  0.000  0.023  0.030
   32  0.006  0.000  0.023  0.030
   33  0.006  0.000  0.023  0.030
   34  0.006  0.000  0.023  0.030
   35  0.002  0.000  0.010  0.013
   36  0.030  0.000  0.074  0.104
   37  0.000  0.002  0.000  0.003
tot    0.130  0.007  0.684  0.821
 
band     5 # energy   -5.57875561 # occ.  2.00000000
 
ion      s      p      d    tot
    1  0.000  0.000  0.006  0.006
    2  0.000  0.000  0.002  0.002
    3  0.000  0.000  0.002  0.002
    4  0.000  0.000  0.002  0.002
    5  0.000  0.000  0.003  0.003
    6  0.001  0.000  0.001  0.002
    7  0.000  0.000  0.002  0.002
    8  0.001  0.000  0.001  0.002
    9  0.000  0.000  0.001  0.001
   10  0.009  0.002  0.013  0.024
   11  0.001  0.001  0.024  0.026
   12  0.002  0.001  0.015  0.018
   13  0.001  0.001  0.024  0.026
   14  0.003  0.000  0.009  0.013
   15  0.000  0.000  0.007  0.008
   16  0.002  0.001  0.015  0.018
   17  0.000  0.000  0.007  0.008
   18  0.001  0.000  0.008  0.009
   19  0.003  0.001  0.012  0.016
   20  0.039  0.000  0.019  0.059
   21  0.010  0.000  0.084  0.095
   22  0.001  0.001  0.039  0.041
   23  0.009  0.000  0.087  0.096
   24  0.003  0.001  0.016  0.019
   25  0.012  0.000  0.029  0.041
   26  0.003  0.001  0.013  0.017
   27  0.001  0.001  0.040  0.041
   28  0.000  0.000  0.002  0.003
   29  0.001  0.001  0.012  0.014
   30  0.000  0.000  0.006  0.007
   31  0.001  0.001  0.012  0.014
   32  0.000  0.000  0.012  0.013
   33  0.000  0.000  0.006  0.007
   34  0.000  0.000  0.012  0.013
   35  0.000  0.000  0.002  0.002
   36  0.000  0.001  0.129  0.130
   37  0.000  0.009  0.000  0.009
tot    0.108  0.025  0.673  0.806
 
band     6 # energy   -5.57874187 # occ.  2.00000000
 
ion      s      p      d    tot
    1  0.000  0.000  0.006  0.006
    2  0.001  0.000  0.001  0.002
    3  0.000  0.000  0.001  0.002
    4  0.001  0.000  0.001  0.002
    5  0.000  0.000  0.003  0.003
    6  0.000  0.000  0.002  0.002
    7  0.000  0.000  0.001  0.002
    8  0.000  0.000  0.002  0.002
    9  0.000  0.000  0.001  0.001
   10  0.000  0.000  0.016  0.016
   11  0.003  0.001  0.014  0.017
   12  0.007  0.001  0.014  0.022
   13  0.003  0.001  0.014  0.018
   14  0.000  0.001  0.029  0.030
   15  0.000  0.000  0.008  0.009
   16  0.007  0.001  0.014  0.022
   17  0.000  0.000  0.008  0.008
   18  0.000  0.000  0.007  0.007
   19  0.009  0.001  0.024  0.033
   20  0.000  0.001  0.108  0.108
   21  0.029  0.000  0.042  0.072
   22  0.002  0.001  0.024  0.027
   23  0.030  0.000  0.040  0.070
   24  0.000  0.001  0.048  0.048
   25  0.000  0.001  0.007  0.008
   26  0.009  0.001  0.023  0.033
   27  0.002  0.001  0.023  0.026
   28  0.000  0.000  0.002  0.003
   29  0.000  0.000  0.008  0.008
   30  0.001  0.001  0.014  0.016
   31  0.000  0.000  0.008  0.008
   32  0.001  0.001  0.007  0.009
   33  0.001  0.001  0.014  0.016
   34  0.001  0.001  0.008  0.010
   35  0.000  0.000  0.002  0.002
   36  0.000  0.001  0.129  0.130
   37  0.000  0.009  0.000  0.009
tot    0.108  0.025  0.673  0.806
 
band     7 # energy   -5.54720022 # occ.  2.00000000
 
ion      s      p      d    tot
    1  0.008  0.001  0.001  0.010
    2  0.000  0.000  0.004  0.005
    3  0.000  0.000  0.004  0.005
    4  0.000  0.000  0.004  0.005
    5  0.000  0.000  0.002  0.002
    6  0.000  0.000  0.004  0.005
    7  0.000  0.000  0.004  0.005
    8  0.000  0.000  0.004  0.005
    9  0.001  0.000  0.002  0.003
   10  0.004  0.000  0.036  0.040
   11  0.000  0.000  0.016  0.017
   12  0.004  0.000  0.036  0.040
   13  0.000  0.000  0.016  0.017
   14  0.000  0.000  0.016  0.017
   15  0.007  0.001  0.003  0.010
   16  0.004  0.000  0.036  0.040
   17  0.007  0.001  0.003  0.010
   18  0.007  0.001  0.003  0.010
   19  0.001  0.000  0.049  0.050
   20  0.012  0.001  0.071  0.083
   21  0.012  0.001  0.071  0.083
   22  0.013  0.001  0.000  0.014
   23  0.012  0.001  0.071  0.083
   24  0.013  0.001  0.000  0.014
   25  0.001  0.000  0.049  0.050
   26  0.001  0.000  0.049  0.050
   27  0.013  0.001  0.000  0.014
   28  0.003  0.000  0.002  0.005
   29  0.001  0.000  0.008  0.009
   30  0.001  0.000  0.008  0.009
   31  0.001  0.000  0.008  0.009
   32  0.001  0.000  0.008  0.009
   33  0.001  0.000  0.008  0.009
   34  0.001  0.000  0.008  0.009
   35  0.007  0.001  0.000  0.008
   36  0.012  0.012  0.005  0.029
   37  0.009  0.002  0.000  0.010
tot    0.153  0.028  0.613  0.794
 
band     8 # energy   -5.52738418 # occ.  2.00000000
 
ion      s      p      d    tot
    1  0.015  0.000  0.022  0.038
    2  0.016  0.000  0.029  0.045
    3  0.016  0.000  0.029  0.045
    4  0.016  0.000  0.029  0.045
    5  0.019  0.000  0.036  0.055
    6  0.016  0.000  0.029  0.045
    7  0.016  0.000  0.029  0.045
    8  0.016  0.000  0.029  0.045
    9  0.013  0.000  0.030  0.042
   10  0.001  0.001  0.009  0.011
   11  0.001  0.001  0.031  0.033
   12  0.001  0.001  0.009  0.011
   13  0.001  0.001  0.031  0.033
   14  0.001  0.001  0.031  0.033
   15  0.001  0.000  0.024  0.026
   16  0.001  0.001  0.009  0.011
   17  0.001  0.000  0.024  0.026
   18  0.001  0.000  0.024  0.026
   19  0.003  0.000  0.002  0.006
   20  0.001  0.000  0.020  0.022
   21  0.001  0.000  0.020  0.022
   22  0.000  0.000  0.007  0.007
   23  0.001  0.000  0.020  0.022
   24  0.000  0.000  0.007  0.007
   25  0.003  0.000  0.002  0.006
   26  0.003  0.000  0.002  0.006
   27  0.000  0.000  0.007  0.007
   28  0.001  0.000  0.000  0.001
   29  0.000  0.000  0.006  0.006
   30  0.000  0.000  0.006  0.006
   31  0.000  0.000  0.006  0.006
   32  0.000  0.000  0.006  0.006
   33  0.000  0.000  0.006  0.006
   34  0.000  0.000  0.006  0.006
   35  0.000  0.000  0.000  0.000
   36  0.004  0.000  0.016  0.021
   37  0.001  0.001  0.000  0.001
tot    0.170  0.009  0.599  0.778
 
band     9 # energy   -5.49201076 # occ.  2.00000000
 
ion      s      p      d    tot
    1  0.000  0.000  0.001  0.001
    2  0.001  0.000  0.004  0.005
    3  0.000  0.000  0.002  0.002
    4  0.001  0.000  0.004  0.005
    5  0.000  0.000  0.006  0.006
    6  0.001  0.000  0.004  0.005
    7  0.000  0.000  0.002  0.002
    8  0.001  0.000  0.004  0.005
    9  0.000  0.000  0.005  0.006
   10  0.000  0.001  0.046  0.046
   11  0.015  0.001  0.024  0.040
   12  0.000  0.000  0.031  0.031
   13  0.015  0.001  0.025  0.040
   14  0.000  0.000  0.080  0.080
   15  0.013  0.001  0.026  0.040
   16  0.000  0.000  0.031  0.031
   17  0.013  0.001  0.026  0.039
   18  0.000  0.001  0.016  0.018
   19  0.007  0.001  0.024  0.032
   20  0.000  0.001  0.031  0.032
   21  0.002  0.000  0.037  0.039
   22  0.015  0.001  0.024  0.040
   23  0.002  0.000  0.037  0.039
   24  0.000  0.001  0.035  0.036
   25  0.000  0.000  0.070  0.070
   26  0.007  0.000  0.025  0.033
   27  0.016  0.001  0.024  0.040
   28  0.000  0.000  0.004  0.004
   29  0.000  0.000  0.004  0.004
   30  0.001  0.000  0.005  0.006
   31  0.000  0.000  0.004  0.004
   32  0.000  0.000  0.003  0.004
   33  0.001  0.000  0.005  0.006
   34  0.001  0.000  0.003  0.004
   35  0.000  0.000  0.007  0.008
   36  0.000  0.000  0.004  0.004
   37  0.000  0.000  0.000  0.000
tot    0.112  0.015  0.683  0.810
 
band    10 # energy   -5.49200952 # occ.  2.00000000
 
ion      s      p      d    tot
    1  0.000  0.000  0.001  0.001
    2  0.000  0.000  0.003  0.003
    3  0.001  0.000  0.005  0.006
    4  0.000  0.000  0.003  0.003
    5  0.000  0.000  0.006  0.006
    6  0.000  0.000  0.003  0.003
    7  0.001  0.000  0.005  0.006
    8  0.000  0.000  0.003  0.003
    9  0.000  0.000  0.005  0.006
   10  0.000  0.000  0.026  0.026
   11  0.005  0.000  0.062  0.067
   12  0.000  0.001  0.040  0.041
   13  0.005  0.000  0.061  0.066
   14  0.020  0.001  0.006  0.027
   15  0.004  0.001  0.019  0.025
   16  0.000  0.001  0.041  0.041
   17  0.004  0.001  0.019  0.025
   18  0.017  0.001  0.029  0.047
   19  0.002  0.000  0.056  0.058
   20  0.003  0.000  0.039  0.042
   21  0.001  0.001  0.033  0.035
   22  0.005  0.001  0.032  0.038
   23  0.001  0.001  0.033  0.034
   24  0.021  0.001  0.020  0.042
   25  0.010  0.001  0.010  0.020
   26  0.002  0.000  0.055  0.057
   27  0.005  0.001  0.032  0.038
   28  0.000  0.000  0.004  0.004
   29  0.001  0.000  0.004  0.005
   30  0.000  0.000  0.003  0.003
   31  0.001  0.000  0.004  0.005
   32  0.001  0.000  0.004  0.006
   33  0.000  0.000  0.003  0.003
   34  0.001  0.000  0.004  0.006
   35  0.000  0.000  0.007  0.008
   36  0.000  0.000  0.004  0.004
   37  0.000  0.000  0.000  0.000
tot    0.112  0.015  0.683  0.810
 
band    11 # energy   -5.47753471 # occ.  2.00000000
 
ion      s      p      d    tot
    1  0.001  0.000  0.000  0.002
    2  0.000  0.000  0.005  0.006
    3  0.000  0.000  0.005  0.006
    4  0.000  0.000  0.005  0.006
    5  0.003  0.001  0.005  0.009
    6  0.000  0.000  0.005  0.006
    7  0.000  0.000  0.005  0.006
    8  0.000  0.000  0.005  0.006
    9  0.003  0.000  0.000  0.003
   10  0.006  0.001  0.005  0.012
   11  0.010  0.000  0.032  0.043
   12  0.006  0.001  0.005  0.012
   13  0.010  0.000  0.032  0.043
   14  0.010  0.000  0.032  0.042
   15  0.000  0.000  0.037  0.037
   16  0.006  0.001  0.005  0.012
   17  0.000  0.000  0.037  0.037
   18  0.000  0.000  0.037  0.037
   19  0.014  0.001  0.024  0.038
   20  0.004  0.001  0.019  0.024
   21  0.004  0.001  0.019  0.024
   22  0.004  0.000  0.075  0.079
   23  0.004  0.001  0.019  0.024
   24  0.004  0.000  0.075  0.079
   25  0.014  0.001  0.024  0.038
   26  0.014  0.001  0.024  0.038
   27  0.004  0.000  0.075  0.079
   28  0.007  0.001  0.002  0.010
   29  0.000  0.000  0.004  0.005
   30  0.000  0.000  0.004  0.005
   31  0.000  0.000  0.004  0.005
   32  0.000  0.000  0.004  0.005
   33  0.000  0.000  0.004  0.005
   34  0.000  0.000  0.004  0.005
   35  0.001  0.001  0.013  0.015
   36  0.000  0.000  0.000  0.000
   37  0.000  0.000  0.000  0.000
tot    0.131  0.016  0.654  0.802
 
band    12 # energy   -5.45854877 # occ.  2.00000000
 
ion      s      p      d    tot
    1  0.000  0.000  0.006  0.007
    2  0.001  0.000  0.009  0.010
    3  0.001  0.000  0.009  0.010
    4  0.001  0.000  0.009  0.010
    5  0.002  0.000  0.001  0.003
    6  0.001  0.000  0.009  0.010
    7  0.001  0.000  0.009  0.010
    8  0.001  0.000  0.009  0.010
    9  0.004  0.000  0.015  0.019
   10  0.005  0.000  0.013  0.018
   11  0.003  0.000  0.038  0.041
   12  0.005  0.000  0.013  0.018
   13  0.003  0.000  0.038  0.041
   14  0.003  0.000  0.037  0.041
   15  0.001  0.000  0.061  0.063
   16  0.005  0.000  0.013  0.018
   17  0.001  0.000  0.061  0.063
   18  0.001  0.000  0.061  0.063
   19  0.000  0.001  0.002  0.003
   20  0.000  0.000  0.038  0.039
   21  0.000  0.000  0.038  0.038
   22  0.002  0.000  0.047  0.049
   23  0.000  0.000  0.038  0.038
   24  0.002  0.000  0.047  0.049
   25  0.000  0.001  0.002  0.003
   26  0.000  0.001  0.002  0.003
   27  0.002  0.000  0.047  0.049
   28  0.003  0.000  0.001  0.004
   29  0.002  0.000  0.011  0.013
   30  0.002  0.000  0.011  0.013
   31  0.002  0.000  0.011  0.013
   32  0.002  0.000  0.011  0.013
   33  0.002  0.000  0.011  0.013
   34  0.002  0.000  0.011  0.013
   35  0.005  0.000  0.015  0.020
   36  0.000  0.001  0.001  0.002
   37  0.000  0.000  0.000  0.000
tot    0.070  0.009  0.751  0.830
 
band    13 # energy   -5.45755203 # occ.  2.00000000
 
ion      s      p      d    tot
    1  0.000  0.001  0.009  0.010
    2  0.000  0.000  0.008  0.008
    3  0.003  0.001  0.007  0.010
    4  0.000  0.000  0.008  0.008
    5  0.000  0.000  0.009  0.009
    6  0.003  0.001  0.004  0.008
    7  0.003  0.001  0.007  0.010
    8  0.003  0.001  0.004  0.008
    9  0.000  0.000  0.009  0.009
   10  0.000  0.000  0.083  0.084
   11  0.005  0.000  0.028  0.034
   12  0.015  0.000  0.023  0.038
   13  0.005  0.000  0.028  0.034
   14  0.000  0.001  0.017  0.018
   15  0.003  0.000  0.030  0.033
   16  0.015  0.000  0.023  0.038
   17  0.003  0.000  0.030  0.033
   18  0.000  0.000  0.045  0.045
   19  0.005  0.000  0.024  0.028
   20  0.000  0.000  0.030  0.031
   21  0.000  0.000  0.033  0.033
   22  0.007  0.000  0.019  0.027
   23  0.000  0.000  0.033  0.033
   24  0.000  0.000  0.038  0.039
   25  0.000  0.000  0.044  0.044
   26  0.005  0.000  0.023  0.028
   27  0.007  0.000  0.019  0.027
   28  0.000  0.000  0.009  0.010
   29  0.005  0.001  0.005  0.010
   30  0.001  0.001  0.010  0.012
   31  0.005  0.001  0.005  0.011
   32  0.001  0.000  0.007  0.008
   33  0.001  0.001  0.010  0.012
   34  0.001  0.000  0.007  0.008
   35  0.000  0.000  0.004  0.004
   36  0.000  0.000  0.019  0.019
   37  0.000  0.000  0.000  0.000
tot    0.096  0.011  0.716  0.823
 
band    14 # energy   -5.45753927 # occ.  2.00000000
 
ion      s      p      d    tot
    1  0.000  0.001  0.009  0.010
    2  0.004  0.001  0.005  0.009
    3  0.001  0.000  0.006  0.008
    4  0.004  0.001  0.005  0.009
    5  0.000  0.000  0.009  0.009
    6  0.001  0.000  0.008  0.010
    7  0.001  0.000  0.006  0.008
    8  0.001  0.000  0.008  0.010
    9  0.000  0.000  0.009  0.009
   10  0.020  0.000  0.003  0.023
   11  0.002  0.000  0.021  0.023
   12  0.005  0.000  0.063  0.069
   13  0.002  0.000  0.021  0.023
   14  0.007  0.000  0.032  0.039
   15  0.001  0.000  0.040  0.041
   16  0.005  0.000  0.063  0.068
   17  0.001  0.000  0.040  0.041
   18  0.004  0.000  0.025  0.029
   19  0.002  0.000  0.037  0.039
   20  0.000  0.000  0.034  0.034
   21  0.000  0.000  0.031  0.031
   22  0.002  0.000  0.032  0.035
   23  0.000  0.000  0.031  0.031
   24  0.010  0.000  0.013  0.023
   25  0.006  0.000  0.016  0.023
   26  0.002  0.000  0.038  0.039
   27  0.003  0.000  0.032  0.035
   28  0.000  0.000  0.009  0.010
   29  0.000  0.000  0.010  0.010
   30  0.003  0.000  0.005  0.008
   31  0.000  0.000  0.010  0.010
   32  0.004  0.001  0.008  0.012
   33  0.003  0.000  0.005  0.008
   34  0.004  0.001  0.008  0.012
   35  0.000  0.000  0.004  0.005
   36  0.000  0.000  0.019  0.019
   37  0.000  0.000  0.000  0.000
tot    0.096  0.011  0.716  0.823
 
band    15 # energy   -5.44664448 # occ.  2.00000000
 
ion      s      p      d    tot
    1  0.000  0.000  0.008  0.008
    2  0.000  0.000  0.009  0.009
    3  0.001  0.000  0.006  0.007
    4  0.000  0.000  0.009  0.009
    5  0.000  0.000  0.001  0.001
    6  0.001  0.000  0.005  0.006
    7  0.001  0.000  0.005  0.007
    8  0.001  0.000  0.004  0.006
    9  0.000  0.000  0.012  0.012
   10  0.005  0.000  0.048  0.053
   11  0.000  0.000  0.052  0.052
   12  0.002  0.000  0.022  0.024
   13  0.000  0.000  0.050  0.050
   14  0.001  0.000  0.021  0.023
   15  0.003  0.000  0.090  0.093
   16  0.001  0.000  0.020  0.022
   17  0.003  0.000  0.085  0.089
   18  0.013  0.000  0.017  0.030
   19  0.000  0.000  0.051  0.051
   20  0.000  0.000  0.031  0.031
   21  0.000  0.000  0.014  0.014
   22  0.000  0.000  0.036  0.036
   23  0.000  0.000  0.013  0.013
   24  0.001  0.000  0.040  0.042
   25  0.002  0.000  0.010  0.012
   26  0.000  0.000  0.048  0.048
   27  0.000  0.000  0.036  0.036
   28  0.000  0.000  0.009  0.009
   29  0.002  0.000  0.006  0.007
   30  0.001  0.000  0.004  0.005
   31  0.002  0.000  0.006  0.008
   32  0.000  0.000  0.007  0.007
   33  0.000  0.000  0.004  0.004
   34  0.000  0.000  0.006  0.007
   35  0.000  0.000  0.013  0.013
   36  0.000  0.000  0.003  0.003
   37  0.000  0.000  0.000  0.000
tot    0.043  0.007  0.802  0.851
 
band    16 # energy   -5.44661957 # occ.  2.00000000
 
ion      s      p      d    tot
    1  0.000  0.000  0.008  0.008
    2  0.001  0.000  0.004  0.005
    3  0.000  0.000  0.007  0.008
    4  0.001  0.000  0.004  0.005
    5  0.000  0.000  0.001  0.001
    6  0.000  0.000  0.008  0.009
    7  0.000  0.000  0.007  0.008
    8  0.000  0.000  0.009  0.009
    9  0.000  0.000  0.012  0.012
   10  0.000  0.000  0.012  0.012
   11  0.001  0.000  0.030  0.031
   12  0.004  0.000  0.038  0.042
   13  0.001  0.000  0.032  0.033
   14  0.000  0.000  0.061  0.061
   15  0.010  0.000  0.038  0.048
   16  0.004  0.000  0.040  0.045
   17  0.009  0.000  0.043  0.052
   18  0.000  0.000  0.111  0.111
   19  0.001  0.000  0.022  0.023
   20  0.000  0.000  0.008  0.008
   21  0.000  0.000  0.024  0.025
   22  0.001  0.000  0.039  0.040
   23  0.000  0.000  0.026  0.026
   24  0.000  0.000  0.034  0.034
   25  0.000  0.000  0.062  0.062
   26  0.001  0.000  0.025  0.026
   27  0.001  0.000  0.039  0.040
   28  0.000  0.000  0.009  0.009
   29  0.000  0.000  0.005  0.005
   30  0.001  0.000  0.007  0.008
   31  0.000  0.000  0.005  0.005
   32  0.001  0.000  0.004  0.006
   33  0.001  0.000  0.007  0.008
   34  0.001  0.000  0.004  0.006
   35  0.000  0.000  0.013  0.013
   36  0.000  0.000  0.003  0.003
   37  0.000  0.000  0.000  0.000
tot    0.043  0.007  0.802  0.851
 
band    17 # energy   -5.44075556 # occ.  2.00000000
 
ion      s      p      d    tot
    1  0.002  0.000  0.019  0.021
    2  0.001  0.000  0.009  0.010
    3  0.001  0.000  0.009  0.010
    4  0.001  0.000  0.009  0.010
    5  0.001  0.000  0.000  0.002
    6  0.001  0.000  0.009  0.010
    7  0.001  0.000  0.009  0.010
    8  0.001  0.000  0.009  0.010
    9  0.004  0.001  0.002  0.006
   10  0.002  0.000  0.084  0.086
   11  0.005  0.000  0.019  0.024
   12  0.002  0.000  0.084  0.085
   13  0.005  0.000  0.019  0.024
   14  0.005  0.000  0.019  0.025
   15  0.006  0.000  0.026  0.033
   16  0.002  0.000  0.084  0.085
   17  0.006  0.000  0.026  0.033
   18  0.006  0.000  0.026  0.033
   19  0.000  0.000  0.037  0.037
   20  0.000  0.001  0.018  0.019
   21  0.000  0.001  0.018  0.019
   22  0.001  0.000  0.022  0.023
   23  0.000  0.001  0.018  0.019
   24  0.001  0.000  0.022  0.023
   25  0.000  0.000  0.037  0.037
   26  0.000  0.000  0.037  0.037
   27  0.001  0.000  0.022  0.023
   28  0.006  0.000  0.010  0.016
   29  0.001  0.000  0.010  0.011
   30  0.001  0.000  0.010  0.011
   31  0.001  0.000  0.010  0.011
   32  0.001  0.000  0.010  0.011
   33  0.001  0.000  0.010  0.011
   34  0.001  0.000  0.010  0.011
   35  0.000  0.000  0.005  0.005
   36  0.000  0.000  0.000  0.001
   37  0.001  0.000  0.000  0.001
tot    0.066  0.008  0.764  0.839
 
band    18 # energy   -5.36284711 # occ.  2.00000000
 
ion      s      p      d    tot
    1  0.000  0.000  0.005  0.005
    2  0.002  0.000  0.004  0.007
    3  0.002  0.001  0.005  0.008
    4  0.002  0.000  0.004  0.006
    5  0.000  0.001  0.013  0.013
    6  0.000  0.000  0.005  0.005
    7  0.002  0.001  0.005  0.007
    8  0.000  0.000  0.005  0.005
    9  0.000  0.000  0.006  0.006
   10  0.000  0.000  0.002  0.002
   11  0.003  0.000  0.040  0.044
   12  0.000  0.000  0.011  0.011
   13  0.003  0.000  0.038  0.041
   14  0.000  0.000  0.022  0.023
   15  0.001  0.000  0.018  0.019
   16  0.000  0.000  0.012  0.013
   17  0.001  0.000  0.018  0.019
   18  0.000  0.000  0.020  0.020
   19  0.001  0.000  0.026  0.027
   20  0.000  0.000  0.112  0.112
   21  0.000  0.000  0.089  0.090
   22  0.000  0.000  0.037  0.037
   23  0.000  0.000  0.086  0.086
   24  0.000  0.000  0.064  0.064
   25  0.000  0.000  0.004  0.004
   26  0.001  0.000  0.023  0.024
   27  0.000  0.000  0.033  0.033
   28  0.000  0.000  0.001  0.001
   29  0.001  0.001  0.011  0.012
   30  0.000  0.000  0.008  0.008
   31  0.001  0.001  0.011  0.013
   32  0.001  0.000  0.010  0.011
   33  0.000  0.000  0.008  0.008
   34  0.001  0.000  0.010  0.010
   35  0.000  0.000  0.000  0.000
   36  0.000  0.000  0.072  0.073
   37  0.000  0.006  0.000  0.006
tot    0.023  0.015  0.835  0.873
 
band    19 # energy   -5.36284312 # occ.  2.00000000
 
ion      s      p      d    tot
    1  0.000  0.000  0.005  0.005
    2  0.001  0.000  0.005  0.006
    3  0.001  0.000  0.004  0.005
    4  0.001  0.000  0.005  0.006
    5  0.000  0.001  0.013  0.013
    6  0.003  0.001  0.004  0.008
    7  0.001  0.000  0.004  0.005
    8  0.003  0.001  0.004  0.008
    9  0.000  0.000  0.006  0.006
   10  0.000  0.000  0.015  0.015
   11  0.001  0.000  0.027  0.028
   12  0.000  0.000  0.006  0.006
   13  0.001  0.000  0.029  0.030
   14  0.004  0.000  0.044  0.049
   15  0.000  0.000  0.019  0.020
   16  0.000  0.000  0.004  0.004
   17  0.000  0.000  0.019  0.019
   18  0.001  0.000  0.017  0.019
   19  0.000  0.000  0.009  0.010
   20  0.000  0.000  0.080  0.080
   21  0.000  0.000  0.102  0.102
   22  0.000  0.000  0.053  0.053
   23  0.000  0.000  0.105  0.105
   24  0.000  0.000  0.025  0.025
   25  0.002  0.000  0.031  0.033
   26  0.001  0.000  0.012  0.013
   27  0.000  0.000  0.057  0.057
   28  0.000  0.000  0.001  0.001
   29  0.000  0.000  0.008  0.009
   30  0.001  0.001  0.011  0.013
   31  0.000  0.000  0.008  0.008
   32  0.000  0.001  0.009  0.010
   33  0.001  0.001  0.011  0.013
   34  0.000  0.001  0.009  0.010
   35  0.000  0.000  0.000  0.000
   36  0.000  0.000  0.072  0.073
   37  0.000  0.006  0.000  0.006
tot    0.023  0.015  0.835  0.873
 
band    20 # energy   -5.30575336 # occ.  2.00000000
 
ion      s      p      d    tot
    1  0.000  0.000  0.001  0.001
    2  0.000  0.000  0.007  0.008
    3  0.000  0.000  0.007  0.008
    4  0.000  0.000  0.007  0.008
    5  0.000  0.000  0.007  0.007
    6  0.000  0.000  0.007  0.008
    7  0.000  0.000  0.007  0.008
    8  0.000  0.000  0.007  0.008
    9  0.000  0.000  0.011  0.011
   10  0.000  0.000  0.012  0.013
   11  0.001  0.000  0.045  0.046
   12  0.000  0.000  0.012  0.013
   13  0.001  0.000  0.045  0.046
   14  0.001  0.000  0.045  0.046
   15  0.002  0.001  0.050  0.053
   16  0.000  0.000  0.012  0.013
   17  0.002  0.001  0.050  0.053
   18  0.002  0.001  0.050  0.053
   19  0.001  0.000  0.020  0.021
   20  0.001  0.001  0.051  0.053
   21  0.001  0.001  0.051  0.053
   22  0.003  0.001  0.042  0.045
   23  0.001  0.001  0.051  0.053
   24  0.003  0.001  0.042  0.045
   25  0.001  0.000  0.020  0.021
   26  0.001  0.000  0.020  0.021
   27  0.003  0.001  0.042  0.045
   28  0.004  0.000  0.002  0.007
   29  0.000  0.000  0.013  0.013
   30  0.000  0.000  0.013  0.013
   31  0.000  0.000  0.013  0.013
   32  0.000  0.000  0.013  0.013
   33  0.000  0.000  0.013  0.013
   34  0.000  0.000  0.013  0.013
   35  0.000  0.000  0.005  0.005
   36  0.002  0.003  0.003  0.009
   37  0.002  0.001  0.000  0.003
tot    0.031  0.017  0.813  0.862
 
band    21 # energy   -5.28046124 # occ.  2.00000000
 
ion      s      p      d    tot
    1  0.000  0.000  0.004  0.004
    2  0.000  0.001  0.012  0.012
    3  0.000  0.001  0.012  0.012
    4  0.000  0.001  0.012  0.012
    5  0.004  0.001  0.001  0.006
    6  0.000  0.001  0.012  0.012
    7  0.000  0.001  0.012  0.012
    8  0.000  0.001  0.012  0.012
    9  0.004  0.001  0.000  0.005
   10  0.003  0.000  0.031  0.034
   11  0.000  0.001  0.046  0.047
   12  0.003  0.000  0.031  0.034
   13  0.000  0.001  0.046  0.047
   14  0.000  0.001  0.046  0.047
   15  0.003  0.000  0.011  0.014
   16  0.003  0.000  0.031  0.034
   17  0.003  0.000  0.011  0.014
   18  0.003  0.000  0.011  0.014
   19  0.001  0.000  0.055  0.056
   20  0.001  0.000  0.023  0.025
   21  0.001  0.000  0.023  0.024
   22  0.000  0.001  0.034  0.035
   23  0.001  0.000  0.023  0.024
   24  0.000  0.001  0.033  0.034
   25  0.001  0.000  0.055  0.056
   26  0.001  0.000  0.055  0.056
   27  0.000  0.001  0.034  0.035
   28  0.000  0.000  0.021  0.022
   29  0.001  0.001  0.013  0.015
   30  0.001  0.001  0.013  0.015
   31  0.001  0.001  0.013  0.015
   32  0.001  0.001  0.013  0.015
   33  0.001  0.001  0.013  0.015
   34  0.001  0.001  0.013  0.015
   35  0.011  0.001  0.000  0.012
   36  0.002  0.000  0.002  0.003