 vasp.6.2.0 18Jan21 (build Jun 12 2021 23:27:24) complex                        
  
 executed on             LinuxIFC date 2022.05.30  17:39:30
 running on   28 total cores
 distrk:  each k-point on   28 cores,    1 groups
 distr:  one band on NCORE=   1 cores,   28 groups


--------------------------------------------------------------------------------------------------------


 INCAR:
   ISMEAR = -5
   SIGMA = 0.1
   ISPIN = 1
   EDIFF = 1.d-5
   EDIFFG = -0.01
   NSW = 0
   NELM = 150
   ENCUT = 500
   ISIF = 2
   IBRION = 2
   LREAL = Auto
   ALGO = Fast
   ICHARG = 11
   LORBIT = 10
   LCHARG = .F.
   LWAVE = .F.

 POTCAR:    PAW_PBE Ag 02Apr2005                  
 POTCAR:    PAW_PBE Re 17Jan2003                  
 POTCAR:    PAW_PBE C 08Apr2002                   
 -----------------------------------------------------------------------------
|                                                                             |
|           W    W    AA    RRRRR   N    N  II  N    N   GGGG   !!!           |
|           W    W   A  A   R    R  NN   N  II  NN   N  G    G  !!!           |
|           W    W  A    A  R    R  N N  N  II  N N  N  G       !!!           |
|           W WW W  AAAAAA  RRRRR   N  N N  II  N  N N  G  GGG   !            |
|           WW  WW  A    A  R   R   N   NN  II  N   NN  G    G                |
|           W    W  A    A  R    R  N    N  II  N    N   GGGG   !!!           |
|                                                                             |
|     For optimal performance we recommend to set                             |
|       NCORE = 2 up to number-of-cores-per-socket                            |
|     NCORE specifies how many cores store one orbital (NPAR=cpu/NCORE).      |
|     This setting can greatly improve the performance of VASP for DFT.       |
|     The default, NCORE=1 might be grossly inefficient on modern             |
|     multi-core architectures or massively parallel machines. Do your        |
|     own testing! More info at https://www.vasp.at/wiki/index.php/NCORE      |
|     Unfortunately you need to use the default for GW and RPA                |
|     calculations (for HF NCORE is supported but not extensively tested      |
|     yet).                                                                   |
|                                                                             |
 -----------------------------------------------------------------------------

 POTCAR:    PAW_PBE Ag 02Apr2005                  
   VRHFIN =Ag : s1 d10                                                                              
   LEXCH  = PE                                                                                      
   EATOM  =  1037.2675 eV,   76.2370 Ry                                                             
                                                                                                    
   TITEL  = PAW_PBE Ag 02Apr2005                                                                    
   LULTRA =        F    use ultrasoft PP ?                                                          
   IUNSCR =        1    unscreen: 0-lin 1-nonlin 2-no                                               
   RPACOR =    2.000    partial core radius                                                         
   POMASS =  107.868; ZVAL   =   11.000    mass and valenz                                          
   RCORE  =    2.500    outmost cutoff radius                                                       
   RWIGS  =    2.840; RWIGS  =    1.503    wigner-seitz radius (au A)                               
   ENMAX  =  249.844; ENMIN  =  187.383 eV                                                          
   ICORE  =        3    local potential                                                             
   LCOR   =        T    correct aug charges                                                         
   LPAW   =        T    paw PP                                                                      
   EAUG   =  412.496                                                                                
   DEXC   =    0.000                                                                                
   RMAX   =    2.560    core radius for proj-oper                                                   
   RAUG   =    1.300    factor for augmentation sphere                                              
   RDEP   =    2.576    radius for radial grids                                                     
   RDEPT  =    2.072    core radius for aug-charge                                                  
                                                                                                    
   Atomic configuration                                                                             
   12 entries                                                                                       
     n  l   j            E        occ.                                                              
     1  0  0.50    -25324.9161   2.0000                                                             
     2  0  0.50     -3728.5341   2.0000                                                             
     2  1  1.50     -3344.0404   6.0000                                                             
     3  0  0.50      -683.5581   2.0000                                                             
     3  1  1.50      -557.3225   6.0000                                                             
     3  2  2.50      -358.3853  10.0000                                                             
     4  0  0.50       -95.0341   2.0000                                                             
     4  1  1.50       -58.5511   6.0000                                                             
     4  2  2.50        -7.4440  10.0000                                                             
     5  0  0.50        -4.4045   1.0000                                                             
     5  1  0.50        -1.3606   0.0000                                                             
     4  3  2.50        -1.3606   0.0000                                                             
   Description                                                                                      
     l       E           TYP  RCUT    TYP  RCUT                                                     
     2     -7.4439781     23  2.400                                                                 
     2     -8.8045607     23  2.400                                                                 
     0     -4.4044681     23  2.400                                                                 
     0      1.9520038     23  2.400                                                                 
     1     -1.3605826     23  2.500                                                                 
     1     27.2116520     23  2.500                                                                 
     3     -4.0817478     23  2.400                                                                 
  local pseudopotential read in
  partial core-charges read in
  partial kinetic energy density read in
  atomic valenz-charges read in
  non local Contribution for L=           2  read in
    real space projection operators read in
  non local Contribution for L=           2  read in
    real space projection operators read in
  non local Contribution for L=           0  read in
    real space projection operators read in
  non local Contribution for L=           0  read in
    real space projection operators read in
  non local Contribution for L=           1  read in
    real space projection operators read in
  non local Contribution for L=           1  read in
    real space projection operators read in
    PAW grid and wavefunctions read in
 
   number of l-projection  operators is LMAX  =           6
   number of lm-projection operators is LMMAX =          18
 
 POTCAR:    PAW_PBE Re 17Jan2003                  
   VRHFIN =Re: 5p6s5d                                                                               
   LEXCH  = PE                                                                                      
   EATOM  =   299.6589 eV,   22.0243 Ry                                                             
                                                                                                    
   TITEL  = PAW_PBE Re 17Jan2003                                                                    
   LULTRA =        F    use ultrasoft PP ?                                                          
   IUNSCR =        1    unscreen: 0-lin 1-nonlin 2-no                                               
   RPACOR =    2.250    partial core radius                                                         
   POMASS =  186.207; ZVAL   =    7.000    mass and valenz                                          
   RCORE  =    2.700    outmost cutoff radius                                                       
   RWIGS  =    2.710; RWIGS  =    1.434    wigner-seitz radius (au A)                               
   ENMAX  =  226.216; ENMIN  =  169.662 eV                                                          
   RCLOC  =    2.105    cutoff for local pot                                                        
   LCOR   =        T    correct aug charges                                                         
   LPAW   =        T    paw PP                                                                      
   EAUG   =  370.280                                                                                
   DEXC   =    0.000                                                                                
   RMAX   =    2.768    core radius for proj-oper                                                   
   RAUG   =    1.300    factor for augmentation sphere                                              
   RDEP   =    2.719    radius for radial grids                                                     
   RDEPT  =    2.204    core radius for aug-charge                                                  
                                                                                                    
   Atomic configuration                                                                             
   16 entries                                                                                       
     n  l   j            E        occ.                                                              
     1  0  0.50    -71633.0043   2.0000                                                             
     2  0  0.50    -12416.1215   2.0000                                                             
     2  1  1.50    -10832.4223   6.0000                                                             
     3  0  0.50     -2872.9330   2.0000                                                             
     3  1  1.50     -2406.1720   6.0000                                                             
     3  2  2.50     -1877.8916  10.0000                                                             
     4  0  0.50      -597.8463   2.0000                                                             
     4  1  1.50      -444.8000   6.0000                                                             
     4  2  2.50      -252.9938  10.0000                                                             
     4  3  3.50       -40.1243  14.0000                                                             
     5  0  0.50       -83.0609   2.0000                                                             
     5  1  1.50       -44.9781   6.0000                                                             
     5  2  2.50        -4.0055   6.0000                                                             
     6  0  0.50        -5.2962   1.0000                                                             
     6  1  1.50        -2.7212   0.0000                                                             
     5  3  2.50        -1.3606   0.0000                                                             
   Description                                                                                      
     l       E           TYP  RCUT    TYP  RCUT                                                     
     2     -4.0054887     23  2.500                                                                 
     2     -2.6236470     23  2.500                                                                 
     0     -5.2961782     23  2.600                                                                 
     0      4.1641227     23  2.600                                                                 
     1     -2.7211652     23  2.700                                                                 
     1     27.2116520     23  2.700                                                                 
  local pseudopotential read in
  partial core-charges read in
  partial kinetic energy density read in
  kinetic energy density of atom read in
  atomic valenz-charges read in
  non local Contribution for L=           2  read in
    real space projection operators read in
  non local Contribution for L=           2  read in
    real space projection operators read in
  non local Contribution for L=           0  read in
    real space projection operators read in
  non local Contribution for L=           0  read in
    real space projection operators read in
  non local Contribution for L=           1  read in
    real space projection operators read in
  non local Contribution for L=           1  read in
    real space projection operators read in
    PAW grid and wavefunctions read in
 
   number of l-projection  operators is LMAX  =           6
   number of lm-projection operators is LMMAX =          18
 
 POTCAR:    PAW_PBE C 08Apr2002                   
   VRHFIN =C: s2p2                                                                                  
   LEXCH  = PE                                                                                      
   EATOM  =   147.1560 eV,   10.8157 Ry                                                             
                                                                                                    
   TITEL  = PAW_PBE C 08Apr2002                                                                     
   LULTRA =        F    use ultrasoft PP ?                                                          
   IUNSCR =        1    unscreen: 0-lin 1-nonlin 2-no                                               
   RPACOR =    1.200    partial core radius                                                         
   POMASS =   12.011; ZVAL   =    4.000    mass and valenz                                          
   RCORE  =    1.500    outmost cutoff radius                                                       
   RWIGS  =    1.630; RWIGS  =    0.863    wigner-seitz radius (au A)                               
   ENMAX  =  400.000; ENMIN  =  300.000 eV                                                          
   ICORE  =        2    local potential                                                             
   LCOR   =        T    correct aug charges                                                         
   LPAW   =        T    paw PP                                                                      
   EAUG   =  644.873                                                                                
   DEXC   =    0.000                                                                                
   RMAX   =    1.529    core radius for proj-oper                                                   
   RAUG   =    1.300    factor for augmentation sphere                                              
   RDEP   =    1.501    radius for radial grids                                                     
   RDEPT  =    1.300    core radius for aug-charge                                                  
                                                                                                    
   Atomic configuration                                                                             
    4 entries                                                                                       
     n  l   j            E        occ.                                                              
     1  0  0.50      -273.3789   2.0000                                                             
     2  0  0.50       -13.7508   2.0000                                                             
     2  1  0.50        -5.2854   2.0000                                                             
     3  2  1.50        -5.4423   0.0000                                                             
   Description                                                                                      
     l       E           TYP  RCUT    TYP  RCUT                                                     
     0    -13.7508458     23  1.200                                                                 
     0     -8.2022199     23  1.200                                                                 
     1     -5.2854383     23  1.500                                                                 
     1     34.0145650     23  1.500                                                                 
     2     -5.4423304      7  1.500                                                                 
  local pseudopotential read in
  partial core-charges read in
  partial kinetic energy density read in
  atomic valenz-charges read in
  non local Contribution for L=           0  read in
    real space projection operators read in
  non local Contribution for L=           0  read in
    real space projection operators read in
  non local Contribution for L=           1  read in
    real space projection operators read in
  non local Contribution for L=           1  read in
    real space projection operators read in
    PAW grid and wavefunctions read in
 
   number of l-projection  operators is LMAX  =           4
   number of lm-projection operators is LMMAX =           8
 
 Optimization of the real space projectors (new method)

 maximal supplied QI-value         = 15.12
 optimisation between [QCUT,QGAM] = [ 11.34, 22.83] = [ 36.00,145.93] Ry 
 Optimized for a Real-space Cutoff    1.43 Angstroem

   l    n(q)    QCUT    max X(q) W(low)/X(q) W(high)/X(q)  e(spline) 
   2      9    11.338    53.897    0.16E-03    0.20E-03    0.28E-06
   2      9    11.338    52.416    0.16E-03    0.20E-03    0.29E-06
   0     10    11.338   122.045    0.31E-04    0.76E-04    0.15E-06
   0     10    11.338    73.629    0.30E-04    0.72E-04    0.15E-06
   1      9    11.338    15.255    0.20E-03    0.19E-04    0.17E-06
   1      9    11.338     9.562    0.16E-03    0.15E-04    0.14E-06
 Optimization of the real space projectors (new method)

 maximal supplied QI-value         = 13.98
 optimisation between [QCUT,QGAM] = [ 11.33, 22.79] = [ 35.93,145.49] Ry 
 Optimized for a Real-space Cutoff    1.56 Angstroem

   l    n(q)    QCUT    max X(q) W(low)/X(q) W(high)/X(q)  e(spline) 
   2     10    11.327   884.633    0.22E-03    0.51E-03    0.88E-06
   2     10    11.327   796.723    0.22E-03    0.51E-03    0.88E-06
   0     11    11.327    65.348    0.44E-04    0.11E-03    0.75E-06
   0     11    11.327    39.642    0.40E-04    0.10E-03    0.69E-06
   1     10    11.327    13.988    0.15E-03    0.10E-03    0.19E-06
   1     10    11.327     8.682    0.11E-03    0.76E-04    0.14E-06
 Optimization of the real space projectors (new method)

 maximal supplied QI-value         = 25.13
 optimisation between [QCUT,QGAM] = [ 11.31, 22.87] = [ 35.82,146.48] Ry 
 Optimized for a Real-space Cutoff    1.00 Angstroem

   l    n(q)    QCUT    max X(q) W(low)/X(q) W(high)/X(q)  e(spline) 
   0      7    11.310   115.676    0.43E-03    0.13E-02    0.19E-06
   0      7    11.310    87.132    0.43E-03    0.13E-02    0.18E-06
   1      6    11.310     4.429    0.42E-03    0.74E-03    0.11E-06
   1      6    11.310     2.733    0.34E-03    0.55E-03    0.92E-07
  PAW_PBE Ag 02Apr2005                  :
 energy of atom  1       EATOM=-1037.2675
 kinetic energy error for atom=    0.0052 (will be added to EATOM!!)
  PAW_PBE Re 17Jan2003                  :
 energy of atom  2       EATOM= -299.6589
 kinetic energy error for atom=    0.0023 (will be added to EATOM!!)
  PAW_PBE C 08Apr2002                   :
 energy of atom  3       EATOM= -147.1560
 kinetic energy error for atom=    0.0076 (will be added to EATOM!!)
 
 
 POSCAR: Ag-Re-C
  positions in direct lattice
  velocities in cartesian coordinates
 exchange correlation table for  LEXCH =        8
   RHO(1)=    0.500       N(1)  =     2000
   RHO(2)=  100.500       N(2)  =     4000

 VTST: version 3.2, (02/03/18)

 CHAIN: initializing optimizer
 
 OPT: Using VASP Conjugate-Gradient optimizer
 CHAIN: Read ICHAIN            0
 
 POSCAR: Ag-Re-C
  positions in direct lattice
  velocities in cartesian coordinates
 


--------------------------------------------------------------------------------------------------------


 ion  position               nearest neighbor table
   1  0.000  0.000  0.217-   2 2.93   8 2.93   7 2.93   6 2.93   4 2.93  12 2.93  16 2.93  10 2.93
                             3 2.93
   2  0.333  0.000  0.217-   1 2.93   8 2.93   9 2.93   3 2.93   4 2.93   5 2.93  10 2.93  17 2.93
                            11 2.93
   3  0.667  0.000  0.217-   9 2.93   2 2.93   5 2.93  11 2.93   7 2.93  18 2.93   1 2.93   6 2.93
                            12 2.93
   4  0.000  0.333  0.217-   5 2.93   6 2.93   2 2.93   1 2.93   7 2.93  13 2.93  15 2.93   9 2.93
                            10 2.93
   5  0.333  0.333  0.217-   4 2.93   3 2.93   7 2.93   2 2.93   8 2.93  14 2.93  13 2.93  11 2.93
                             6 2.93
   6  0.667  0.333  0.217-   4 2.93   9 2.93   1 2.93  15 2.93   8 2.93  12 2.93   3 2.93   5 2.93
                            14 2.93
   7  0.000  0.667  0.217-   8 2.93   1 2.93   5 2.93   3 2.93   4 2.93  16 2.93  18 2.93  13 2.93
                             9 2.93
   8  0.333  0.667  0.217-   7 2.93   1 2.93   2 2.93   9 2.93   5 2.93  16 2.93   6 2.93  17 2.93
                            14 2.93
   9  0.667  0.667  0.217-   3 2.93   2 2.93   8 2.93   6 2.93  17 2.93   4 2.93  15 2.93   7 2.93
                            18 2.93
  10  0.111  0.111  0.315-  20 2.89  12 2.93  16 2.93  15 2.93  17 2.93  13 2.93  11 2.93   2 2.93
                             1 2.93   4 2.93  19 2.93  26 2.93
  11  0.444  0.111  0.315-  21 2.89  20 2.89  27 2.93  14 2.93  17 2.93  18 2.93   3 2.93  12 2.93
                            13 2.93  10 2.93   5 2.93   2 2.93
  12  0.778  0.111  0.315-  21 2.89  10 2.93  16 2.93  18 2.93  15 2.93  11 2.93   1 2.93  14 2.93
                             6 2.93   3 2.93  25 2.93  19 2.93
  13  0.111  0.444  0.315-  20 2.89  23 2.89  22 2.93  15 2.93  14 2.93  18 2.93  10 2.93  11 2.93
                            16 2.93   4 2.93   5 2.93   7 2.93
  14  0.444  0.444  0.315-  23 2.89  21 2.89  24 2.93  13 2.93  11 2.93  16 2.93   5 2.93  12 2.93
                            17 2.93   8 2.93  15 2.93   6 2.93
  15  0.778  0.444  0.315-  24 2.92  22 2.92  19 2.93  13 2.93  10 2.93  12 2.93  17 2.93  18 2.93
                             4 2.93   6 2.93   9 2.93  14 2.93
  16  0.111  0.778  0.315-  23 2.89  18 2.93  12 2.93  10 2.93  14 2.93  17 2.93  13 2.93   7 2.93
                             8 2.93   1 2.93  26 2.93  25 2.93
  17  0.444  0.778  0.315-  27 2.92  24 2.92  26 2.93  11 2.93  10 2.93   9 2.93  18 2.93  15 2.93
                            16 2.93   2 2.93  14 2.93   8 2.93
  18  0.778  0.778  0.315-  22 2.92  27 2.92  25 2.93  16 2.93  12 2.93  13 2.93  11 2.93  17 2.93
                            15 2.93   7 2.93   3 2.93   9 2.93
  19  0.889  0.223  0.413-  28 2.91  24 2.93  22 2.93  15 2.93  20 2.93  21 2.93  10 2.93  12 2.93
                            26 2.94  25 2.94  32 2.97  31 2.97
  20  0.222  0.222  0.411-  36 2.76  10 2.89  13 2.89  11 2.89  19 2.93  26 2.93  21 2.93  23 2.93
                            27 2.94  22 2.94  31 2.94  29 2.94
  21  0.556  0.222  0.411-  36 2.76  12 2.89  11 2.89  14 2.89  25 2.93  19 2.93  20 2.93  23 2.93
                            27 2.94  24 2.94  30 2.94  32 2.94
  22  0.888  0.556  0.413-  35 2.91  24 2.92  27 2.92  18 2.92  15 2.92  13 2.93  25 2.93  19 2.93
                            23 2.94  20 2.94  33 2.95  31 2.95
  23  0.222  0.556  0.411-  36 2.76  16 2.89  14 2.89  13 2.89  26 2.93  25 2.93  21 2.93  20 2.93
                            22 2.94  24 2.94  34 2.94  33 2.94
  24  0.556  0.556  0.413-  35 2.91  27 2.92  22 2.92  15 2.92  17 2.92  14 2.93  19 2.93  26 2.93
                            23 2.94  21 2.94  32 2.95  34 2.95
  25  0.889  0.889  0.413-  28 2.91  22 2.93  27 2.93  18 2.93  23 2.93  21 2.93  16 2.93  12 2.93
                            26 2.94  19 2.94  33 2.97  30 2.97
  26  0.223  0.889  0.413-  28 2.91  27 2.93  24 2.93  17 2.93  23 2.93  20 2.93  16 2.93  10 2.93
                            25 2.94  19 2.94  34 2.97  29 2.97
  27  0.556  0.888  0.413-  35 2.91  24 2.92  22 2.92  17 2.92  18 2.92  11 2.93  26 2.93  25 2.93
                            20 2.94  21 2.94  29 2.95  30 2.95
  28  0.000  0.000  0.510-  26 2.91  25 2.91  19 2.91  29 2.96  34 2.96  33 2.96  32 2.96  31 2.96
                            30 2.96
  29  0.333  0.008  0.512-  31 2.86  30 2.87  36 2.88  20 2.94  27 2.95  28 2.96  26 2.97  35 2.97
                            34 3.06
  30  0.659  0.008  0.512-  32 2.86  29 2.87  36 2.88  21 2.94  27 2.95  28 2.96  25 2.97  35 2.97
                            33 3.06
  31  0.008  0.333  0.512-  29 2.86  33 2.87  36 2.88  20 2.94  22 2.95  28 2.96  19 2.97  35 2.97
                            32 3.06
  32  0.659  0.333  0.512-  30 2.86  34 2.87  36 2.88  21 2.94  24 2.95  28 2.96  19 2.97  35 2.97
                            31 3.06
  33  0.008  0.659  0.512-  34 2.86  31 2.87  36 2.88  23 2.94  22 2.95  28 2.96  25 2.97  35 2.97
                            30 3.06
  34  0.333  0.659  0.512-  33 2.86  32 2.87  36 2.88  23 2.94  24 2.95  28 2.96  26 2.97  35 2.97
                            29 3.06
  35  0.667  0.667  0.510-  24 2.91  27 2.91  22 2.91  30 2.97  32 2.97  29 2.97  34 2.97  31 2.97
                            33 2.97
  36  0.333  0.333  0.501-  37 1.76  21 2.76  20 2.76  23 2.76  31 2.88  30 2.88  33 2.88  29 2.88
                            34 2.88  32 2.88
  37  0.333  0.333  0.573-  36 1.76
 
  LATTYP: Found a hexagonal cell.
 ALAT       =     8.7913665772
 C/A-ratio  =     2.7711238095
  
  Lattice vectors:
  
 A1 = (  -4.3956832886,  -7.6135467898,   0.0000000000)
 A2 = (   8.7913665771,   0.0000000000,   0.0000000000)
 A3 = (   0.0000000000,   0.0000000000,  24.3619652401)


Analysis of symmetry for initial positions (statically):
=====================================================================
 Subroutine PRICEL returns:
 Original cell was already a primitive cell.
 

 Routine SETGRP: Setting up the symmetry group for a 
 hexagonal supercell.


 Subroutine GETGRP returns: Found  6 space group operations
 (whereof  6 operations were pure point group operations)
 out of a pool of 24 trial point group operations.


The static configuration has the point symmetry C_3v.


Analysis of symmetry for dynamics (positions and initial velocities):
=====================================================================
 Subroutine PRICEL returns:
 Original cell was already a primitive cell.
 

 Routine SETGRP: Setting up the symmetry group for a 
 hexagonal supercell.


 Subroutine GETGRP returns: Found  6 space group operations
 (whereof  6 operations were pure point group operations)
 out of a pool of 24 trial point group operations.


The dynamic configuration has the point symmetry C_3v.


Analysis of constrained symmetry for selective dynamics:
=====================================================================
 Subroutine PRICEL returns:
 Original cell was already a primitive cell.
 

 Routine SETGRP: Setting up the symmetry group for a 
 hexagonal supercell.


 Subroutine GETGRP returns: Found  6 space group operations
 (whereof  6 operations were pure point group operations)
 out of a pool of 24 trial point group operations.


The constrained configuration has the point symmetry C_3v.


 Subroutine INISYM returns: Found  6 space group operations
 (whereof  6 operations are pure point group operations),
 and found     1 'primitive' translations


----------------------------------------------------------------------------------------

                                     Primitive cell                                     

  volume of cell :    1630.6311

  direct lattice vectors                    reciprocal lattice vectors
     8.791366577  0.000000000  0.000000000     0.113747958 -0.065672414  0.000000000
     4.395683289  7.613546790  0.000000000     0.000000000  0.131344829  0.000000000
     0.000000000  0.000000000 24.361965240     0.000000000  0.000000000  0.041047592

  length of vectors
     8.791366577  8.791366577 24.361965240     0.131344829  0.131344829  0.041047592

  position of ions in fractional coordinates (direct lattice)
     0.000000000  0.000000000  0.216821102
     0.333333313  0.000000000  0.216821102
     0.666666627  0.000000000  0.216821102
     1.000000000  0.333333343  0.216821102
     0.333333313  0.333333343  0.216821102
     0.666666687  0.333333343  0.216821102
     1.000000000  0.666666687  0.216821102
     0.333333313  0.666666687  0.216821102
     0.666666627  0.666666687  0.216821102
     0.111111104  0.111111112  0.315035970
     0.444444448  0.111111112  0.315035970
     0.777777791  0.111111112  0.315035970
     0.111111097  0.444444448  0.315035970
     0.444444418  0.444444448  0.315035970
     0.777777791  0.444444448  0.315035970
     0.111111104  0.777777791  0.315035970
     0.444444448  0.777777791  0.315035970
     0.777777791  0.777777791  0.315035970
     0.888537475  0.222925067  0.413256346
     0.222149514  0.222149529  0.411344522
     0.555700912  0.222149529  0.411344522
     0.887981608  0.556009226  0.412814030
     0.222149529  0.555700972  0.411344522
     0.556009226  0.556009226  0.412814030
     0.888537475  0.888537475  0.413256346
     0.222925037  0.888537475  0.413256346
     0.556009166  0.887981608  0.412814030
     0.000000000  0.000000000  0.510238131
     0.333030248  0.007722346  0.511630864
     0.659247346  0.007722346  0.511630864
     0.007722346  0.333030278  0.511630864
     0.659247406  0.333030278  0.511630864
     0.007722346  0.659247406  0.511630864
     0.333030248  0.659247406  0.511630864
     0.666666627  0.666666687  0.510037810
     0.333333313  0.333333343  0.500730774
     0.333333313  0.333333343  0.572813313

  ion indices of the primitive-cell ions
   primitive index   ion index
                 1           1
                 2           2
                 3           3
                 4           4
                 5           5
                 6           6
                 7           7
                 8           8
                 9           9
                10          10
                11          11
                12          12
                13          13
                14          14
                15          15
                16          16
                17          17
                18          18
                19          19
                20          20
                21          21
                22          22
                23          23
                24          24
                25          25
                26          26
                27          27
                28          28
                29          29
                30          30
                31          31
                32          32
                33          33
                34          34
                35          35
                36          36
                37          37

----------------------------------------------------------------------------------------

 
 
 KPOINTS: Automatic mesh                          

Automatic generation of k-mesh.
 Grid dimensions read from file:
 generate k-points for:    8    8    1

 Generating k-lattice:

  Cartesian coordinates                     Fractional coordinates (reciprocal lattice)
     0.014218495 -0.008209052  0.000000000     0.125000000 -0.000000000  0.000000000
     0.000000000  0.016418104  0.000000000     0.000000000  0.125000000  0.000000000
     0.000000000  0.000000000  0.041047592     0.000000000  0.000000000  1.000000000

  Length of vectors
     0.016418104  0.016418104  0.041047592

  Shift w.r.t. Gamma in fractional coordinates (k-lattice)
     0.000000000  0.000000000  0.000000000

 TETIRR: Found     36 inequivalent tetrahedra from      384
 
 Subroutine IBZKPT returns following result:
 ===========================================
 
 Found     10 irreducible k-points:
 
 Following reciprocal coordinates:
            Coordinates               Weight
  0.000000  0.000000  0.000000      1.000000
  0.125000  0.000000  0.000000      6.000000
  0.250000  0.000000  0.000000      6.000000
  0.375000 -0.000000  0.000000      6.000000
  0.500000  0.000000  0.000000      3.000000
  0.250000  0.125000  0.000000      6.000000
  0.375000  0.125000  0.000000     12.000000
  0.500000  0.125000  0.000000     12.000000
  0.500000  0.250000  0.000000      6.000000
 -0.375000  0.250000  0.000000      6.000000
 
 Following cartesian coordinates:
            Coordinates               Weight
  0.000000  0.000000  0.000000      1.000000
  0.014218 -0.008209  0.000000      6.000000
  0.028437 -0.016418  0.000000      6.000000
  0.042655 -0.024627  0.000000      6.000000
  0.056874 -0.032836  0.000000      3.000000
  0.028437 -0.000000  0.000000      6.000000
  0.042655 -0.008209  0.000000     12.000000
  0.056874 -0.016418  0.000000     12.000000
  0.056874 -0.000000  0.000000      6.000000
 -0.042655  0.057463  0.000000      6.000000
 


--------------------------------------------------------------------------------------------------------




 Dimension of arrays:
   k-points           NKPTS =     10   k-points in BZ     NKDIM =     10   number of bands    NBANDS=    252
   number of dos      NEDOS =    301   number of ions     NIONS =     37
   non local maximal  LDIM  =      6   non local SUM 2l+1 LMDIM =     18
   total plane-waves  NPLWV = 322560
   max r-space proj   IRMAX =   3221   max aug-charges    IRDMAX=  11634
   dimension x,y,z NGX =    48 NGY =   48 NGZ =  140
   dimension x,y,z NGXF=    96 NGYF=   96 NGZF=  280
   support grid    NGXF=    96 NGYF=   96 NGZF=  280
   ions per type =              35   1   1
   NGX,Y,Z   is equivalent  to a cutoff of   9.08,  9.08,  9.55 a.u.
   NGXF,Y,Z  is equivalent  to a cutoff of  18.15, 18.15, 19.11 a.u.

 SYSTEM =  unknown system                          
 POSCAR =  Ag-Re-C                                 

 Startparameter for this run:
   NWRITE =      2    write-flag & timer
   PREC   = normal    normal or accurate (medium, high low for compatibility)
   ISTART =      0    job   : 0-new  1-cont  2-samecut
   ICHARG =     11    charge: 1-file 2-atom 10-const
   ISPIN  =      1    spin polarized calculation?
   LNONCOLLINEAR =      F non collinear calculations
   LSORBIT =      F    spin-orbit coupling
   INIWAV =      1    electr: 0-lowe 1-rand  2-diag
   LASPH  =      F    aspherical Exc in radial PAW
   METAGGA=      F    non-selfconsistent MetaGGA calc.

 Electronic Relaxation 1
   ENCUT  =  500.0 eV  36.75 Ry    6.06 a.u.  16.03 16.03 44.42*2*pi/ulx,y,z
   ENINI  =  500.0     initial cutoff
   ENAUG  =  644.9 eV  augmentation charge cutoff
   NELM   =    150;   NELMIN=  2; NELMDL= -5     # of ELM steps 
   EDIFF  = 0.1E-04   stopping-criterion for ELM
   LREAL  =      T    real-space projection
   NLSPLINE    = F    spline interpolate recip. space projectors
   LCOMPAT=      F    compatible to vasp.4.4
   GGA_COMPAT  = T    GGA compatible to vasp.4.4-vasp.4.6
   LMAXPAW     = -100 max onsite density
   LMAXMIX     =    2 max onsite mixed and CHGCAR
   VOSKOWN=      0    Vosko Wilk Nusair interpolation
   ROPT   =   -0.00050  -0.00050  -0.00050
 Ionic relaxation
   EDIFFG = -.1E-01   stopping-criterion for IOM
   NSW    =      0    number of steps for IOM
   NBLOCK =      1;   KBLOCK =      1    inner block; outer block 
   IBRION =     -1    ionic relax: 0-MD 1-quasi-New 2-CG
   NFREE  =      1    steps in history (QN), initial steepest desc. (CG)
   ISIF   =      2    stress and relaxation
   IWAVPR =     10    prediction:  0-non 1-charg 2-wave 3-comb
   ISYM   =      2    0-nonsym 1-usesym 2-fastsym
   LCORR  =      T    Harris-Foulkes like correction to forces

   POTIM  = 0.5000    time-step for ionic-motion
   TEIN   =    0.0    initial temperature
   TEBEG  =    0.0;   TEEND  =   0.0 temperature during run
   SMASS  =  -3.00    Nose mass-parameter (am)
   estimated Nose-frequenzy (Omega)   =  0.10E-29 period in steps = 0.13E+47 mass=  -0.177E-26a.u.
   SCALEE = 1.0000    scale energy and forces
   NPACO  =    256;   APACO  = 16.0  distance and # of slots for P.C.
   PSTRESS=    0.0 pullay stress

  Mass of Ions in am
   POMASS = 107.87186.21 12.01
  Ionic Valenz
   ZVAL   =  11.00  7.00  4.00
  Atomic Wigner-Seitz radii
   RWIGS  =  -1.00 -1.00 -1.00
  virtual crystal weights 
   VCA    =   1.00  1.00  1.00
   NELECT =     396.0000    total number of electrons
   NUPDOWN=      -1.0000    fix difference up-down

 DOS related values:
   EMIN   =  10.00;   EMAX   =-10.00  energy-range for DOS
   EFERMI =   0.00
   ISMEAR =    -5;   SIGMA  =   0.10  broadening in eV -4-tet -1-fermi 0-gaus

 Electronic relaxation 2 (details)
   IALGO  =     68    algorithm
   LDIAG  =      T    sub-space diagonalisation (order eigenvalues)
   LSUBROT=      F    optimize rotation matrix (better conditioning)
   TURBO    =      0    0=normal 1=particle mesh
   IRESTART =      0    0=no restart 2=restart with 2 vectors
   NREBOOT  =      0    no. of reboots
   NMIN     =      0    reboot dimension
   EREF     =   0.00    reference energy to select bands
   IMIX   =      4    mixing-type and parameters
     AMIX     =   0.40;   BMIX     =  1.00
     AMIX_MAG =   1.60;   BMIX_MAG =  1.00
     AMIN     =   0.10
     WC   =   100.;   INIMIX=   1;  MIXPRE=   1;  MAXMIX= -45

 Intra band minimization:
   WEIMIN = 0.0000     energy-eigenvalue tresh-hold
   EBREAK =  0.99E-08  absolut break condition
   DEPER  =   0.30     relativ break condition  

   TIME   =   0.40     timestep for ELM

  volume/ion in A,a.u.               =      44.07       297.41
  Fermi-wavevector in a.u.,A,eV,Ry     =   1.021381  1.930131 14.193872  1.043220
  Thomas-Fermi vector in A             =   2.155003
 
 Write flags
   LWAVE        =      F    write WAVECAR
   LDOWNSAMPLE  =      F    k-point downsampling of WAVECAR
   LCHARG       =      F    write CHGCAR
   LVTOT        =      F    write LOCPOT, total local potential
   LVHAR        =      F    write LOCPOT, Hartree potential only
   LELF         =      F    write electronic localiz. function (ELF)
   LORBIT       =     10    0 simple, 1 ext, 2 COOP (PROOUT), +10 PAW based schemes


 Dipole corrections
   LMONO  =      F    monopole corrections only (constant potential shift)
   LDIPOL =      F    correct potential (dipole corrections)
   IDIPOL =      0    1-x, 2-y, 3-z, 4-all directions 
   EPSILON=  1.0000000 bulk dielectric constant

 Exchange correlation treatment:
   GGA     =    --    GGA type
   LEXCH   =     8    internal setting for exchange type
   VOSKOWN=      0    Vosko Wilk Nusair interpolation
   LHFCALC =     F    Hartree Fock is set to
   LHFONE  =     F    Hartree Fock one center treatment
   AEXX    =    0.0000 exact exchange contribution

 Linear response parameters
   LEPSILON=     F    determine dielectric tensor
   LRPA    =     F    only Hartree local field effects (RPA)
   LNABLA  =     F    use nabla operator in PAW spheres
   LVEL    =     F    velocity operator in full k-point grid
   LINTERFAST=   F  fast interpolation
   KINTER  =     0    interpolate to denser k-point grid
   CSHIFT  =0.1000    complex shift for real part using Kramers Kronig
   OMEGAMAX=  -1.0    maximum frequency
   DEG_THRESHOLD= 0.2000000E-02 threshold for treating states as degnerate
   RTIME   =   -0.100 relaxation time in fs
  (WPLASMAI=    0.000 imaginary part of plasma frequency in eV, 0.658/RTIME)
   DFIELD  = 0.0000000 0.0000000 0.0000000 field for delta impulse in time
 
 Orbital magnetization related:
   ORBITALMAG=     F  switch on orbital magnetization
   LCHIMAG   =     F  perturbation theory with respect to B field
   DQ        =  0.001000  dq finite difference perturbation B field
   LLRAUG    =     F  two centre corrections for induced B field



--------------------------------------------------------------------------------------------------------


 Static calculation
 charge density and potential remain constant during run
 non-spin polarized calculation
 RMM-DIIS sequential band-by-band and
  variant of blocked Davidson during initial phase
 perform sub-space diagonalisation
    before iterative eigenvector-optimisation
 no mixing
 using additional bands           54
 real space projection scheme for non local part
 use partial core corrections
 calculate Harris-corrections to forces 
   (improved forces if not selfconsistent)
 use gradient corrections 
 WARNING: stress and forces are not correct
  (second derivative of E(xc) not defined)
 use of overlap-Matrix (Vanderbilt PP)
 Fermi weights with tetrahedron method with Bloechl corrections


--------------------------------------------------------------------------------------------------------


  energy-cutoff  :      500.00
  volume of cell :     1630.63
      direct lattice vectors                 reciprocal lattice vectors
     8.791366577  0.000000000  0.000000000     0.113747958 -0.065672414  0.000000000
     4.395683289  7.613546790  0.000000000     0.000000000  0.131344829  0.000000000
     0.000000000  0.000000000 24.361965240     0.000000000  0.000000000  0.041047592

  length of vectors
     8.791366577  8.791366577 24.361965240     0.131344829  0.131344829  0.041047592


 
 k-points in units of 2pi/SCALE and weight: Automatic mesh                          
   0.00000000  0.00000000  0.00000000       0.016
   0.01421849 -0.00820905  0.00000000       0.094
   0.02843699 -0.01641810  0.00000000       0.094
   0.04265548 -0.02462716  0.00000000       0.094
   0.05687398 -0.03283621  0.00000000       0.047
   0.02843699 -0.00000000  0.00000000       0.094
   0.04265548 -0.00820905  0.00000000       0.188
   0.05687398 -0.01641810  0.00000000       0.188
   0.05687398 -0.00000000  0.00000000       0.094
  -0.04265548  0.05746336  0.00000000       0.094
 
 k-points in reciprocal lattice and weights: Automatic mesh                          
   0.00000000  0.00000000  0.00000000       0.016
   0.12500000  0.00000000  0.00000000       0.094
   0.25000000  0.00000000  0.00000000       0.094
   0.37500000 -0.00000000  0.00000000       0.094
   0.50000000  0.00000000  0.00000000       0.047
   0.25000000  0.12500000  0.00000000       0.094
   0.37500000  0.12500000  0.00000000       0.188
   0.50000000  0.12500000  0.00000000       0.188
   0.50000000  0.25000000  0.00000000       0.094
  -0.37500000  0.25000000  0.00000000       0.094
 
 position of ions in fractional coordinates (direct lattice) 
   0.00000000  0.00000000  0.21682110
   0.33333331  0.00000000  0.21682110
   0.66666663  0.00000000  0.21682110
   0.00000000  0.33333334  0.21682110
   0.33333331  0.33333334  0.21682110
   0.66666669  0.33333334  0.21682110
   0.00000000  0.66666669  0.21682110
   0.33333331  0.66666669  0.21682110
   0.66666663  0.66666669  0.21682110
   0.11111110  0.11111111  0.31503597
   0.44444445  0.11111111  0.31503597
   0.77777779  0.11111111  0.31503597
   0.11111110  0.44444445  0.31503597
   0.44444442  0.44444445  0.31503597
   0.77777779  0.44444445  0.31503597
   0.11111110  0.77777779  0.31503597
   0.44444445  0.77777779  0.31503597
   0.77777779  0.77777779  0.31503597
   0.88853747  0.22292507  0.41325635
   0.22214951  0.22214953  0.41134452
   0.55570091  0.22214953  0.41134452
   0.88798161  0.55600923  0.41281403
   0.22214953  0.55570097  0.41134452
   0.55600923  0.55600923  0.41281403
   0.88853747  0.88853747  0.41325635
   0.22292504  0.88853747  0.41325635
   0.55600917  0.88798161  0.41281403
   0.00000000  0.00000000  0.51023813
   0.33303025  0.00772235  0.51163086
   0.65924735  0.00772235  0.51163086
   0.00772235  0.33303028  0.51163086
   0.65924741  0.33303028  0.51163086
   0.00772235  0.65924741  0.51163086
   0.33303025  0.65924741  0.51163086
   0.66666663  0.66666669  0.51003781
   0.33333331  0.33333334  0.50073077
   0.33333331  0.33333334  0.57281331
 
 position of ions in cartesian coordinates  (Angst):
   0.00000000  0.00000000  5.28218814
   2.93045535  0.00000000  5.28218814
   5.86091070  0.00000000  5.28218814
   1.46522781  2.53784900  5.28218814
   4.39568315  2.53784900  5.28218814
   7.32613904  2.53784900  5.28218814
   2.93045562  5.07569801  5.28218814
   5.86091096  5.07569801  5.28218814
   8.79136632  5.07569801  5.28218814
   1.46522770  0.84594965  7.67489535
   4.39568332  0.84594965  7.67489535
   7.32613893  0.84594965  7.67489535
   2.93045542  3.38379860  7.67489535
   5.86091083  3.38379860  7.67489535
   8.79136671  3.38379860  7.67489535
   4.39568328  5.92164760  7.67489535
   7.32613890  5.92164760  7.67489535
  10.25659451  5.92164760  7.67489535
   8.79136665  1.69725042 10.06773673
   2.92949678  1.69134583 10.02116094
   5.86186940  1.69134583 10.02116094
  10.25061229  4.23320226 10.05696105
   4.39568342  4.23085535 10.02116094
   7.33212139  4.23320226 10.05696105
  11.71718799  6.76492164 10.06773673
   5.86554504  6.76492164 10.06773673
   8.79136631  6.76068952 10.05696105
   0.00000000  0.00000000 12.43040361
   2.96173598  0.05879444 12.46433333
   5.82963007  0.05879444 12.46433333
   1.53178560  2.53554161 12.46433333
   7.25958124  2.53554161 12.46433333
   2.96573278  5.01921097 12.46433333
   5.82563380  5.01921097 12.46433333
   8.79136632  5.07569801 12.42552341
   4.39568315  2.53784900 12.19878570
   4.39568315  2.53784900 13.95485801
 


--------------------------------------------------------------------------------------------------------


 k-point   1 :   0.0000 0.0000 0.0000  plane waves:   41267
 k-point   2 :   0.1250 0.0000 0.0000  plane waves:   41346
 k-point   3 :   0.2500 0.0000 0.0000  plane waves:   41360
 k-point   4 :   0.3750-0.0000 0.0000  plane waves:   41412
 k-point   5 :   0.5000 0.0000 0.0000  plane waves:   41412
 k-point   6 :   0.2500 0.1250 0.0000  plane waves:   41336
 k-point   7 :   0.3750 0.1250 0.0000  plane waves:   41420
 k-point   8 :   0.5000 0.1250 0.0000  plane waves:   41406
 k-point   9 :   0.5000 0.2500 0.0000  plane waves:   41444
 k-point  10 :  -0.3750 0.2500 0.0000  plane waves:   41438

 maximum and minimum number of plane-waves per node :     41444    41267

 maximum number of plane-waves:     41444
 maximum index in each direction: 
   IXMAX=   16   IYMAX=   16   IZMAX=   44
   IXMIN=  -16   IYMIN=  -16   IZMIN=  -44


 serial   3D FFT for wavefunctions
 parallel 3D FFT for charge:
    minimum data exchange during FFTs selected (reduces bandwidth)


 total amount of memory used by VASP MPI-rank0   131580. kBytes
=======================================================================

   base      :      30000. kBytes
   nonlr-proj:      15659. kBytes
   fftplans  :       4808. kBytes
   grid      :      19857. kBytes
   one-center:        575. kBytes
   wavefun   :      60681. kBytes
 
     INWAV:  cpu time    0.0000: real time    0.0000
 initial charge density was supplied:
 number of electron     396.0000077 magnetization 
 keeping initial charge density in first step


--------------------------------------------------------------------------------------------------------


 Maximum index for non-local projection operator         3072
 Maximum index for augmentation-charges          712 (set IRDMAX)


--------------------------------------------------------------------------------------------------------


 First call to EWALD:  gamma=   0.151
 Maximum number of real-space cells 4x 4x 2
 Maximum number of reciprocal cells 2x 2x 5

    FEWALD:  cpu time    0.0013: real time    0.0013


--------------------------------------- Iteration      1(   1)  ---------------------------------------


    POTLOK:  cpu time    0.0509: real time    0.0512
    SETDIJ:  cpu time    0.0047: real time    0.0048
     EDDAV:  cpu time   10.8491: real time   10.8507
 BZINTS: Fermi energy:    6.839783;  396.000000 electrons
         Band energy: 0.541685E+03;  BLOECHL correction:   -0.029355
       DOS:  cpu time    0.0098: real time    0.0126
    --------------------------------------------
      LOOP:  cpu time   10.9145: real time   10.9194

 eigenvalue-minimisations  :  7560
 total energy-change (2. order) : 0.1945395E+04  (-0.1855983E+05)
 number of electron     396.0000077 magnetization 
 augmentation part      396.0000077 magnetization 

 Free energy of the ion-electron system (eV)
  ---------------------------------------------------
  alpha Z        PSCENC =       695.08469709
  Ewald energy   TEWEN  =    129784.56423138
  -Hartree energ DENC   =   -166998.48517243
  -exchange      EXHF   =         0.00000000
  -V(xc)+E(xc)   XCENC  =      -423.29770472
  PAW double counting   =     39442.00106129   -37847.14302457
  entropy T*S    EENTRO =         0.00000000
  eigenvalues    EBANDS =       541.68490374
  atomic energy  EATOM  =     36750.98587454
  Solvation  Ediel_sol  =         0.00000000
  ---------------------------------------------------
  free energy    TOTEN  =      1945.39486634 eV

  energy without entropy =     1945.39486634  energy(sigma->0) =     1945.39486634


--------------------------------------------------------------------------------------------------------




--------------------------------------- Iteration      1(   2)  ---------------------------------------


     EDDAV:  cpu time   10.5629: real time   10.5634
 BZINTS: Fermi energy:    0.594545;  396.000000 electrons
         Band energy:-0.147288E+04;  BLOECHL correction:   -0.051019
       DOS:  cpu time    0.0096: real time    0.0096
    --------------------------------------------
      LOOP:  cpu time   10.5725: real time   10.5730

 eigenvalue-minimisations  :  7336
 total energy-change (2. order) :-0.2014565E+04  (-0.1973586E+04)
 number of electron     396.0000077 magnetization 
 augmentation part      396.0000077 magnetization 

 Free energy of the ion-electron system (eV)
  ---------------------------------------------------
  alpha Z        PSCENC =       695.08469709
  Ewald energy   TEWEN  =    129784.56423138
  -Hartree energ DENC   =   -166998.48517243
  -exchange      EXHF   =         0.00000000
  -V(xc)+E(xc)   XCENC  =      -423.29770472
  PAW double counting   =     39442.00106129   -37847.14302457
  entropy T*S    EENTRO =         0.00000000
  eigenvalues    EBANDS =     -1472.88000901
  atomic energy  EATOM  =     36750.98587454
  Solvation  Ediel_sol  =         0.00000000
  ---------------------------------------------------
  free energy    TOTEN  =       -69.17004641 eV

  energy without entropy =      -69.17004641  energy(sigma->0) =      -69.17004641


--------------------------------------------------------------------------------------------------------




--------------------------------------- Iteration      1(   3)  ---------------------------------------


     EDDAV:  cpu time   10.2454: real time   10.2457
 BZINTS: Fermi energy:    0.266924;  396.000000 electrons
         Band energy:-0.150884E+04;  BLOECHL correction:   -0.032184
       DOS:  cpu time    0.0099: real time    0.0099
    --------------------------------------------
      LOOP:  cpu time   10.2554: real time   10.2556

 eigenvalue-minimisations  :  7056
 total energy-change (2. order) :-0.3596286E+02  (-0.3538472E+02)
 number of electron     396.0000077 magnetization 
 augmentation part      396.0000077 magnetization 

 Free energy of the ion-electron system (eV)
  ---------------------------------------------------
  alpha Z        PSCENC =       695.08469709
  Ewald energy   TEWEN  =    129784.56423138
  -Hartree energ DENC   =   -166998.48517243
  -exchange      EXHF   =         0.00000000
  -V(xc)+E(xc)   XCENC  =      -423.29770472
  PAW double counting   =     39442.00106129   -37847.14302457
  entropy T*S    EENTRO =         0.00000000
  eigenvalues    EBANDS =     -1508.84287064
  atomic energy  EATOM  =     36750.98587454
  Solvation  Ediel_sol  =         0.00000000
  ---------------------------------------------------
  free energy    TOTEN  =      -105.13290805 eV

  energy without entropy =     -105.13290805  energy(sigma->0) =     -105.13290805


--------------------------------------------------------------------------------------------------------




--------------------------------------- Iteration      1(   4)  ---------------------------------------


     EDDAV:  cpu time    8.7068: real time    8.7071
 BZINTS: Fermi energy:    0.260959;  396.000000 electrons
         Band energy:-0.150933E+04;  BLOECHL correction:   -0.032210
       DOS:  cpu time    0.0099: real time    0.0099
    --------------------------------------------
      LOOP:  cpu time    8.7167: real time    8.7170

 eigenvalue-minimisations  :  5796
 total energy-change (2. order) :-0.4870219E+00  (-0.4859246E+00)
 number of electron     396.0000077 magnetization 
 augmentation part      396.0000077 magnetization 

 Free energy of the ion-electron system (eV)
  ---------------------------------------------------
  alpha Z        PSCENC =       695.08469709
  Ewald energy   TEWEN  =    129784.56423138
  -Hartree energ DENC   =   -166998.48517243
  -exchange      EXHF   =         0.00000000
  -V(xc)+E(xc)   XCENC  =      -423.29770472
  PAW double counting   =     39442.00106129   -37847.14302457
  entropy T*S    EENTRO =         0.00000000
  eigenvalues    EBANDS =     -1509.32989258
  atomic energy  EATOM  =     36750.98587454
  Solvation  Ediel_sol  =         0.00000000
  ---------------------------------------------------
  free energy    TOTEN  =      -105.61992999 eV

  energy without entropy =     -105.61992999  energy(sigma->0) =     -105.61992999


--------------------------------------------------------------------------------------------------------




--------------------------------------- Iteration      1(   5)  ---------------------------------------


     EDDAV:  cpu time   10.8879: real time   10.8881
 BZINTS: Fermi energy:    0.260802;  396.000000 electrons
         Band energy:-0.150935E+04;  BLOECHL correction:   -0.032213
       DOS:  cpu time    0.0099: real time    0.0099
    --------------------------------------------
      LOOP:  cpu time   10.8978: real time   10.8980

 eigenvalue-minimisations  :  7532
 total energy-change (2. order) :-0.2317444E-01  (-0.2316910E-01)
 number of electron     396.0000077 magnetization 
 augmentation part      396.0000077 magnetization 

 Free energy of the ion-electron system (eV)
  ---------------------------------------------------
  alpha Z        PSCENC =       695.08469709
  Ewald energy   TEWEN  =    129784.56423138
  -Hartree energ DENC   =   -166998.48517243
  -exchange      EXHF   =         0.00000000
  -V(xc)+E(xc)   XCENC  =      -423.29770472
  PAW double counting   =     39442.00106129   -37847.14302457
  entropy T*S    EENTRO =         0.00000000
  eigenvalues    EBANDS =     -1509.35306703
  atomic energy  EATOM  =     36750.98587454
  Solvation  Ediel_sol  =         0.00000000
  ---------------------------------------------------
  free energy    TOTEN  =      -105.64310443 eV

  energy without entropy =     -105.64310443  energy(sigma->0) =     -105.64310443


--------------------------------------------------------------------------------------------------------




--------------------------------------- Iteration      1(   6)  ---------------------------------------


    EDDIAG:  cpu time    1.5337: real time    1.5340
  RMM-DIIS:  cpu time    5.2679: real time    5.2680
    ORTHCH:  cpu time    0.2794: real time    0.2794
 BZINTS: Fermi energy:    0.260799;  396.000000 electrons
         Band energy:-0.150935E+04;  BLOECHL correction:   -0.032214
       DOS:  cpu time    0.0099: real time    0.0099
    --------------------------------------------
      LOOP:  cpu time    7.0909: real time    7.0912

 eigenvalue-minimisations  :  6022
 total energy-change (2. order) :-0.4435660E-03  (-0.4435826E-03)
 number of electron     396.0000077 magnetization 
 augmentation part      396.0000077 magnetization 

 Free energy of the ion-electron system (eV)
  ---------------------------------------------------
  alpha Z        PSCENC =       695.08469709
  Ewald energy   TEWEN  =    129784.56423138
  -Hartree energ DENC   =   -166998.48517243
  -exchange      EXHF   =         0.00000000
  -V(xc)+E(xc)   XCENC  =      -423.29770472
  PAW double counting   =     39442.00106129   -37847.14302457
  entropy T*S    EENTRO =         0.00000000
  eigenvalues    EBANDS =     -1509.35351059
  atomic energy  EATOM  =     36750.98587454
  Solvation  Ediel_sol  =         0.00000000
  ---------------------------------------------------
  free energy    TOTEN  =      -105.64354800 eV

  energy without entropy =     -105.64354800  energy(sigma->0) =     -105.64354800


--------------------------------------------------------------------------------------------------------




--------------------------------------- Iteration      1(   7)  ---------------------------------------


    EDDIAG:  cpu time    1.5331: real time    1.5332
  RMM-DIIS:  cpu time    6.5551: real time    6.5552
    ORTHCH:  cpu time    0.2793: real time    0.2793
 BZINTS: Fermi energy:    0.260798;  396.000000 electrons
         Band energy:-0.150935E+04;  BLOECHL correction:   -0.032214
       DOS:  cpu time    0.0097: real time    0.0097
    --------------------------------------------
      LOOP:  cpu time    8.3772: real time    8.3774

 eigenvalue-minimisations  :  7324
 total energy-change (2. order) :-0.1447096E-03  (-0.1431465E-03)
 number of electron     396.0000077 magnetization 
 augmentation part      396.0000077 magnetization 

 Free energy of the ion-electron system (eV)
  ---------------------------------------------------
  alpha Z        PSCENC =       695.08469709
  Ewald energy   TEWEN  =    129784.56423138
  -Hartree energ DENC   =   -166998.48517243
  -exchange      EXHF   =         0.00000000
  -V(xc)+E(xc)   XCENC  =      -423.29770472
  PAW double counting   =     39442.00106129   -37847.14302457
  entropy T*S    EENTRO =         0.00000000
  eigenvalues    EBANDS =     -1509.35365530
  atomic energy  EATOM  =     36750.98587454
  Solvation  Ediel_sol  =         0.00000000
  ---------------------------------------------------
  free energy    TOTEN  =      -105.64369271 eV

  energy without entropy =     -105.64369271  energy(sigma->0) =     -105.64369271


--------------------------------------------------------------------------------------------------------




--------------------------------------- Iteration      1(   8)  ---------------------------------------


    EDDIAG:  cpu time    1.5338: real time    1.5339
  RMM-DIIS:  cpu time    6.2061: real time    6.2061
    ORTHCH:  cpu time    0.2791: real time    0.2791
 BZINTS: Fermi energy:    0.260798;  396.000000 electrons
         Band energy:-0.150935E+04;  BLOECHL correction:   -0.032214
       DOS:  cpu time    0.0099: real time    0.0099
    --------------------------------------------
      LOOP:  cpu time    8.0288: real time    8.0290

 eigenvalue-minimisations  :  6766
 total energy-change (2. order) :-0.3386859E-04  (-0.3345729E-04)
 number of electron     396.0000077 magnetization 
 augmentation part      396.0000077 magnetization 

 Free energy of the ion-electron system (eV)
  ---------------------------------------------------
  alpha Z        PSCENC =       695.08469709
  Ewald energy   TEWEN  =    129784.56423138
  -Hartree energ DENC   =   -166998.48517243
  -exchange      EXHF   =         0.00000000
  -V(xc)+E(xc)   XCENC  =      -423.29770472
  PAW double counting   =     39442.00106129   -37847.14302457
  entropy T*S    EENTRO =         0.00000000
  eigenvalues    EBANDS =     -1509.35368917
  atomic energy  EATOM  =     36750.98587454
  Solvation  Ediel_sol  =         0.00000000
  ---------------------------------------------------
  free energy    TOTEN  =      -105.64372658 eV

  energy without entropy =     -105.64372658  energy(sigma->0) =     -105.64372658


--------------------------------------------------------------------------------------------------------




--------------------------------------- Iteration      1(   9)  ---------------------------------------


    EDDIAG:  cpu time    1.5343: real time    1.5344
  RMM-DIIS:  cpu time    4.8012: real time    4.8012
    ORTHCH:  cpu time    0.2786: real time    0.2787
 BZINTS: Fermi energy:    0.260798;  396.000000 electrons
         Band energy:-0.150935E+04;  BLOECHL correction:   -0.032214
       DOS:  cpu time    0.0099: real time    0.0099
    --------------------------------------------
      LOOP:  cpu time    6.6240: real time    6.6242

 eigenvalue-minimisations  :  4662
 total energy-change (2. order) :-0.6818707E-05  (-0.6687853E-05)
 number of electron     396.0000077 magnetization 
 augmentation part      396.0000077 magnetization 

 Free energy of the ion-electron system (eV)
  ---------------------------------------------------
  alpha Z        PSCENC =       695.08469709
  Ewald energy   TEWEN  =    129784.56423138
  -Hartree energ DENC   =   -166998.48517243
  -exchange      EXHF   =         0.00000000
  -V(xc)+E(xc)   XCENC  =      -423.29770472
  PAW double counting   =     39442.00106129   -37847.14302457
  entropy T*S    EENTRO =         0.00000000
  eigenvalues    EBANDS =     -1509.35369599
  atomic energy  EATOM  =     36750.98587454
  Solvation  Ediel_sol  =         0.00000000
  ---------------------------------------------------
  free energy    TOTEN  =      -105.64373340 eV

  energy without entropy =     -105.64373340  energy(sigma->0) =     -105.64373340


--------------------------------------------------------------------------------------------------------




 average (electrostatic) potential at core
  the test charge radii are     1.1249  1.1873  0.6991
  (the norm of the test charge is              1.0000)
       1 -78.6224       2 -78.6090       3 -78.6089       4 -78.6090       5 -78.6068
       6 -78.6087       7 -78.6089       8 -78.6087       9 -78.6237      10 -78.8472
      11 -78.8454      12 -78.8472      13 -78.8454      14 -78.8453      15 -78.8296
      16 -78.8472      17 -78.8296      18 -78.8297      19 -78.8143      20 -79.0066
      21 -79.0068      22 -78.8280      23 -79.0068      24 -78.8280      25 -78.8144
      26 -78.8143      27 -78.8280      28 -78.6014      29 -78.5828      30 -78.5829
      31 -78.5828      32 -78.5828      33 -78.5829      34 -78.5828      35 -78.5682
      36 -46.4234      37 -54.3324
 
 
 
 E-fermi :   0.2608     XC(G=0):  -5.4668     alpha+bet : -5.1209

 Fermi energy:         0.2607978434

 k-point     1 :       0.0000    0.0000    0.0000
  band No.  band energies     occupation 
      1      -8.9201      2.00000
      2      -6.8384      2.00000
      3      -5.9778      2.00000
      4      -5.7293      2.00000
      5      -5.6266      2.00000
      6      -5.6063      2.00000
      7      -5.6063      2.00000
      8      -5.5930      2.00000
      9      -5.5811      2.00000
     10      -5.5811      2.00000
     11      -5.5690      2.00000
     12      -5.5341      2.00000
     13      -5.5317      2.00000
     14      -5.5316      2.00000
     15      -5.5248      2.00000
     16      -5.5210      2.00000
     17      -5.5210      2.00000
     18      -5.4011      2.00000
     19      -5.4011      2.00000
     20      -5.3888      2.00000
     21      -5.3636      2.00000
     22      -5.3466      2.00000
     23      -5.3466      2.00000
     24      -5.1939      2.00000
     25      -5.1714      2.00000
     26      -5.1620      2.00000
     27      -5.1620      2.00000
     28      -5.1603      2.00000
     29      -5.1602      2.00000
     30      -5.1526      2.00000
     31      -5.1418      2.00000
     32      -5.1245      2.00000
     33      -5.1245      2.00000
     34      -5.1074      2.00000
     35      -5.1074      2.00000
     36      -5.0457      2.00000
     37      -5.0095      2.00000
     38      -4.9962      2.00000
     39      -4.9962      2.00000
     40      -4.9421      2.00000
     41      -4.9421      2.00000
     42      -4.7997      2.00000
     43      -4.7997      2.00000
     44      -4.7811      2.00000
     45      -4.7811      2.00000
     46      -4.7809      2.00000
     47      -4.7609      2.00000
     48      -4.7609      2.00000
     49      -4.7450      2.00000
     50      -4.7425      2.00000
     51      -4.7424      2.00000
     52      -4.6418      2.00000
     53      -4.6169      2.00000
     54      -4.6062      2.00000
     55      -4.5817      2.00000
     56      -4.3975      2.00000
     57      -4.3972      2.00000
     58      -4.3972      2.00000
     59      -4.3899      2.00000
     60      -4.3899      2.00000
     61      -4.3859      2.00000
     62      -4.3740      2.00000
     63      -4.3673      2.00000
     64      -4.3673      2.00000
     65      -4.3300      2.00000
     66      -4.3300      2.00000
     67      -4.2419      2.00000
     68      -4.2419      2.00000
     69      -4.2209      2.00000
     70      -4.2140      2.00000
     71      -4.2140      2.00000
     72      -4.2115      2.00000
     73      -4.1997      2.00000
     74      -4.1997      2.00000
     75      -4.1862      2.00000
     76      -4.1862      2.00000
     77      -4.1814      2.00000
     78      -4.1670      2.00000
     79      -4.1669      2.00000
     80      -4.1478      2.00000
     81      -4.1259      2.00000
     82      -4.1259      2.00000
     83      -4.1053      2.00000
     84      -4.0646      2.00000
     85      -4.0646      2.00000
     86      -4.0134      2.00000
     87      -4.0134      2.00000
     88      -3.9960      2.00000
     89      -3.9781      2.00000
     90      -3.9781      2.00000
     91      -3.9724      2.00000
     92      -3.9724      2.00000
     93      -3.9445      2.00000
     94      -3.9445      2.00000
     95      -3.9412      2.00000
     96      -3.9149      2.00000
     97      -3.9149      2.00000
     98      -3.8886      2.00000
     99      -3.8886      2.00000
    100      -3.6817      2.00000
    101      -3.6817      2.00000
    102      -3.6789      2.00000
    103      -3.6659      2.00000
    104      -3.6659      2.00000
    105      -3.6565      2.00000
    106      -3.6565      2.00000
    107      -3.6276      2.00000
    108      -3.6157      2.00000
    109      -3.5848      2.00000
    110      -3.5847      2.00000
    111      -3.5606      2.00000
    112      -3.5478      2.00000
    113      -3.5413      2.00000
    114      -3.5413      2.00000
    115      -3.4937      2.00000
    116      -3.4186      2.00000
    117      -3.4186      2.00000
    118      -3.3824      2.00000
    119      -3.3823      2.00000
    120      -3.3595      2.00000
    121      -3.3595      2.00000
    122      -3.3451      2.00000
    123      -3.3451      2.00000
    124      -3.3148      2.00000
    125      -3.2995      2.00000
    126      -3.2995      2.00000
    127      -3.2961      2.00000
    128      -3.2837      2.00000
    129      -3.2837      2.00000
    130      -3.2769      2.00000
    131      -3.2734      2.00000
    132      -3.2734      2.00000
    133      -3.2614      2.00000
    134      -3.2066      2.00000
    135      -3.2066      2.00000
    136      -3.0973      2.00000
    137      -3.0973      2.00000
    138      -3.0958      2.00000
    139      -3.0955      2.00000
    140      -3.0798      2.00000
    141      -3.0797      2.00000
    142      -3.0629      2.00000
    143      -3.0629      2.00000
    144      -3.0512      2.00000
    145      -3.0482      2.00000
    146      -3.0482      2.00000
    147      -3.0467      2.00000
    148      -3.0037      2.00000
    149      -2.9826      2.00000
    150      -2.9739      2.00000
    151      -2.9697      2.00000
    152      -2.9697      2.00000
    153      -2.9624      2.00000
    154      -2.9624      2.00000
    155      -2.9396      2.00000
    156      -2.9300      2.00000
    157      -2.9300      2.00000
    158      -2.9019      2.00000
    159      -2.9019      2.00000
    160      -2.8896      2.00000
    161      -2.8851      2.00000
    162      -2.8766      2.00000
    163      -2.8703      2.00000
    164      -2.8691      2.00000
    165      -2.8691      2.00000
    166      -2.8371      2.00000
    167      -2.8371      2.00000
    168      -2.8277      2.00000
    169      -2.8166      2.00000
    170      -2.8166      2.00000
    171      -2.8040      2.00000
    172      -2.7861      2.00000
    173      -2.7861      2.00000
    174      -2.7147      2.00000
    175      -2.7147      2.00000
    176      -2.6978      2.00000
    177      -2.6861      2.00000
    178      -2.6861      2.00000
    179      -2.6605      2.00000
    180      -2.6224      2.00000
    181      -2.6148      2.00000
    182      -2.6148      2.00000
    183      -2.5778      2.00000
    184      -2.5777      2.00000
    185      -2.5548      2.00000
    186      -2.0277      2.00000
    187      -2.0277      2.00000
    188      -1.8292      2.00000
    189      -1.8291      2.00000
    190      -1.7984      2.00000
    191      -1.7588      2.00000
    192      -1.5640      2.00000
    193      -1.5640      2.00000
    194      -1.4380      2.00000
    195      -0.4592      2.00000
    196      -0.1962      2.00000
    197      -0.1961      2.00000
    198      -0.0837      2.00000
    199      -0.0645      2.00000
    200       0.0878      2.00000
    201       0.0879      2.45736
    202       0.3160      0.00000
    203       0.3161      0.00000
    204       0.8703      0.00000
    205       1.9705      0.00000
    206       2.1432      0.00000
    207       2.1870      0.00000
    208       2.1870      0.00000
    209       2.4724      0.00000
    210       2.4725      0.00000
    211       2.9942      0.00000
    212       2.9942      0.00000
    213       3.5140      0.00000
    214       3.5653      0.00000
    215       3.7667      0.00000
    216       3.7668      0.00000
    217       4.0046      0.00000
    218       4.0046      0.00000
    219       4.2802      0.00000
    220       4.5208      0.00000
    221       4.5337      0.00000
    222       4.5582      0.00000
    223       4.5582      0.00000
    224       4.6247      0.00000
    225       4.6247      0.00000
    226       4.7292      0.00000
    227       4.7292      0.00000
    228       4.7923      0.00000
    229       4.8699      0.00000
    230       4.9623      0.00000
    231       5.1695      0.00000
    232       5.1695      0.00000
    233       5.6147      0.00000
    234       5.8306      0.00000
    235       5.9681      0.00000
    236       6.1752      0.00000
    237       6.1752      0.00000
    238       6.3014      0.00000
    239       6.3661      0.00000
    240       6.3662      0.00000
    241       6.5196      0.00000
    242       6.5199      0.00000
    243       6.5443      0.00000
    244       6.6842      0.00000
    245       6.6979      0.00000
    246       6.6990      0.00000
    247       6.8125      0.00000
    248       6.8387      0.00000
    249       6.8429      0.00000
    250       6.8481      0.00000
    251       6.9423      0.00000
    252       6.9883      0.00000

 k-point     2 :       0.1250    0.0000    0.0000
  band No.  band energies     occupation 
      1      -8.9190      2.00000
      2      -6.7937      2.00000
      3      -5.9385      2.00000
      4      -5.7022      2.00000
      5      -5.6555      2.00000
      6      -5.6224      2.00000
      7      -5.6020      2.00000
      8      -5.5969      2.00000
      9      -5.5852      2.00000
     10      -5.5664      2.00000
     11      -5.5653      2.00000
     12      -5.5387      2.00000
     13      -5.5248      2.00000
     14      -5.5142      2.00000
     15      -5.4785      2.00000
     16      -5.4674      2.00000
     17      -5.4639      2.00000
     18      -5.4488      2.00000
     19      -5.4264      2.00000
     20      -5.4189      2.00000
     21      -5.3224      2.00000
     22      -5.3073      2.00000
     23      -5.2635      2.00000
     24      -5.2439      2.00000
     25      -5.2363      2.00000
     26      -5.2300      2.00000
     27      -5.1863      2.00000
     28      -5.1763      2.00000
     29      -5.1384      2.00000
     30      -5.1358      2.00000
     31      -5.1135      2.00000
     32      -5.0955      2.00000
     33      -5.0795      2.00000
     34      -5.0720      2.00000
     35      -5.0345      2.00000
     36      -5.0335      2.00000
     37      -5.0141      2.00000
     38      -4.9917      2.00000
     39      -4.9484      2.00000
     40      -4.8999      2.00000
     41      -4.8998      2.00000
     42      -4.8585      2.00000
     43      -4.8521      2.00000
     44      -4.8356      2.00000
     45      -4.8146      2.00000
     46      -4.8122      2.00000
     47      -4.7969      2.00000
     48      -4.7851      2.00000
     49      -4.7252      2.00000
     50      -4.7250      2.00000
     51      -4.6860      2.00000
     52      -4.6299      2.00000
     53      -4.5994      2.00000
     54      -4.5812      2.00000
     55      -4.5796      2.00000
     56      -4.4267      2.00000
     57      -4.4204      2.00000
     58      -4.4141      2.00000
     59      -4.4066      2.00000
     60      -4.3894      2.00000
     61      -4.3873      2.00000
     62      -4.3757      2.00000
     63      -4.3723      2.00000
     64      -4.3561      2.00000
     65      -4.3524      2.00000
     66      -4.3144      2.00000
     67      -4.2862      2.00000
     68      -4.2590      2.00000
     69      -4.2580      2.00000
     70      -4.2418      2.00000
     71      -4.2412      2.00000
     72      -4.2077      2.00000
     73      -4.2073      2.00000
     74      -4.1972      2.00000
     75      -4.1962      2.00000
     76      -4.1793      2.00000
     77      -4.1717      2.00000
     78      -4.1599      2.00000
     79      -4.1577      2.00000
     80      -4.1504      2.00000
     81      -4.1206      2.00000
     82      -4.1185      2.00000
     83      -4.1068      2.00000
     84      -4.1025      2.00000
     85      -4.0830      2.00000
     86      -4.0771      2.00000
     87      -4.0735      2.00000
     88      -4.0455      2.00000
     89      -4.0271      2.00000
     90      -4.0192      2.00000
     91      -3.9744      2.00000
     92      -3.9709      2.00000
     93      -3.9427      2.00000
     94      -3.9350      2.00000
     95      -3.9129      2.00000
     96      -3.8854      2.00000
     97      -3.8204      2.00000
     98      -3.7861      2.00000
     99      -3.7853      2.00000
    100      -3.7386      2.00000
    101      -3.7279      2.00000
    102      -3.7137      2.00000
    103      -3.7017      2.00000
    104      -3.6932      2.00000
    105      -3.6805      2.00000
    106      -3.6625      2.00000
    107      -3.6529      2.00000
    108      -3.6308      2.00000
    109      -3.6011      2.00000
    110      -3.5993      2.00000
    111      -3.5709      2.00000
    112      -3.5676      2.00000
    113      -3.5185      2.00000
    114      -3.5142      2.00000
    115      -3.4823      2.00000
    116      -3.4681      2.00000
    117      -3.4607      2.00000
    118      -3.4436      2.00000
    119      -3.4364      2.00000
    120      -3.4193      2.00000
    121      -3.4117      2.00000
    122      -3.3682      2.00000
    123      -3.3666      2.00000
    124      -3.3581      2.00000
    125      -3.3482      2.00000
    126      -3.3437      2.00000
    127      -3.3396      2.00000
    128      -3.3129      2.00000
    129      -3.2970      2.00000
    130      -3.2910      2.00000
    131      -3.2706      2.00000
    132      -3.2620      2.00000
    133      -3.2511      2.00000
    134      -3.2425      2.00000
    135      -3.2192      2.00000
    136      -3.2053      2.00000
    137      -3.1871      2.00000
    138      -3.1752      2.00000
    139      -3.1678      2.00000
    140      -3.1320      2.00000
    141      -3.1208      2.00000
    142      -3.1067      2.00000
    143      -3.0718      2.00000
    144      -3.0608      2.00000
    145      -3.0608      2.00000
    146      -3.0473      2.00000
    147      -3.0248      2.00000
    148      -3.0235      2.00000
    149      -3.0115      2.00000
    150      -3.0090      2.00000
    151      -2.9944      2.00000
    152      -2.9869      2.00000
    153      -2.9749      2.00000
    154      -2.9653      2.00000
    155      -2.9583      2.00000
    156      -2.9510      2.00000
    157      -2.9448      2.00000
    158      -2.9382      2.00000
    159      -2.9234      2.00000
    160      -2.9187      2.00000
    161      -2.9027      2.00000
    162      -2.8965      2.00000
    163      -2.8862      2.00000
    164      -2.8761      2.00000
    165      -2.8514      2.00000
[...]
  0.000   0.000   0.000   0.000   0.000   0.000   0.000   0.000   0.000   0.000   0.000   0.000   0.000   0.000   0.000   0.000
  0.000   0.000   0.000   0.000   0.000   0.000   0.000   0.000   0.000   0.000   0.000   0.000   0.000   0.000   0.000   0.000
  0.000   0.000   0.000   0.000   0.000   0.000   0.000   0.000   0.000   0.000   0.000   0.000   0.000   0.000   0.000   0.000
  0.000   0.000   0.000   0.000   0.000   0.000   0.000   0.000   0.000   0.000   0.000   0.000   0.000   0.000   0.000   0.000
  0.000   0.000   0.000   0.000   0.000   0.000   0.000   0.000   0.000   0.000   0.000   0.000   0.000   0.000   0.000   0.000
  0.000   0.000   0.000   0.000   0.000   0.000   0.000   0.000   0.000   0.000   1.000   0.000   0.000   0.000   0.000   0.000
  0.000   0.000   0.000   0.000   0.000   0.000   0.000   0.000   0.000   0.000   0.000   0.000   0.000   0.000   0.000   0.000
  0.000   0.000   0.000   0.000   0.000   0.000   0.000   0.000   0.000   0.000   0.000   0.000   0.000   0.000   0.000   0.000
  0.000   0.000   0.000   0.000   0.000   0.000   0.000   0.000   0.000   0.000   0.000   0.000   0.000   0.000   0.000   0.000
  0.000   0.000   0.000   0.000   0.000   0.000   0.000   0.000   0.000   0.000   0.000   0.000   0.000   0.000   0.000   0.000
  0.000   0.000   0.000   0.000   0.000   0.000   0.000   0.000   0.000   0.000   0.000   0.000   0.000   0.000   0.000   0.000
  0.000   0.000   0.000   0.000   0.000   0.000   0.000   0.000   0.000   0.000   0.000   0.000   0.000   0.000   0.000   0.000
  0.000   0.000   0.000   0.000   0.000   0.000   0.000   0.000   0.000   0.000   0.000   0.000   0.000   0.000   0.000   0.000


------------------------ aborting loop because EDIFF is reached ----------------------------------------





 total charge

# of ion       s       p       d       tot
------------------------------------------
    1        0.416   0.204   9.177   9.797
    2        0.418   0.203   9.176   9.797
    3        0.418   0.203   9.176   9.797
    4        0.418   0.203   9.176   9.797
    5        0.417   0.202   9.178   9.797
    6        0.418   0.203   9.176   9.797
    7        0.418   0.203   9.176   9.797
    8        0.418   0.203   9.176   9.797
    9        0.412   0.205   9.176   9.793
   10        0.405   0.271   9.164   9.840
   11        0.406   0.273   9.165   9.844
   12        0.405   0.271   9.164   9.840
   13        0.406   0.273   9.165   9.844
   14        0.406   0.273   9.165   9.844
   15        0.402   0.271   9.165   9.837
   16        0.405   0.271   9.164   9.840
   17        0.402   0.271   9.165   9.837
   18        0.402   0.271   9.165   9.837
   19        0.402   0.262   9.169   9.833
   20        0.426   0.304   9.150   9.880
   21        0.426   0.304   9.150   9.880
   22        0.393   0.276   9.165   9.834
   23        0.426   0.304   9.150   9.880
   24        0.393   0.276   9.165   9.834
   25        0.402   0.262   9.169   9.833
   26        0.402   0.262   9.169   9.833
   27        0.393   0.276   9.165   9.834
   28        0.418   0.192   9.179   9.789
   29        0.413   0.219   9.170   9.802
   30        0.413   0.219   9.170   9.802
   31        0.413   0.219   9.170   9.802
   32        0.413   0.219   9.170   9.802
   33        0.413   0.219   9.170   9.802
   34        0.413   0.219   9.170   9.802
   35        0.413   0.197   9.178   9.788
   36        0.598   0.450   5.112   6.159
   37        0.996   1.259   0.000   2.255
--------------------------------------------------
tot         15.954  10.210 326.013 352.177
 
    CHARGE:  cpu time    0.3867: real time    0.3868
    FORLOC:  cpu time    0.0111: real time    0.0111
    FORNL :  cpu time    1.6304: real time    1.6305
    STRESS:  cpu time    4.8788: real time    4.8790
    FORCOR:  cpu time    0.0589: real time    0.0590
    FORHAR:  cpu time    0.0183: real time    0.0184
    OFIELD:  cpu time    0.0003: real time    0.0003

  FORCE on cell =-STRESS in cart. coord.  units (eV):
  Direction    XX          YY          ZZ          XY          YZ          ZX
  --------------------------------------------------------------------------------------
  Alpha Z   695.08470   695.08470   695.08470
  Ewald  152414.08498152414.08498************     0.00002    -0.00000     0.00001
  Hartree162278.37350162278.37349************     0.00001    -0.00000     0.00000
  E(xc)   -2074.84943 -2074.84942 -2081.84353    -0.00001     0.00000    -0.00000
  Local  ************************326133.83021     0.00025    -0.00003    -0.00009
  n-local  -348.84069  -331.17118  -345.34160    10.58465    -0.47482     0.63025
  augment  3228.70540  3228.70557  3238.42438    -0.00015    -0.00002    -0.00004
  Kinetic  4921.35746  4926.29255  4938.90855     4.91389     0.70521    -0.25245
  Fock        0.00000     0.00000     0.00000     0.00000     0.00000     0.00000
  -------------------------------------------------------------------------------------
  Total      -6.74136    -6.74136     0.97420    -0.00000    -0.00000     0.00000
  in kB      -6.62373    -6.62373     0.95720    -0.00000    -0.00000     0.00000
  external pressure =       -4.10 kB  Pullay stress =        0.00 kB


 VOLUME and BASIS-vectors are now :
 -----------------------------------------------------------------------------
  energy-cutoff  :      500.00
  volume of cell :     1630.63
      direct lattice vectors                 reciprocal lattice vectors
     8.791366577  0.000000000  0.000000000     0.113747958 -0.065672414  0.000000000
     4.395683289  7.613546790  0.000000000     0.000000000  0.131344829  0.000000000
     0.000000000  0.000000000 24.361965240     0.000000000  0.000000000  0.041047592

  length of vectors
     8.791366577  8.791366577 24.361965240     0.131344829  0.131344829  0.041047592


 FORCES acting on ions
    electron-ion (+dipol)            ewald-force                    non-local-force                 convergence-correction
 -----------------------------------------------------------------------------------------------
   0.463E-04 -.280E-04 0.267E+04   -.954E-04 0.593E-04 -.267E+04   -.291E-17 -.250E-17 -.195E+01   -.274E-04 -.123E-03 -.444E+00
   0.317E+00 0.531E+00 0.267E+04   -.392E+00 -.426E+00 -.267E+04   0.813E-02 -.415E-02 -.171E+01   0.638E-01 -.968E-01 -.447E+00
   -.317E+00 0.531E+00 0.267E+04   0.392E+00 -.426E+00 -.267E+04   -.813E-02 -.415E-02 -.171E+01   -.644E-01 -.950E-01 -.446E+00
   0.619E+00 0.911E-02 0.267E+04   -.565E+00 -.126E+00 -.267E+04   0.469E-03 0.911E-02 -.171E+01   -.518E-01 0.104E+00 -.447E+00
   -.727E-05 -.196E-04 0.267E+04   0.980E-04 -.197E-05 -.267E+04   -.317E-18 -.234E-17 -.176E+01   0.615E-02 0.376E-02 -.438E+00
   -.619E+00 0.915E-02 0.267E+04   0.565E+00 -.126E+00 -.267E+04   -.469E-03 0.911E-02 -.171E+01   0.505E-01 0.105E+00 -.446E+00
   0.301E+00 -.540E+00 0.267E+04   -.173E+00 0.553E+00 -.267E+04   -.766E-02 -.496E-02 -.171E+01   -.114E+00 -.776E-02 -.446E+00
   -.301E+00 -.540E+00 0.267E+04   0.173E+00 0.553E+00 -.267E+04   0.766E-02 -.496E-02 -.171E+01   0.116E+00 -.866E-02 -.446E+00
   0.362E-04 -.130E-04 0.267E+04   0.792E-04 -.643E-04 -.267E+04   0.484E-17 -.160E-17 -.188E+01   -.665E-02 -.343E-02 -.520E+00
   0.509E+01 0.294E+01 0.890E+03   -.487E+01 -.281E+01 -.889E+03   -.222E+00 -.128E+00 -.633E+00   -.929E-02 -.534E-02 -.183E+00
   -.283E-04 0.440E+01 0.895E+03   0.407E-04 -.448E+01 -.894E+03   0.283E-12 0.430E-01 -.806E+00   0.582E-02 -.138E-01 -.234E+00
   -.509E+01 0.294E+01 0.890E+03   0.487E+01 -.281E+01 -.889E+03   0.222E+00 -.128E+00 -.633E+00   0.837E-02 -.478E-02 -.185E+00
   0.381E+01 -.220E+01 0.895E+03   -.388E+01 0.224E+01 -.894E+03   0.373E-01 -.215E-01 -.806E+00   -.916E-02 0.120E-01 -.234E+00
   -.381E+01 -.220E+01 0.895E+03   0.388E+01 0.224E+01 -.894E+03   -.373E-01 -.215E-01 -.806E+00   0.193E-01 0.114E-01 -.236E+00
   0.160E-04 0.127E+01 0.890E+03   -.108E-03 -.134E+01 -.889E+03   0.202E-12 0.307E-01 -.621E+00   -.108E-02 0.153E-01 -.218E+00
   -.788E-05 -.588E+01 0.890E+03   0.205E-04 0.563E+01 -.889E+03   0.169E-11 0.257E+00 -.633E+00   0.511E-05 0.956E-02 -.185E+00
   0.110E+01 -.637E+00 0.890E+03   -.116E+01 0.669E+00 -.889E+03   0.266E-01 -.154E-01 -.621E+00   0.127E-01 -.858E-02 -.218E+00
   -.110E+01 -.637E+00 0.890E+03   0.116E+01 0.669E+00 -.889E+03   -.266E-01 -.154E-01 -.621E+00   -.128E-01 -.741E-02 -.218E+00
   0.386E-04 -.467E+00 -.918E+03   -.127E-03 0.522E+00 0.916E+03   -.843E-14 -.128E-02 0.847E+00   0.688E-02 -.523E-01 0.323E+00
   -.460E-01 -.266E-01 -.890E+03   0.452E+00 0.261E+00 0.890E+03   -.563E+00 -.325E+00 -.481E+00   -.138E+00 -.794E-01 0.652E-01
   0.461E-01 -.266E-01 -.890E+03   -.451E+00 0.261E+00 0.890E+03   0.563E+00 -.325E+00 -.481E+00   0.125E+00 -.794E-01 0.643E-01
   -.361E+01 0.209E+01 -.907E+03   0.328E+01 -.189E+01 0.907E+03   0.435E+00 -.251E+00 0.759E+00   -.594E-01 0.329E-01 0.191E+00
   -.523E-04 0.532E-01 -.890E+03   0.410E-04 -.522E+00 0.890E+03   0.427E-11 0.650E+00 -.481E+00   -.569E-02 0.149E+00 0.644E-01
   0.361E+01 0.209E+01 -.907E+03   -.328E+01 -.189E+01 0.907E+03   -.435E+00 -.251E+00 0.759E+00   0.608E-01 0.352E-01 0.192E+00
   0.405E+00 0.234E+00 -.918E+03   -.452E+00 -.261E+00 0.916E+03   0.111E-02 0.642E-03 0.847E+00   0.532E-01 0.306E-01 0.323E+00
   -.405E+00 0.234E+00 -.918E+03   0.452E+00 -.261E+00 0.916E+03   -.111E-02 0.642E-03 0.847E+00   -.422E-01 0.320E-01 0.323E+00
   0.201E-04 -.417E+01 -.907E+03   0.110E-03 0.378E+01 0.907E+03   0.330E-11 0.502E+00 0.759E+00   -.189E-02 -.679E-01 0.191E+00
   0.535E-04 -.361E-04 -.265E+04   -.114E-03 0.773E-04 0.265E+04   -.106E-16 -.316E-17 0.205E+01   -.644E-03 -.506E-03 0.432E+00
   0.107E+02 0.193E+02 -.265E+04   -.968E+01 -.179E+02 0.265E+04   -.876E+00 -.127E+01 0.234E+01   -.236E+00 -.227E+00 0.360E+00
   -.107E+02 0.193E+02 -.265E+04   0.968E+01 -.179E+02 0.265E+04   0.876E+00 -.127E+01 0.234E+01   0.245E+00 -.225E+00 0.361E+00
   0.221E+02 -.355E+00 -.265E+04   -.204E+02 0.580E+00 0.265E+04   -.154E+01 -.123E+00 0.234E+01   -.314E+00 -.908E-01 0.360E+00
   -.221E+02 -.355E+00 -.265E+04   0.204E+02 0.580E+00 0.265E+04   0.154E+01 -.123E+00 0.234E+01   0.324E+00 -.895E-01 0.362E+00
   0.113E+02 -.189E+02 -.265E+04   -.107E+02 0.173E+02 0.265E+04   -.663E+00 0.139E+01 0.234E+01   -.724E-01 0.325E+00 0.361E+00
   -.113E+02 -.189E+02 -.265E+04   0.107E+02 0.173E+02 0.265E+04   0.663E+00 0.139E+01 0.234E+01   0.842E-01 0.325E+00 0.362E+00
   0.235E-04 -.129E-04 -.265E+04   0.105E-03 -.653E-04 0.265E+04   0.410E-17 -.658E-18 0.220E+01   -.770E-02 -.402E-02 0.408E+00
   -.128E-04 -.124E-04 -.150E+04   0.677E-04 0.862E-05 0.150E+04   -.393E-18 -.468E-18 0.859E+00   -.700E-05 0.261E-04 0.250E+00
   0.467E-04 -.280E-04 -.118E+04   0.196E-04 0.283E-06 0.119E+04   -.189E-18 -.208E-18 -.837E+01   0.405E-03 0.258E-03 0.182E+00
 -----------------------------------------------------------------------------------------------
   0.380E-03 -.727E-03 0.861E+01   0.285E-13 -.225E-12 0.432E-11   -.219E-15 -.445E-15 -.786E+01   0.355E-01 0.237E-01 -.815E+00
 
 
 POSITION                                       TOTAL-FORCE (eV/Angst)
 -----------------------------------------------------------------------------------
      0.00000      0.00000      5.28219        -0.000000     -0.000000      0.023333
      2.93046      0.00000      5.28219        -0.002200      0.004955      0.024523
      5.86091      0.00000      5.28219         0.002200      0.004955      0.024523
      1.46523      2.53785      5.28219         0.003191     -0.004383      0.024523
      4.39568      2.53785      5.28219        -0.000000     -0.000000     -0.010430
      7.32614      2.53785      5.28219        -0.003191     -0.004383      0.024523
      2.93046      5.07570      5.28219         0.005391     -0.000572      0.024523
      5.86091      5.07570      5.28219        -0.005391     -0.000572      0.024523
      8.79137      5.07570      5.28219        -0.000000     -0.000000      0.050201
      1.46523      0.84595      7.67490        -0.014366     -0.008294     -0.009613
      4.39568      0.84595      7.67490        -0.000000     -0.049313     -0.075897
      7.32614      0.84595      7.67490         0.014366     -0.008294     -0.009613
      2.93046      3.38380      7.67490        -0.042707      0.024657     -0.075897
      5.86091      3.38380      7.67490         0.042707      0.024657     -0.075897
      8.79137      3.38380      7.67490        -0.000000     -0.017122      0.026280
      4.39568      5.92165      7.67490         0.000000      0.016589     -0.009613
      7.32614      5.92165      7.67490        -0.014828      0.008561      0.026280
     10.25659      5.92165      7.67490         0.014828      0.008561      0.026280
      8.79137      1.69725     10.06774        -0.000000     -0.001989      0.030740
      2.92950      1.69135     10.02116        -0.289281     -0.167017     -0.234745
      5.86187      1.69135     10.02116         0.289281     -0.167017     -0.234745
     10.25061      4.23320     10.05696         0.038325     -0.022127      0.028956
      4.39568      4.23086     10.02116         0.000000      0.334033     -0.234745
      7.33212      4.23320     10.05696        -0.038325     -0.022127      0.028956
     11.71719      6.76492     10.06774         0.001723      0.000995      0.030740
      5.86555      6.76492     10.06774        -0.001723      0.000995      0.030740
      8.79137      6.76069     10.05696         0.000000      0.044254      0.028956
      0.00000      0.00000     12.43040        -0.000000     -0.000000     -0.016927
      2.96174      0.05879     12.46433        -0.057186     -0.116072     -0.076178
      5.82963      0.05879     12.46433         0.057186     -0.116072     -0.076178
      1.53179      2.53554     12.46433        -0.129114      0.008512     -0.076178
      7.25958      2.53554     12.46433         0.129114      0.008512     -0.076178
      2.96573      5.01921     12.46433        -0.071928      0.107560     -0.076178
      5.82563      5.01921     12.46433         0.071928      0.107560     -0.076178
      8.79137      5.07570     12.42552        -0.000000     -0.000000     -0.013011
      4.39568      2.53785     12.19879        -0.000000     -0.000000      0.973253
      4.39568      2.53785     13.95486        -0.000000     -0.000000      0.006353
 -----------------------------------------------------------------------------------
    total drift:                                0.035860      0.022973     -0.063758


--------------------------------------------------------------------------------------------------------



  FREE ENERGIE OF THE ION-ELECTRON SYSTEM (eV)
  ---------------------------------------------------
  free  energy   TOTEN  =      -105.64373340 eV

  energy  without entropy=     -105.64373340  energy(sigma->0) =     -105.64373340
 


--------------------------------------------------------------------------------------------------------


    POTLOK:  cpu time    0.0579: real time    0.0579


--------------------------------------------------------------------------------------------------------


 stress matrix after NEB project (eV)
     -6.74136     -0.00000      0.00000
     -0.00000     -6.74136     -0.00000
      0.00000     -0.00000      0.97420
  FORCES: max atom, RMS     0.006353    0.001044
  FORCE total and by dimension    0.006353    0.006353
  Stress total and by dimension    9.583370    6.741362
     LOOP+:  cpu time   88.5684: real time   88.5800
 -----------------------------------------------------------------------------
|                                                                             |
|           W    W    AA    RRRRR   N    N  II  N    N   GGGG   !!!           |
|           W    W   A  A   R    R  NN   N  II  NN   N  G    G  !!!           |
|           W    W  A    A  R    R  N N  N  II  N N  N  G       !!!           |
|           W WW W  AAAAAA  RRRRR   N  N N  II  N  N N  G  GGG   !            |
|           WW  WW  A    A  R   R   N   NN  II  N   NN  G    G                |
|           W    W  A    A  R    R  N    N  II  N    N   GGGG   !!!           |
|                                                                             |
|     Tetrahedron method does not include variations of the Fermi             |
|     occupations, so forces and stress will be inaccurate. We suggest        |
|     using a different smearing scheme ISMEAR = 1 or 2 for metals in         |
|     relaxations.                                                            |
|                                                                             |
 -----------------------------------------------------------------------------

    4ORBIT:  cpu time    0.0000: real time    0.0000



 total charge

# of ion       s       p       d       tot
------------------------------------------
    1        0.416   0.204   9.177   9.797
    2        0.418   0.203   9.176   9.797
    3        0.418   0.203   9.176   9.797
    4        0.418   0.203   9.176   9.797
    5        0.417   0.202   9.178   9.797
    6        0.418   0.203   9.176   9.797
    7        0.418   0.203   9.176   9.797
    8        0.418   0.203   9.176   9.797
    9        0.412   0.205   9.176   9.793
   10        0.405   0.271   9.164   9.840
   11        0.406   0.273   9.165   9.844
   12        0.405   0.271   9.164   9.840
   13        0.406   0.273   9.165   9.844
   14        0.406   0.273   9.165   9.844
   15        0.402   0.271   9.165   9.837
   16        0.405   0.271   9.164   9.840
   17        0.402   0.271   9.165   9.837
   18        0.402   0.271   9.165   9.837
   19        0.402   0.262   9.169   9.833
   20        0.426   0.304   9.150   9.880
   21        0.426   0.304   9.150   9.880
   22        0.393   0.276   9.165   9.834
   23        0.426   0.304   9.150   9.880
   24        0.393   0.276   9.165   9.834
   25        0.402   0.262   9.169   9.833
   26        0.402   0.262   9.169   9.833
   27        0.393   0.276   9.165   9.834
   28        0.418   0.192   9.179   9.789
   29        0.413   0.219   9.170   9.802
   30        0.413   0.219   9.170   9.802
   31        0.413   0.219   9.170   9.802
   32        0.413   0.219   9.170   9.802
   33        0.413   0.219   9.170   9.802
   34        0.413   0.219   9.170   9.802
   35        0.413   0.197   9.178   9.788
   36        0.598   0.450   5.112   6.159
   37        0.996   1.259   0.000   2.255
--------------------------------------------------
tot         15.954  10.210 326.013 352.177
 
 BZINTS: Fermi energy:    0.260798;  396.000000 electrons
         Band energy:-0.150935E+04;  BLOECHL correction:   -0.032214

 total amount of memory used by VASP MPI-rank0   131580. kBytes
=======================================================================

   base      :      30000. kBytes
   nonlr-proj:      15659. kBytes
   fftplans  :       4808. kBytes
   grid      :      19857. kBytes
   one-center:        575. kBytes
   wavefun   :      60681. kBytes
 
  
  
 General timing and accounting informations for this job:
 ========================================================
  
                  Total CPU time used (sec):       96.427
                            User time (sec):       93.162
                          System time (sec):        3.266
                         Elapsed time (sec):       96.818
  
                   Maximum memory used (kb):      396252.
                   Average memory used (kb):          N/A
  
                          Minor page faults:        77394
                          Major page faults:            0
                 Voluntary context switches:         5666
