PROCAR new format
# of k-points:   10         # of bands:  252         # of ions:   37

 k-point     1 :    0.00000000 0.00000000 0.00000000     weight = 0.01562500

band     1 # energy   -8.92013982 # occ.  2.00000000
 
ion      s      p      d    tot
    1  0.000  0.000  0.000  0.000
    2  0.000  0.000  0.000  0.000
    3  0.000  0.000  0.000  0.000
    4  0.000  0.000  0.000  0.000
    5  0.000  0.000  0.000  0.000
    6  0.000  0.000  0.000  0.000
    7  0.000  0.000  0.000  0.000
    8  0.000  0.000  0.000  0.000
    9  0.000  0.000  0.000  0.000
   10  0.000  0.000  0.000  0.000
   11  0.000  0.000  0.000  0.000
   12  0.000  0.000  0.000  0.000
   13  0.000  0.000  0.000  0.000
   14  0.000  0.000  0.000  0.000
   15  0.000  0.000  0.000  0.000
   16  0.000  0.000  0.000  0.000
   17  0.000  0.000  0.000  0.000
   18  0.000  0.000  0.000  0.000
   19  0.000  0.000  0.000  0.000
   20  0.003  0.001  0.004  0.007
   21  0.003  0.001  0.004  0.007
   22  0.000  0.000  0.000  0.000
   23  0.003  0.001  0.004  0.007
   24  0.000  0.000  0.000  0.000
   25  0.000  0.000  0.000  0.000
   26  0.000  0.000  0.000  0.000
   27  0.000  0.000  0.000  0.000
   28  0.000  0.000  0.000  0.000
   29  0.001  0.000  0.001  0.003
   30  0.001  0.000  0.001  0.003
   31  0.001  0.000  0.001  0.003
   32  0.001  0.000  0.001  0.003
   33  0.001  0.000  0.001  0.003
   34  0.001  0.000  0.001  0.003
   35  0.000  0.000  0.000  0.000
   36  0.128  0.044  0.164  0.336
   37  0.402  0.024  0.000  0.426
tot    0.547  0.074  0.181  0.802
 
band     2 # energy   -6.83844520 # occ.  2.00000000
 
ion      s      p      d    tot
    1  0.006  0.001  0.000  0.007
    2  0.006  0.001  0.000  0.007
    3  0.006  0.001  0.000  0.007
    4  0.006  0.001  0.000  0.007
    5  0.006  0.001  0.000  0.007
    6  0.006  0.001  0.000  0.007
    7  0.006  0.001  0.000  0.007
    8  0.006  0.001  0.000  0.007
    9  0.006  0.001  0.000  0.007
   10  0.023  0.000  0.000  0.024
   11  0.024  0.000  0.000  0.025
   12  0.023  0.000  0.000  0.024
   13  0.024  0.000  0.000  0.025
   14  0.024  0.000  0.000  0.025
   15  0.023  0.000  0.000  0.023
   16  0.023  0.000  0.000  0.024
   17  0.023  0.000  0.000  0.023
   18  0.023  0.000  0.000  0.023
   19  0.021  0.000  0.000  0.022
   20  0.024  0.000  0.000  0.025
   21  0.024  0.000  0.000  0.025
   22  0.022  0.000  0.000  0.023
   23  0.024  0.000  0.000  0.025
   24  0.022  0.000  0.000  0.023
   25  0.021  0.000  0.000  0.022
   26  0.021  0.000  0.000  0.022
   27  0.022  0.000  0.000  0.023
   28  0.005  0.001  0.000  0.006
   29  0.005  0.001  0.000  0.005
   30  0.005  0.001  0.000  0.005
   31  0.005  0.001  0.000  0.005
   32  0.005  0.001  0.000  0.005
   33  0.005  0.001  0.000  0.005
   34  0.005  0.001  0.000  0.005
   35  0.005  0.001  0.000  0.005
   36  0.002  0.005  0.005  0.012
   37  0.009  0.000  0.000  0.010
tot    0.520  0.018  0.012  0.550
 
band     3 # energy   -5.97776552 # occ.  2.00000000
 
ion      s      p      d    tot
    1  0.008  0.000  0.000  0.008
    2  0.008  0.000  0.000  0.008
    3  0.008  0.000  0.000  0.008
    4  0.008  0.000  0.000  0.008
    5  0.007  0.000  0.000  0.008
    6  0.008  0.000  0.000  0.008
    7  0.008  0.000  0.000  0.008
    8  0.008  0.000  0.000  0.008
    9  0.008  0.000  0.000  0.008
   10  0.011  0.001  0.015  0.028
   11  0.010  0.001  0.016  0.028
   12  0.011  0.001  0.015  0.028
   13  0.010  0.001  0.016  0.028
   14  0.010  0.001  0.016  0.028
   15  0.010  0.001  0.014  0.025
   16  0.011  0.001  0.015  0.028
   17  0.010  0.001  0.014  0.025
   18  0.010  0.001  0.014  0.025
   19  0.011  0.001  0.017  0.029
   20  0.014  0.001  0.021  0.035
   21  0.014  0.001  0.021  0.035
   22  0.012  0.001  0.017  0.030
   23  0.014  0.001  0.021  0.035
   24  0.012  0.001  0.017  0.030
   25  0.011  0.001  0.017  0.029
   26  0.011  0.001  0.017  0.029
   27  0.012  0.001  0.017  0.030
   28  0.006  0.000  0.000  0.006
   29  0.006  0.000  0.000  0.006
   30  0.006  0.000  0.000  0.006
   31  0.006  0.000  0.000  0.006
   32  0.006  0.000  0.000  0.006
   33  0.006  0.000  0.000  0.006
   34  0.006  0.000  0.000  0.006
   35  0.006  0.000  0.000  0.006
   36  0.004  0.003  0.003  0.011
   37  0.006  0.000  0.000  0.006
tot    0.329  0.027  0.309  0.665
 
band     4 # energy   -5.72932016 # occ.  2.00000000
 
ion      s      p      d    tot
    1  0.009  0.000  0.018  0.027
    2  0.010  0.000  0.013  0.023
    3  0.010  0.000  0.013  0.023
    4  0.010  0.000  0.013  0.023
    5  0.008  0.000  0.010  0.019
    6  0.010  0.000  0.013  0.023
    7  0.010  0.000  0.013  0.023
    8  0.010  0.000  0.013  0.023
    9  0.012  0.000  0.011  0.022
   10  0.000  0.000  0.021  0.022
   11  0.000  0.000  0.012  0.013
   12  0.000  0.000  0.021  0.022
   13  0.000  0.000  0.012  0.013
   14  0.000  0.000  0.012  0.013
   15  0.000  0.000  0.009  0.009
   16  0.000  0.000  0.021  0.022
   17  0.000  0.000  0.009  0.009
   18  0.000  0.000  0.009  0.009
   19  0.001  0.000  0.011  0.012
   20  0.000  0.000  0.045  0.045
   21  0.000  0.000  0.045  0.045
   22  0.000  0.000  0.009  0.010
   23  0.000  0.000  0.045  0.045
   24  0.000  0.000  0.009  0.010
   25  0.001  0.000  0.011  0.012
   26  0.001  0.000  0.011  0.012
   27  0.000  0.000  0.009  0.010
   28  0.006  0.000  0.010  0.016
   29  0.011  0.000  0.016  0.026
   30  0.011  0.000  0.016  0.026
   31  0.011  0.000  0.016  0.026
   32  0.011  0.000  0.016  0.026
   33  0.011  0.000  0.016  0.026
   34  0.011  0.000  0.016  0.026
   35  0.009  0.000  0.009  0.018
   36  0.015  0.001  0.026  0.042
   37  0.003  0.000  0.000  0.003
tot    0.187  0.009  0.577  0.773
 
band     5 # energy   -5.62663969 # occ.  2.00000000
 
ion      s      p      d    tot
    1  0.001  0.001  0.005  0.007
    2  0.001  0.000  0.005  0.006
    3  0.001  0.000  0.005  0.006
    4  0.001  0.000  0.005  0.006
    5  0.004  0.000  0.001  0.005
    6  0.001  0.000  0.005  0.006
    7  0.001  0.000  0.005  0.006
    8  0.001  0.000  0.005  0.006
    9  0.003  0.000  0.000  0.004
   10  0.004  0.000  0.020  0.024
   11  0.001  0.001  0.022  0.023
   12  0.004  0.000  0.020  0.024
   13  0.001  0.001  0.022  0.023
   14  0.001  0.001  0.022  0.023
   15  0.003  0.000  0.010  0.014
   16  0.004  0.000  0.020  0.024
   17  0.003  0.000  0.010  0.014
   18  0.003  0.000  0.010  0.014
   19  0.001  0.001  0.038  0.039
   20  0.009  0.000  0.106  0.116
   21  0.009  0.000  0.106  0.116
   22  0.013  0.001  0.007  0.021
   23  0.009  0.000  0.106  0.116
   24  0.013  0.001  0.007  0.021
   25  0.001  0.001  0.038  0.039
   26  0.001  0.001  0.038  0.039
   27  0.013  0.001  0.007  0.021
   28  0.000  0.000  0.001  0.001
   29  0.000  0.000  0.004  0.004
   30  0.000  0.000  0.004  0.004
   31  0.000  0.000  0.004  0.004
   32  0.000  0.000  0.004  0.004
   33  0.000  0.000  0.004  0.004
   34  0.000  0.000  0.004  0.004
   35  0.004  0.001  0.002  0.007
   36  0.002  0.007  0.002  0.011
   37  0.006  0.000  0.000  0.007
tot    0.119  0.019  0.675  0.814
 
band     6 # energy   -5.60628756 # occ.  2.00000000
 
ion      s      p      d    tot
    1  0.000  0.000  0.008  0.008
    2  0.000  0.000  0.002  0.003
    3  0.000  0.000  0.002  0.003
    4  0.000  0.000  0.002  0.003
    5  0.000  0.000  0.005  0.005
    6  0.001  0.000  0.002  0.004
    7  0.000  0.000  0.002  0.003
    8  0.001  0.000  0.002  0.004
    9  0.000  0.000  0.001  0.001
   10  0.010  0.001  0.013  0.024
   11  0.001  0.001  0.023  0.025
   12  0.002  0.001  0.018  0.021
   13  0.001  0.001  0.023  0.025
   14  0.003  0.000  0.024  0.027
   15  0.001  0.000  0.012  0.013
   16  0.003  0.001  0.018  0.021
   17  0.001  0.000  0.013  0.013
   18  0.002  0.000  0.009  0.012
   19  0.005  0.001  0.021  0.027
   20  0.032  0.000  0.006  0.038
   21  0.008  0.000  0.125  0.133
   22  0.000  0.001  0.050  0.051
   23  0.008  0.000  0.122  0.130
   24  0.001  0.000  0.027  0.029
   25  0.018  0.000  0.040  0.059
   26  0.004  0.001  0.020  0.026
   27  0.000  0.001  0.049  0.050
   28  0.000  0.000  0.004  0.004
   29  0.001  0.001  0.004  0.006
   30  0.001  0.000  0.007  0.008
   31  0.001  0.001  0.005  0.006
   32  0.000  0.000  0.005  0.005
   33  0.001  0.000  0.007  0.008
   34  0.000  0.000  0.005  0.005
   35  0.000  0.000  0.001  0.001
   36  0.000  0.001  0.009  0.010
   37  0.000  0.000  0.000  0.000
tot    0.108  0.016  0.688  0.811
 
band     7 # energy   -5.60626289 # occ.  2.00000000
 
ion      s      p      d    tot
    1  0.000  0.000  0.008  0.008
    2  0.001  0.000  0.002  0.003
    3  0.001  0.000  0.002  0.003
    4  0.001  0.000  0.002  0.003
    5  0.000  0.000  0.005  0.005
    6  0.000  0.000  0.002  0.002
    7  0.001  0.000  0.002  0.003
    8  0.000  0.000  0.002  0.002
    9  0.000  0.000  0.001  0.001
   10  0.000  0.000  0.020  0.020
   11  0.002  0.000  0.024  0.026
   12  0.008  0.001  0.015  0.023
   13  0.002  0.000  0.024  0.026
   14  0.000  0.001  0.023  0.024
   15  0.002  0.000  0.010  0.012
   16  0.007  0.001  0.015  0.023
   17  0.002  0.000  0.010  0.012
   18  0.000  0.000  0.014  0.014
   19  0.014  0.001  0.034  0.048
   20  0.000  0.000  0.162  0.163
   21  0.025  0.000  0.043  0.068
   22  0.001  0.001  0.034  0.036
   23  0.024  0.000  0.046  0.071
   24  0.000  0.001  0.057  0.058
   25  0.000  0.001  0.014  0.015
   26  0.014  0.001  0.034  0.049
   27  0.001  0.001  0.035  0.036
   28  0.000  0.000  0.004  0.004
   29  0.000  0.000  0.006  0.007
   30  0.001  0.000  0.004  0.005
   31  0.000  0.000  0.006  0.007
   32  0.001  0.001  0.006  0.008
   33  0.001  0.000  0.004  0.005
   34  0.001  0.001  0.006  0.008
   35  0.000  0.000  0.001  0.001
   36  0.000  0.001  0.009  0.010
   37  0.000  0.000  0.000  0.000
tot    0.108  0.016  0.688  0.811
 
band     8 # energy   -5.59301077 # occ.  2.00000000
 
ion      s      p      d    tot
    1  0.013  0.001  0.001  0.014
    2  0.005  0.000  0.015  0.020
    3  0.005  0.000  0.015  0.020
    4  0.005  0.000  0.015  0.020
    5  0.007  0.000  0.025  0.033
    6  0.005  0.000  0.015  0.020
    7  0.005  0.000  0.015  0.020
    8  0.005  0.000  0.015  0.020
    9  0.000  0.001  0.016  0.017
   10  0.001  0.000  0.038  0.039
   11  0.000  0.000  0.046  0.046
   12  0.001  0.000  0.038  0.039
   13  0.000  0.000  0.046  0.046
   14  0.000  0.000  0.046  0.046
   15  0.009  0.000  0.012  0.022
   16  0.001  0.000  0.038  0.039
   17  0.009  0.000  0.012  0.022
   18  0.009  0.000  0.012  0.022
   19  0.005  0.000  0.005  0.010
   20  0.001  0.000  0.036  0.037
   21  0.001  0.000  0.036  0.037
   22  0.000  0.000  0.015  0.015
   23  0.001  0.000  0.036  0.037
   24  0.000  0.000  0.015  0.015
   25  0.005  0.000  0.005  0.010
   26  0.005  0.000  0.005  0.010
   27  0.000  0.000  0.015  0.015
   28  0.002  0.001  0.003  0.005
   29  0.000  0.000  0.014  0.015
   30  0.000  0.000  0.014  0.015
   31  0.000  0.000  0.014  0.015
   32  0.000  0.000  0.014  0.015
   33  0.000  0.000  0.014  0.015
   34  0.000  0.000  0.014  0.015
   35  0.000  0.000  0.000  0.000
   36  0.014  0.003  0.009  0.025
   37  0.003  0.000  0.000  0.003
tot    0.121  0.012  0.682  0.816
 
band     9 # energy   -5.58111277 # occ.  2.00000000
 
ion      s      p      d    tot
    1  0.000  0.000  0.003  0.003
    2  0.000  0.000  0.002  0.002
    3  0.001  0.000  0.006  0.008
    4  0.000  0.000  0.002  0.002
    5  0.000  0.000  0.009  0.009
    6  0.001  0.001  0.005  0.006
    7  0.001  0.000  0.006  0.008
    8  0.001  0.001  0.004  0.006
    9  0.000  0.000  0.002  0.002
   10  0.004  0.001  0.021  0.025
   11  0.008  0.001  0.077  0.086
   12  0.001  0.001  0.070  0.071
   13  0.007  0.001  0.079  0.087
   14  0.030  0.001  0.012  0.042
   15  0.003  0.001  0.014  0.018
   16  0.001  0.001  0.068  0.070
   17  0.003  0.001  0.013  0.017
   18  0.011  0.000  0.038  0.049
   19  0.001  0.000  0.028  0.029
   20  0.006  0.000  0.042  0.049
   21  0.001  0.001  0.034  0.036
   22  0.003  0.001  0.021  0.024
   23  0.002  0.001  0.034  0.037
   24  0.013  0.001  0.011  0.025
   25  0.002  0.000  0.012  0.015
   26  0.001  0.000  0.029  0.029
   27  0.003  0.001  0.021  0.024
   28  0.000  0.000  0.001  0.001
   29  0.001  0.000  0.004  0.005
   30  0.000  0.000  0.003  0.003
   31  0.001  0.000  0.004  0.005
   32  0.000  0.000  0.003  0.003
   33  0.000  0.000  0.003  0.003
   34  0.000  0.000  0.003  0.003
   35  0.000  0.000  0.006  0.006
   36  0.000  0.000  0.003  0.003
   37  0.000  0.000  0.000  0.000
tot    0.106  0.015  0.692  0.813
 
band    10 # energy   -5.58109995 # occ.  2.00000000
 
ion      s      p      d    tot
    1  0.000  0.000  0.003  0.003
    2  0.001  0.001  0.007  0.008
    3  0.000  0.000  0.002  0.003
    4  0.001  0.001  0.006  0.008
    5  0.000  0.000  0.009  0.009
    6  0.000  0.000  0.004  0.005
    7  0.000  0.000  0.002  0.003
    8  0.000  0.000  0.004  0.005
    9  0.000  0.000  0.002  0.002
   10  0.000  0.001  0.085  0.085
   11  0.022  0.001  0.035  0.058
   12  0.003  0.001  0.036  0.040
   13  0.023  0.001  0.033  0.056
   14  0.000  0.000  0.100  0.101
   15  0.008  0.001  0.029  0.038
   16  0.003  0.001  0.038  0.041
   17  0.008  0.001  0.030  0.039
   18  0.000  0.002  0.005  0.007
   19  0.002  0.000  0.018  0.020
   20  0.000  0.001  0.032  0.033
   21  0.005  0.001  0.040  0.045
   22  0.010  0.001  0.014  0.025
   23  0.005  0.001  0.039  0.045
   24  0.000  0.000  0.024  0.024
   25  0.000  0.000  0.034  0.034
   26  0.002  0.000  0.017  0.019
   27  0.009  0.001  0.015  0.025
   28  0.000  0.000  0.001  0.001
   29  0.000  0.000  0.002  0.002
   30  0.001  0.000  0.003  0.004
   31  0.000  0.000  0.002  0.002
   32  0.001  0.000  0.003  0.005
   33  0.001  0.000  0.003  0.004
   34  0.001  0.000  0.003  0.005
   35  0.000  0.000  0.006  0.006
   36  0.000  0.000  0.003  0.003
   37  0.000  0.000  0.000  0.000
tot    0.106  0.015  0.692  0.813
 
band    11 # energy   -5.56903492 # occ.  2.00000000
 
ion      s      p      d    tot
    1  0.001  0.000  0.001  0.002
    2  0.000  0.000  0.006  0.006
    3  0.000  0.000  0.006  0.006
    4  0.000  0.000  0.006  0.006
    5  0.005  0.001  0.003  0.009
    6  0.000  0.000  0.006  0.006
    7  0.000  0.000  0.006  0.006
    8  0.000  0.000  0.006  0.006
    9  0.001  0.000  0.003  0.004
   10  0.009  0.001  0.003  0.013
   11  0.013  0.001  0.048  0.062
   12  0.009  0.001  0.003  0.013
   13  0.013  0.001  0.048  0.062
   14  0.013  0.001  0.048  0.062
   15  0.000  0.000  0.044  0.044
   16  0.009  0.001  0.003  0.013
   17  0.000  0.000  0.044  0.044
   18  0.000  0.000  0.044  0.044
   19  0.012  0.001  0.028  0.041
   20  0.004  0.001  0.021  0.027
   21  0.004  0.001  0.021  0.027
   22  0.000  0.000  0.051  0.052
   23  0.004  0.001  0.021  0.027
   24  0.000  0.000  0.051  0.052
   25  0.012  0.001  0.028  0.041
   26  0.012  0.001  0.028  0.041
   27  0.000  0.000  0.051  0.052
   28  0.003  0.001  0.005  0.009
   29  0.000  0.000  0.003  0.003
   30  0.000  0.000  0.003  0.003
   31  0.000  0.000  0.003  0.003
   32  0.000  0.000  0.003  0.003
   33  0.000  0.000  0.003  0.003
   34  0.000  0.000  0.003  0.003
   35  0.001  0.000  0.005  0.006
   36  0.000  0.000  0.000  0.000
   37  0.000  0.000  0.000  0.000
tot    0.128  0.018  0.655  0.800
 
band    12 # energy   -5.53414588 # occ.  2.00000000
 
ion      s      p      d    tot
    1  0.000  0.000  0.006  0.007
    2  0.002  0.000  0.012  0.014
    3  0.002  0.000  0.012  0.014
    4  0.002  0.000  0.012  0.014
    5  0.002  0.000  0.002  0.004
    6  0.002  0.000  0.012  0.014
    7  0.002  0.000  0.012  0.014
    8  0.002  0.000  0.012  0.014
    9  0.007  0.000  0.019  0.027
   10  0.004  0.000  0.014  0.018
   11  0.000  0.000  0.010  0.011
   12  0.003  0.000  0.014  0.018
   13  0.000  0.000  0.010  0.011
   14  0.000  0.000  0.010  0.010
   15  0.001  0.000  0.046  0.047
   16  0.003  0.000  0.014  0.018
   17  0.001  0.000  0.046  0.047
   18  0.001  0.000  0.046  0.047
   19  0.001  0.001  0.012  0.014
   20  0.002  0.000  0.030  0.033
   21  0.002  0.000  0.030  0.033
   22  0.001  0.000  0.050  0.052
   23  0.002  0.000  0.030  0.033
   24  0.001  0.000  0.050  0.052
   25  0.001  0.001  0.012  0.014
   26  0.001  0.001  0.012  0.014
   27  0.001  0.000  0.050  0.052
   28  0.009  0.000  0.001  0.010
   29  0.005  0.000  0.014  0.019
   30  0.005  0.000  0.014  0.019
   31  0.005  0.000  0.014  0.019
   32  0.005  0.000  0.014  0.019
   33  0.005  0.000  0.014  0.019
   34  0.005  0.000  0.014  0.019
   35  0.007  0.000  0.029  0.036
   36  0.000  0.001  0.006  0.007
   37  0.000  0.000  0.000  0.000
tot    0.103  0.008  0.705  0.815
 
band    13 # energy   -5.53165794 # occ.  2.00000000
 
ion      s      p      d    tot
    1  0.000  0.001  0.012  0.012
    2  0.001  0.000  0.006  0.008
    3  0.001  0.001  0.010  0.012
    4  0.001  0.000  0.006  0.008
    5  0.000  0.000  0.008  0.008
    6  0.004  0.001  0.006  0.012
    7  0.001  0.001  0.010  0.012
    8  0.004  0.001  0.006  0.011
    9  0.000  0.000  0.009  0.010
   10  0.000  0.001  0.059  0.060
   11  0.000  0.000  0.035  0.035
   12  0.018  0.000  0.030  0.048
   13  0.000  0.000  0.036  0.036
   14  0.000  0.001  0.017  0.018
   15  0.013  0.000  0.035  0.048
   16  0.017  0.000  0.032  0.048
   17  0.014  0.000  0.029  0.043
   18  0.000  0.000  0.112  0.112
   19  0.002  0.000  0.022  0.024
   20  0.000  0.000  0.019  0.019
   21  0.001  0.000  0.018  0.020
   22  0.007  0.000  0.018  0.025
   23  0.001  0.000  0.018  0.020
   24  0.000  0.000  0.028  0.029
   25  0.000  0.000  0.036  0.036
   26  0.002  0.000  0.021  0.023
   27  0.006  0.000  0.019  0.025
   28  0.000  0.000  0.011  0.011
   29  0.002  0.000  0.003  0.006
   30  0.003  0.001  0.005  0.008
   31  0.002  0.000  0.003  0.006
   32  0.000  0.000  0.004  0.004
   33  0.003  0.001  0.005  0.009
   34  0.000  0.000  0.004  0.004
   35  0.000  0.000  0.004  0.004
   36  0.000  0.000  0.002  0.002
   37  0.000  0.000  0.000  0.000
tot    0.104  0.013  0.700  0.817
 
band    14 # energy   -5.53164538 # occ.  2.00000000
 
ion      s      p      d    tot
    1  0.000  0.001  0.012  0.012
    2  0.003  0.001  0.009  0.013
    3  0.003  0.001  0.005  0.009
    4  0.003  0.001  0.009  0.013
    5  0.000  0.000  0.008  0.008
    6  0.000  0.000  0.009  0.009
    7  0.004  0.001  0.005  0.009
    8  0.000  0.000  0.009  0.009
    9  0.000  0.000  0.009  0.010
   10  0.023  0.000  0.021  0.044
   11  0.000  0.001  0.024  0.024
   12  0.005  0.001  0.051  0.057
   13  0.000  0.001  0.023  0.023
   14  0.000  0.000  0.042  0.042
   15  0.005  0.000  0.083  0.088
   16  0.006  0.000  0.049  0.056
   17  0.004  0.000  0.088  0.092
   18  0.018  0.000  0.005  0.024
   19  0.001  0.000  0.030  0.031
   20  0.001  0.001  0.018  0.020
   21  0.000  0.000  0.019  0.019
   22  0.002  0.000  0.025  0.028
   23  0.000  0.000  0.019  0.020
   24  0.009  0.000  0.015  0.024
   25  0.003  0.001  0.016  0.019
   26  0.001  0.000  0.031  0.032
   27  0.002  0.000  0.025  0.027
   28  0.000  0.000  0.011  0.011
   29  0.001  0.000  0.005  0.007
   30  0.001  0.000  0.003  0.004
   31  0.001  0.000  0.005  0.006
   32  0.004  0.001  0.004  0.008
   33  0.000  0.000  0.003  0.004
   34  0.004  0.001  0.004  0.008
   35  0.000  0.000  0.004  0.004
   36  0.000  0.000  0.002  0.002
   37  0.000  0.000  0.000  0.000
tot    0.104  0.013  0.700  0.817
 
band    15 # energy   -5.52478922 # occ.  2.00000000
 
ion      s      p      d    tot
    1  0.005  0.000  0.020  0.024
    2  0.001  0.000  0.011  0.012
    3  0.001  0.000  0.011  0.012
    4  0.001  0.000  0.011  0.012
    5  0.000  0.001  0.004  0.005
    6  0.001  0.000  0.011  0.012
    7  0.001  0.000  0.011  0.012
    8  0.001  0.000  0.011  0.012
    9  0.004  0.000  0.000  0.005
   10  0.001  0.000  0.067  0.068
   11  0.007  0.000  0.009  0.016
   12  0.001  0.000  0.067  0.068
   13  0.007  0.000  0.009  0.016
   14  0.007  0.000  0.009  0.016
   15  0.003  0.000  0.029  0.033
   16  0.001  0.000  0.067  0.068
   17  0.003  0.000  0.029  0.033
   18  0.003  0.000  0.029  0.033
   19  0.001  0.000  0.038  0.039
   20  0.000  0.001  0.009  0.010
   21  0.000  0.001  0.009  0.010
   22  0.001  0.000  0.025  0.027
   23  0.000  0.001  0.009  0.010
   24  0.001  0.000  0.025  0.027
   25  0.001  0.000  0.038  0.039
   26  0.001  0.000  0.038  0.039
   27  0.001  0.000  0.025  0.027
   28  0.008  0.000  0.019  0.027
   29  0.003  0.000  0.013  0.016
   30  0.003  0.000  0.013  0.016
   31  0.003  0.000  0.013  0.016
   32  0.003  0.000  0.013  0.016
   33  0.003  0.000  0.013  0.016
   34  0.003  0.000  0.013  0.016
   35  0.000  0.000  0.009  0.010
   36  0.004  0.001  0.003  0.008
   37  0.002  0.000  0.000  0.002
tot    0.091  0.009  0.725  0.825
 
band    16 # energy   -5.52103958 # occ.  2.00000000
 
ion      s      p      d    tot
    1  0.000  0.000  0.007  0.007
    2  0.001  0.000  0.006  0.007
    3  0.002  0.000  0.006  0.008
    4  0.001  0.000  0.006  0.007
    5  0.000  0.000  0.004  0.004
    6  0.001  0.000  0.008  0.009
    7  0.002  0.000  0.005  0.008
    8  0.000  0.000  0.008  0.009
    9  0.000  0.000  0.018  0.018
   10  0.000  0.000  0.008  0.008
   11  0.002  0.000  0.022  0.024
   12  0.000  0.000  0.030  0.031
   13  0.002  0.000  0.017  0.020
   14  0.000  0.000  0.052  0.052
   15  0.001  0.000  0.035  0.037
   16  0.000  0.000  0.028  0.028
   17  0.002  0.000  0.034  0.036
   18  0.000  0.000  0.048  0.048
   19  0.006  0.000  0.034  0.040
   20  0.000  0.000  0.014  0.014
   21  0.000  0.000  0.045  0.045
   22  0.009  0.000  0.038  0.047
   23  0.000  0.000  0.041  0.041
   24  0.000  0.000  0.060  0.061
   25  0.000  0.000  0.101  0.101
   26  0.007  0.000  0.025  0.032
   27  0.008  0.000  0.041  0.049
   28  0.000  0.000  0.006  0.006
   29  0.001  0.000  0.004  0.006
   30  0.000  0.000  0.009  0.010
   31  0.001  0.000  0.005  0.006
   32  0.001  0.000  0.004  0.006
   33  0.000  0.000  0.009  0.010
   34  0.001  0.000  0.004  0.005
   35  0.000  0.000  0.011  0.011
   36  0.000  0.000  0.001  0.001
   37  0.000  0.000  0.000  0.000
tot    0.048  0.006  0.795  0.849
 
band    17 # energy   -5.52102711 # occ.  2.00000000
 
ion      s      p      d    tot
    1  0.000  0.000  0.007  0.007
    2  0.002  0.000  0.007  0.009
    3  0.000  0.000  0.007  0.008
    4  0.001  0.000  0.007  0.009
    5  0.000  0.000  0.004  0.004
    6  0.002  0.000  0.005  0.007
    7  0.000  0.000  0.008  0.008
    8  0.002  0.000  0.005  0.007
    9  0.000  0.000  0.018  0.018
   10  0.000  0.000  0.036  0.036
   11  0.001  0.000  0.039  0.040
   12  0.000  0.000  0.013  0.013
   13  0.001  0.000  0.043  0.044
   14  0.003  0.000  0.009  0.012
   15  0.001  0.000  0.043  0.044
   16  0.000  0.000  0.016  0.016
   17  0.000  0.000  0.045  0.045
   18  0.002  0.000  0.030  0.032
   19  0.003  0.000  0.073  0.075
   20  0.000  0.000  0.052  0.052
   21  0.000  0.000  0.022  0.022
   22  0.002  0.000  0.055  0.057
   23  0.000  0.000  0.025  0.026
   24  0.011  0.000  0.033  0.043
   25  0.008  0.000  0.006  0.014
   26  0.002  0.000  0.082  0.084
   27  0.003  0.000  0.052  0.055
   28  0.000  0.000  0.006  0.006
   29  0.000  0.000  0.008  0.008
   30  0.001  0.000  0.003  0.004
   31  0.001  0.000  0.007  0.008
   32  0.000  0.000  0.008  0.008
   33  0.002  0.000  0.002  0.004
   34  0.000  0.000  0.008  0.009
   35  0.000  0.000  0.011  0.011
   36  0.000  0.000  0.001  0.001
   37  0.000  0.000  0.000  0.000
tot    0.048  0.006  0.795  0.849
 
band    18 # energy   -5.40110043 # occ.  2.00000000
 
ion      s      p      d    tot
    1  0.000  0.000  0.001  0.001
    2  0.001  0.001  0.007  0.009
    3  0.000  0.000  0.007  0.007
    4  0.001  0.001  0.007  0.009
    5  0.000  0.001  0.016  0.016
    6  0.001  0.000  0.005  0.007
    7  0.000  0.000  0.007  0.007
    8  0.001  0.000  0.005  0.007
    9  0.000  0.000  0.009  0.010
   10  0.000  0.001  0.025  0.027
   11  0.001  0.000  0.072  0.073
   12  0.000  0.000  0.014  0.015
   13  0.001  0.000  0.072  0.073
   14  0.003  0.000  0.046  0.048
   15  0.001  0.000  0.017  0.018
   16  0.000  0.000  0.014  0.015
   17  0.001  0.000  0.017  0.018
   18  0.002  0.000  0.028  0.031
   19  0.000  0.000  0.007  0.007
   20  0.003  0.000  0.073  0.076
   21  0.001  0.000  0.100  0.100
   22  0.000  0.000  0.036  0.036
   23  0.001  0.000  0.099  0.100
   24  0.000  0.001  0.021  0.022
   25  0.001  0.001  0.026  0.027
   26  0.000  0.000  0.007  0.007
   27  0.000  0.000  0.035  0.036
   28  0.000  0.000  0.003  0.003
   29  0.000  0.000  0.006  0.007
   30  0.000  0.000  0.008  0.008
   31  0.000  0.000  0.006  0.006
   32  0.001  0.001  0.007  0.010
   33  0.000  0.000  0.008  0.008
   34  0.001  0.001  0.007  0.009
   35  0.000  0.000  0.000  0.001
   36  0.000  0.002  0.010  0.012
   37  0.000  0.000  0.000  0.000
tot    0.022  0.015  0.831  0.869
 
band    19 # energy   -5.40107003 # occ.  2.00000000
 
ion      s      p      d    tot
    1  0.000  0.000  0.001  0.001
    2  0.001  0.000  0.006  0.007
    3  0.002  0.001  0.006  0.008
    4  0.001  0.000  0.006  0.007
    5  0.000  0.001  0.016  0.016
    6  0.000  0.000  0.008  0.009
    7  0.002  0.001  0.006  0.008
    8  0.000  0.000  0.008  0.009
    9  0.000  0.000  0.009  0.010
   10  0.000  0.000  0.011  0.011
   11  0.002  0.000  0.055  0.057
   12  0.000  0.001  0.022  0.023
   13  0.002  0.000  0.054  0.057
   14  0.000  0.000  0.081  0.081
   15  0.002  0.000  0.024  0.026
   16  0.000  0.001  0.022  0.023
   17  0.002  0.000  0.024  0.026
   18  0.000  0.000  0.013  0.013
   19  0.000  0.001  0.019  0.021
   20  0.000  0.000  0.108  0.109
   21  0.002  0.000  0.082  0.084
   22  0.000  0.001  0.026  0.027
   23  0.002  0.000  0.082  0.084
   24  0.000  0.000  0.040  0.040
   25  0.000  0.000  0.000  0.000
   26  0.000  0.001  0.020  0.021
   27  0.000  0.001  0.026  0.027
   28  0.000  0.000  0.003  0.003
   29  0.001  0.001  0.008  0.010
   30  0.001  0.001  0.006  0.008
   31  0.001  0.001  0.008  0.010
   32  0.000  0.000  0.007  0.007
   33  0.001  0.001  0.006  0.008
   34  0.000  0.000  0.007  0.007
   35  0.000  0.000  0.000  0.001
   36  0.000  0.002  0.010  0.012
   37  0.000  0.000  0.000  0.000
tot    0.022  0.015  0.831  0.869
 
band    20 # energy   -5.38883643 # occ.  2.00000000
 
ion      s      p      d    tot
    1  0.000  0.000  0.000  0.001
    2  0.000  0.000  0.005  0.005
    3  0.000  0.000  0.005  0.005
    4  0.000  0.000  0.005  0.005
    5  0.000  0.000  0.015  0.016
    6  0.000  0.000  0.005  0.005
    7  0.000  0.000  0.005  0.005
    8  0.000  0.000  0.005  0.005
    9  0.001  0.001  0.009  0.011
   10  0.000  0.000  0.013  0.013
   11  0.000  0.001  0.076  0.077
   12  0.000  0.000  0.013  0.013
   13  0.000  0.001  0.076  0.077
   14  0.000  0.001  0.076  0.077
   15  0.000  0.001  0.043  0.044
   16  0.000  0.000  0.013  0.013
   17  0.000  0.001  0.043  0.044
   18  0.000  0.001  0.043  0.044
   19  0.000  0.000  0.014  0.015
   20  0.001  0.001  0.067  0.069
   21  0.001  0.001  0.067  0.069
   22  0.003  0.000  0.023  0.026
   23  0.001  0.001  0.067  0.069
   24  0.003  0.000  0.023  0.026
   25  0.000  0.000  0.014  0.015
   26  0.000  0.000  0.014  0.015
   27  0.003  0.000  0.023  0.026
   28  0.003  0.001  0.000  0.004
   29  0.000  0.000  0.011  0.011
   30  0.000  0.000  0.011  0.011
   31  0.000  0.000  0.011  0.011
   32  0.000  0.000  0.011  0.011
   33  0.000  0.000  0.011  0.011
   34  0.000  0.000  0.011  0.011
   35  0.002  0.000  0.002  0.004
   36  0.001  0.002  0.001  0.004
   37  0.002  0.000  0.000  0.002
tot    0.024  0.015  0.830  0.869
 
band    21 # energy   -5.36358268 # occ.  2.00000000
 
ion      s      p      d    tot
    1  0.000  0.000  0.004  0.004
    2  0.000  0.001  0.013  0.014
    3  0.000  0.001  0.013  0.014
    4  0.000  0.001  0.013  0.014
    5  0.005  0.001  0.000  0.006
    6  0.000  0.001  0.013  0.014
    7  0.000  0.001  0.013  0.014
    8  0.000  0.001  0.013  0.014
    9  0.003  0.000  0.002  0.005
   10  0.002  0.001  0.041  0.044
   11  0.000  0.000  0.029  0.029
   12  0.002  0.001  0.041  0.044
   13  0.000  0.000  0.029  0.029
   14  0.000  0.000  0.029  0.029
   15  0.004  0.000  0.018  0.022
   16  0.002  0.001  0.041  0.044
   17  0.004  0.000  0.018  0.022
   18  0.004  0.000  0.018  0.022
   19  0.001  0.000  0.056  0.057
   20  0.001  0.000  0.010  0.011
   21  0.001  0.000  0.010  0.011
   22  0.000  0.001  0.042  0.043
   23  0.001  0.000  0.010  0.011
   24  0.000  0.001  0.041  0.043
   25  0.001  0.000  0.056  0.057
   26  0.001  0.000  0.056  0.057
   27  0.000  0.001  0.042  0.043
   28  0.002  0.000  0.025  0.026
   29  0.001  0.000  0.013  0.014
   30  0.001  0.000  0.013  0.014
   31  0.001  0.000  0.013  0.014
   32  0.001  0.000  0.013  0.014
   33  0.001  0.000  0.013  0.014
   34  0.001  0.000  0.013  0.014
   35  0.008  0.001  0.000  0.009
   36  0.002  0.000  0.000  0.003