PROCAR new format
# of k-points:   10         # of bands:  252         # of ions:   38

 k-point     1 :    0.00000000 0.00000000 0.00000000     weight = 0.01562500

band     1 # energy  -22.75241086 # occ.  2.00000000
 
ion      s      p      d    tot
    1  0.000  0.000  0.000  0.000
    2  0.000  0.000  0.000  0.000
    3  0.000  0.000  0.000  0.000
    4  0.000  0.000  0.000  0.000
    5  0.000  0.000  0.000  0.000
    6  0.000  0.000  0.000  0.000
    7  0.000  0.000  0.000  0.000
    8  0.000  0.000  0.000  0.000
    9  0.000  0.000  0.000  0.000
   10  0.000  0.000  0.000  0.000
   11  0.000  0.000  0.000  0.000
   12  0.000  0.000  0.000  0.000
   13  0.000  0.000  0.000  0.000
   14  0.000  0.000  0.000  0.000
   15  0.000  0.000  0.000  0.000
   16  0.000  0.000  0.000  0.000
   17  0.000  0.000  0.000  0.000
   18  0.000  0.000  0.000  0.000
   19  0.000  0.000  0.000  0.000
   20  0.000  0.000  0.000  0.000
   21  0.000  0.000  0.000  0.000
   22  0.000  0.000  0.000  0.000
   23  0.000  0.000  0.000  0.000
   24  0.000  0.000  0.000  0.000
   25  0.000  0.000  0.000  0.000
   26  0.000  0.000  0.000  0.000
   27  0.000  0.000  0.000  0.000
   28  0.000  0.000  0.000  0.000
   29  0.000  0.000  0.000  0.000
   30  0.000  0.000  0.000  0.000
   31  0.000  0.000  0.000  0.000
   32  0.000  0.000  0.000  0.000
   33  0.000  0.000  0.000  0.000
   34  0.000  0.000  0.000  0.000
   35  0.000  0.000  0.000  0.000
   36  0.000  0.000  0.000  0.000
   37  0.157  0.114  0.000  0.271
   38  0.638  0.093  0.000  0.731
tot    0.795  0.208  0.000  1.003
 
band     2 # energy   -8.61844965 # occ.  2.00000000
 
ion      s      p      d    tot
    1  0.000  0.000  0.000  0.000
    2  0.000  0.000  0.000  0.000
    3  0.000  0.000  0.000  0.000
    4  0.000  0.000  0.000  0.000
    5  0.000  0.000  0.000  0.000
    6  0.000  0.000  0.000  0.000
    7  0.000  0.000  0.000  0.000
    8  0.000  0.000  0.000  0.000
    9  0.000  0.000  0.000  0.000
   10  0.000  0.000  0.000  0.000
   11  0.000  0.000  0.000  0.000
   12  0.000  0.000  0.000  0.000
   13  0.000  0.000  0.000  0.000
   14  0.000  0.000  0.000  0.000
   15  0.000  0.000  0.000  0.000
   16  0.000  0.000  0.000  0.000
   17  0.000  0.000  0.000  0.000
   18  0.000  0.000  0.000  0.000
   19  0.000  0.000  0.000  0.000
   20  0.000  0.000  0.000  0.001
   21  0.000  0.000  0.000  0.001
   22  0.000  0.000  0.000  0.000
   23  0.000  0.000  0.000  0.001
   24  0.000  0.000  0.000  0.000
   25  0.000  0.000  0.000  0.000
   26  0.000  0.000  0.000  0.000
   27  0.000  0.000  0.000  0.000
   28  0.000  0.000  0.000  0.000
   29  0.001  0.000  0.001  0.002
   30  0.001  0.000  0.001  0.002
   31  0.001  0.000  0.001  0.002
   32  0.001  0.000  0.001  0.002
   33  0.001  0.000  0.001  0.002
   34  0.001  0.000  0.001  0.002
   35  0.000  0.000  0.000  0.000
   36  0.053  0.031  0.045  0.130
   37  0.284  0.009  0.000  0.292
   38  0.136  0.198  0.000  0.335
tot    0.480  0.240  0.051  0.771
 
band     3 # energy   -6.32640316 # occ.  2.00000000
 
ion      s      p      d    tot
    1  0.003  0.000  0.000  0.004
    2  0.003  0.000  0.000  0.004
    3  0.003  0.000  0.000  0.004
    4  0.003  0.000  0.000  0.004
    5  0.003  0.000  0.000  0.003
    6  0.003  0.000  0.000  0.004
    7  0.003  0.000  0.000  0.004
    8  0.003  0.000  0.000  0.004
    9  0.003  0.000  0.000  0.003
   10  0.014  0.000  0.000  0.014
   11  0.014  0.000  0.000  0.014
   12  0.014  0.000  0.000  0.014
   13  0.014  0.000  0.000  0.014
   14  0.014  0.000  0.000  0.014
   15  0.013  0.000  0.000  0.014
   16  0.014  0.000  0.000  0.014
   17  0.013  0.000  0.000  0.014
   18  0.013  0.000  0.000  0.014
   19  0.016  0.000  0.000  0.016
   20  0.022  0.000  0.001  0.023
   21  0.022  0.000  0.001  0.023
   22  0.016  0.000  0.000  0.016
   23  0.022  0.000  0.001  0.023
   24  0.016  0.000  0.000  0.016
   25  0.016  0.000  0.000  0.016
   26  0.016  0.000  0.000  0.016
   27  0.016  0.000  0.000  0.016
   28  0.005  0.000  0.000  0.005
   29  0.007  0.000  0.001  0.008
   30  0.007  0.000  0.001  0.008
   31  0.007  0.000  0.001  0.008
   32  0.007  0.000  0.001  0.008
   33  0.007  0.000  0.001  0.008
   34  0.007  0.000  0.001  0.008
   35  0.005  0.000  0.000  0.005
   36  0.042  0.003  0.016  0.061
   37  0.000  0.061  0.000  0.061
   38  0.013  0.113  0.000  0.126
tot    0.422  0.184  0.026  0.632
 
band     4 # energy   -5.99961962 # occ.  2.00000000
 
ion      s      p      d    tot
    1  0.004  0.000  0.000  0.004
    2  0.004  0.000  0.000  0.005
    3  0.004  0.000  0.000  0.005
    4  0.004  0.000  0.000  0.005
    5  0.004  0.000  0.000  0.005
    6  0.004  0.000  0.000  0.005
    7  0.004  0.000  0.000  0.005
    8  0.004  0.000  0.000  0.005
    9  0.004  0.000  0.000  0.005
   10  0.011  0.000  0.001  0.012
   11  0.012  0.000  0.001  0.012
   12  0.011  0.000  0.001  0.012
   13  0.012  0.000  0.001  0.012
   14  0.012  0.000  0.001  0.012
   15  0.013  0.000  0.000  0.014
   16  0.011  0.000  0.001  0.012
   17  0.013  0.000  0.000  0.014
   18  0.013  0.000  0.000  0.014
   19  0.006  0.000  0.000  0.006
   20  0.002  0.001  0.004  0.007
   21  0.002  0.001  0.004  0.007
   22  0.006  0.000  0.000  0.007
   23  0.002  0.001  0.004  0.007
   24  0.006  0.000  0.000  0.007
   25  0.006  0.000  0.000  0.006
   26  0.006  0.000  0.000  0.006
   27  0.006  0.000  0.000  0.007
   28  0.000  0.000  0.001  0.001
   29  0.000  0.001  0.004  0.004
   30  0.000  0.001  0.004  0.004
   31  0.000  0.001  0.004  0.004
   32  0.000  0.001  0.004  0.004
   33  0.000  0.001  0.004  0.004
   34  0.000  0.001  0.004  0.004
   35  0.000  0.000  0.000  0.001
   36  0.051  0.021  0.053  0.126
   37  0.009  0.143  0.000  0.152
   38  0.018  0.203  0.000  0.221
tot    0.267  0.380  0.097  0.743
 
band     5 # energy   -5.70496567 # occ.  2.00000000
 
ion      s      p      d    tot
    1  0.000  0.000  0.000  0.000
    2  0.000  0.000  0.000  0.000
    3  0.000  0.000  0.000  0.000
    4  0.000  0.000  0.000  0.000
    5  0.000  0.000  0.000  0.000
    6  0.000  0.000  0.000  0.000
    7  0.000  0.000  0.000  0.000
    8  0.000  0.000  0.000  0.000
    9  0.000  0.000  0.000  0.000
   10  0.000  0.000  0.000  0.000
   11  0.000  0.000  0.000  0.000
   12  0.000  0.000  0.000  0.000
   13  0.000  0.000  0.000  0.000
   14  0.000  0.000  0.000  0.000
   15  0.000  0.000  0.000  0.000
   16  0.000  0.000  0.000  0.000
   17  0.000  0.000  0.000  0.000
   18  0.000  0.000  0.000  0.000
   19  0.000  0.000  0.000  0.000
   20  0.000  0.000  0.000  0.000
   21  0.000  0.000  0.000  0.000
   22  0.000  0.000  0.000  0.000
   23  0.000  0.000  0.000  0.000
   24  0.000  0.000  0.000  0.000
   25  0.000  0.000  0.000  0.000
   26  0.000  0.000  0.000  0.000
   27  0.000  0.000  0.000  0.000
   28  0.000  0.000  0.000  0.000
   29  0.001  0.000  0.002  0.004
   30  0.000  0.000  0.001  0.001
   31  0.001  0.000  0.002  0.004
   32  0.001  0.000  0.002  0.004
   33  0.000  0.000  0.001  0.001
   34  0.001  0.000  0.002  0.004
   35  0.000  0.000  0.000  0.000
   36  0.000  0.004  0.018  0.022
   37  0.000  0.176  0.000  0.176
   38  0.000  0.450  0.000  0.450
tot    0.005  0.632  0.031  0.668
 
band     6 # energy   -5.70482614 # occ.  2.00000000
 
ion      s      p      d    tot
    1  0.000  0.000  0.000  0.000
    2  0.000  0.000  0.000  0.000
    3  0.000  0.000  0.000  0.000
    4  0.000  0.000  0.000  0.000
    5  0.000  0.000  0.000  0.000
    6  0.000  0.000  0.000  0.000
    7  0.000  0.000  0.000  0.000
    8  0.000  0.000  0.000  0.000
    9  0.000  0.000  0.000  0.000
   10  0.000  0.000  0.000  0.000
   11  0.000  0.000  0.000  0.000
   12  0.000  0.000  0.000  0.000
   13  0.000  0.000  0.000  0.000
   14  0.000  0.000  0.000  0.000
   15  0.000  0.000  0.000  0.000
   16  0.000  0.000  0.000  0.000
   17  0.000  0.000  0.000  0.000
   18  0.000  0.000  0.000  0.000
   19  0.000  0.000  0.000  0.000
   20  0.000  0.000  0.000  0.000
   21  0.000  0.000  0.000  0.000
   22  0.000  0.000  0.000  0.000
   23  0.000  0.000  0.000  0.000
   24  0.000  0.000  0.000  0.000
   25  0.000  0.000  0.000  0.000
   26  0.000  0.000  0.000  0.000
   27  0.000  0.000  0.000  0.000
   28  0.000  0.000  0.000  0.000
   29  0.000  0.000  0.002  0.002
   30  0.002  0.001  0.003  0.005
   31  0.000  0.000  0.002  0.002
   32  0.000  0.000  0.001  0.002
   33  0.002  0.001  0.003  0.005
   34  0.000  0.000  0.001  0.002
   35  0.000  0.000  0.000  0.000
   36  0.000  0.004  0.018  0.022
   37  0.000  0.176  0.000  0.176
   38  0.000  0.450  0.000  0.450
tot    0.005  0.632  0.031  0.668
 
band     7 # energy   -5.32555970 # occ.  2.00000000
 
ion      s      p      d    tot
    1  0.007  0.000  0.000  0.007
    2  0.006  0.000  0.000  0.006
    3  0.006  0.000  0.000  0.006
    4  0.006  0.000  0.000  0.006
    5  0.005  0.000  0.000  0.006
    6  0.006  0.000  0.000  0.006
    7  0.006  0.000  0.000  0.006
    8  0.006  0.000  0.000  0.006
    9  0.005  0.000  0.000  0.006
   10  0.010  0.001  0.015  0.026
   11  0.008  0.001  0.017  0.026
   12  0.010  0.001  0.015  0.026
   13  0.008  0.001  0.017  0.026
   14  0.008  0.001  0.017  0.026
   15  0.007  0.001  0.017  0.026
   16  0.010  0.001  0.015  0.026
   17  0.007  0.001  0.017  0.026
   18  0.007  0.001  0.017  0.026
   19  0.014  0.001  0.022  0.037
   20  0.011  0.000  0.026  0.038
   21  0.011  0.000  0.026  0.038
   22  0.016  0.001  0.021  0.038
   23  0.011  0.000  0.026  0.038
   24  0.016  0.001  0.021  0.038
   25  0.014  0.001  0.022  0.037
   26  0.014  0.001  0.022  0.037
   27  0.016  0.001  0.021  0.038
   28  0.005  0.001  0.000  0.006
   29  0.003  0.001  0.002  0.005
   30  0.003  0.001  0.002  0.005
   31  0.003  0.001  0.002  0.005
   32  0.003  0.001  0.002  0.005
   33  0.003  0.001  0.002  0.005
   34  0.003  0.001  0.002  0.005
   35  0.005  0.001  0.000  0.006
   36  0.000  0.004  0.004  0.008
   37  0.002  0.008  0.000  0.010
   38  0.000  0.007  0.000  0.007
tot    0.284  0.039  0.374  0.696
 
band     8 # energy   -5.06138920 # occ.  2.00000000
 
ion      s      p      d    tot
    1  0.021  0.000  0.028  0.049
    2  0.018  0.000  0.029  0.047
    3  0.018  0.000  0.029  0.047
    4  0.018  0.000  0.029  0.047
    5  0.016  0.000  0.030  0.046
    6  0.018  0.000  0.029  0.047
    7  0.018  0.000  0.029  0.047
    8  0.018  0.000  0.029  0.047
    9  0.016  0.000  0.030  0.046
   10  0.000  0.001  0.024  0.024
   11  0.001  0.001  0.020  0.022
   12  0.000  0.001  0.024  0.024
   13  0.001  0.001  0.020  0.022
   14  0.001  0.001  0.020  0.022
   15  0.001  0.001  0.020  0.022
   16  0.000  0.001  0.024  0.024
   17  0.001  0.001  0.020  0.022
   18  0.001  0.001  0.020  0.022
   19  0.000  0.000  0.004  0.005
   20  0.000  0.000  0.005  0.005
   21  0.000  0.000  0.005  0.005
   22  0.001  0.000  0.007  0.008
   23  0.000  0.000  0.005  0.005
   24  0.001  0.000  0.007  0.008
   25  0.000  0.000  0.004  0.005
   26  0.000  0.000  0.004  0.005
   27  0.001  0.000  0.007  0.008
   28  0.005  0.000  0.003  0.008
   29  0.004  0.000  0.005  0.009
   30  0.004  0.000  0.005  0.009
   31  0.004  0.000  0.005  0.009
   32  0.004  0.000  0.005  0.009
   33  0.004  0.000  0.005  0.009
   34  0.004  0.000  0.005  0.009
   35  0.006  0.000  0.004  0.010
   36  0.000  0.000  0.004  0.005
   37  0.001  0.002  0.000  0.002
   38  0.000  0.001  0.000  0.001
tot    0.204  0.011  0.541  0.756
 
band     9 # energy   -4.95834324 # occ.  2.00000000
 
ion      s      p      d    tot
    1  0.000  0.000  0.005  0.005
    2  0.000  0.000  0.006  0.006
    3  0.000  0.000  0.006  0.006
    4  0.000  0.000  0.006  0.006
    5  0.001  0.001  0.002  0.003
    6  0.000  0.000  0.005  0.006
    7  0.000  0.000  0.006  0.006
    8  0.000  0.000  0.005  0.006
    9  0.005  0.001  0.004  0.010
   10  0.000  0.000  0.047  0.047
   11  0.013  0.001  0.007  0.021
   12  0.000  0.000  0.047  0.047
   13  0.013  0.001  0.007  0.021
   14  0.012  0.001  0.007  0.021
   15  0.010  0.000  0.056  0.067
   16  0.000  0.000  0.047  0.047
   17  0.010  0.000  0.056  0.067
   18  0.010  0.000  0.057  0.067
   19  0.002  0.000  0.043  0.045
   20  0.013  0.001  0.019  0.033
   21  0.013  0.001  0.019  0.033
   22  0.002  0.001  0.016  0.019
   23  0.013  0.001  0.019  0.033
   24  0.002  0.001  0.016  0.019
   25  0.002  0.000  0.043  0.045
   26  0.002  0.000  0.043  0.045
   27  0.002  0.001  0.016  0.019
   28  0.004  0.000  0.001  0.005
   29  0.000  0.000  0.006  0.006
   30  0.000  0.000  0.006  0.006
   31  0.000  0.000  0.006  0.006
   32  0.000  0.000  0.006  0.006
   33  0.000  0.000  0.006  0.006
   34  0.000  0.000  0.006  0.006
   35  0.000  0.000  0.001  0.001
   36  0.000  0.002  0.000  0.003
   37  0.000  0.001  0.000  0.001
   38  0.000  0.001  0.000  0.001
tot    0.131  0.021  0.648  0.799
 
band    10 # energy   -4.95312679 # occ.  2.00000000
 
ion      s      p      d    tot
    1  0.000  0.000  0.006  0.007
    2  0.000  0.000  0.005  0.005
    3  0.000  0.000  0.005  0.005
    4  0.000  0.000  0.005  0.005
    5  0.005  0.000  0.001  0.006
    6  0.000  0.000  0.005  0.005
    7  0.000  0.000  0.005  0.005
    8  0.000  0.000  0.005  0.005
    9  0.000  0.000  0.001  0.001
   10  0.009  0.001  0.019  0.030
   11  0.002  0.000  0.041  0.044
   12  0.010  0.001  0.021  0.031
   13  0.002  0.000  0.041  0.044
   14  0.001  0.000  0.042  0.043
   15  0.002  0.001  0.017  0.019
   16  0.010  0.001  0.020  0.031
   17  0.001  0.001  0.017  0.019
   18  0.002  0.001  0.018  0.020
   19  0.015  0.001  0.010  0.027
   20  0.000  0.001  0.038  0.039
   21  0.000  0.001  0.034  0.035
   22  0.008  0.000  0.073  0.081
   23  0.000  0.001  0.035  0.036
   24  0.006  0.000  0.075  0.081
   25  0.015  0.001  0.010  0.025
   26  0.015  0.001  0.011  0.027
   27  0.008  0.000  0.073  0.081
   28  0.002  0.001  0.005  0.007
   29  0.000  0.000  0.005  0.005
   30  0.000  0.000  0.005  0.005
   31  0.000  0.000  0.005  0.005
   32  0.000  0.000  0.004  0.005
   33  0.000  0.000  0.005  0.005
   34  0.000  0.000  0.005  0.005
   35  0.003  0.001  0.006  0.010
   36  0.000  0.000  0.000  0.001
   37  0.000  0.000  0.000  0.001
   38  0.000  0.000  0.000  0.000
tot    0.120  0.017  0.669  0.806
 
band    11 # energy   -4.95253494 # occ.  2.00000000
 
ion      s      p      d    tot
    1  0.000  0.000  0.001  0.001
    2  0.000  0.000  0.003  0.003
    3  0.002  0.001  0.005  0.007
    4  0.001  0.000  0.004  0.004
    5  0.000  0.000  0.009  0.010
    6  0.002  0.001  0.004  0.006
    7  0.001  0.000  0.005  0.006
    8  0.000  0.000  0.003  0.004
    9  0.000  0.000  0.005  0.005
   10  0.002  0.000  0.020  0.022
   11  0.012  0.001  0.036  0.049
   12  0.000  0.000  0.046  0.047
   13  0.001  0.000  0.065  0.067
   14  0.023  0.001  0.011  0.034
   15  0.008  0.001  0.024  0.032
   16  0.001  0.000  0.031  0.032
   17  0.001  0.001  0.014  0.016
   18  0.013  0.000  0.031  0.044
   19  0.001  0.000  0.033  0.035
   20  0.011  0.000  0.030  0.041
   21  0.001  0.002  0.014  0.016
   22  0.001  0.000  0.074  0.075
   23  0.006  0.001  0.025  0.032
   24  0.025  0.001  0.011  0.037
   25  0.003  0.000  0.020  0.024
   26  0.000  0.000  0.051  0.052
   27  0.013  0.001  0.041  0.055
   28  0.000  0.000  0.002  0.002
   29  0.002  0.001  0.005  0.008
   30  0.000  0.000  0.002  0.002
   31  0.001  0.000  0.005  0.006
   32  0.001  0.000  0.003  0.003
   33  0.000  0.000  0.004  0.004
   34  0.002  0.001  0.004  0.007
   35  0.000  0.000  0.009  0.009
   36  0.000  0.000  0.000  0.001
   37  0.000  0.000  0.000  0.000
   38  0.000  0.000  0.000  0.000
tot    0.132  0.018  0.650  0.800
 
band    12 # energy   -4.95252032 # occ.  2.00000000
 
ion      s      p      d    tot
    1  0.000  0.000  0.001  0.001
    2  0.002  0.001  0.005  0.008
    3  0.000  0.000  0.003  0.003
    4  0.001  0.001  0.004  0.006
    5  0.000  0.000  0.009  0.010
    6  0.000  0.000  0.003  0.004
    7  0.001  0.000  0.003  0.004
    8  0.002  0.000  0.005  0.007
    9  0.000  0.000  0.005  0.005
   10  0.000  0.000  0.046  0.046
   11  0.012  0.001  0.039  0.051
   12  0.001  0.000  0.019  0.020
   13  0.023  0.001  0.009  0.033
   14  0.002  0.000  0.064  0.066
   15  0.006  0.001  0.022  0.030
   16  0.001  0.000  0.034  0.035
   17  0.013  0.000  0.033  0.046
   18  0.001  0.001  0.014  0.017
   19  0.001  0.000  0.036  0.038
   20  0.001  0.001  0.014  0.016
   21  0.011  0.000  0.033  0.045
   22  0.024  0.001  0.011  0.036
   23  0.006  0.001  0.021  0.028
   24  0.002  0.000  0.071  0.074
   25  0.000  0.000  0.050  0.051
   26  0.002  0.000  0.018  0.021
   27  0.013  0.001  0.043  0.057
   28  0.000  0.000  0.002  0.002
   29  0.000  0.000  0.002  0.002
   30  0.002  0.001  0.005  0.008
   31  0.001  0.000  0.003  0.004
   32  0.001  0.000  0.005  0.007
   33  0.002  0.001  0.004  0.006
   34  0.000  0.000  0.003  0.004
   35  0.000  0.000  0.009  0.009
   36  0.000  0.000  0.000  0.001
   37  0.000  0.000  0.000  0.000
   38  0.000  0.000  0.000  0.000
tot    0.132  0.018  0.650  0.800
 
band    13 # energy   -4.94851426 # occ.  2.00000000
 
ion      s      p      d    tot
    1  0.000  0.000  0.008  0.009
    2  0.000  0.000  0.003  0.003
    3  0.001  0.001  0.005  0.007
    4  0.001  0.000  0.004  0.005
    5  0.000  0.000  0.001  0.001
    6  0.002  0.001  0.005  0.007
    7  0.001  0.000  0.003  0.004
    8  0.000  0.000  0.002  0.003
    9  0.000  0.000  0.005  0.006
   10  0.008  0.001  0.029  0.038
   11  0.000  0.001  0.026  0.028
   12  0.023  0.001  0.023  0.047
   13  0.001  0.000  0.033  0.035
   14  0.000  0.001  0.028  0.029
   15  0.002  0.000  0.073  0.076
   16  0.004  0.001  0.031  0.036
   17  0.014  0.001  0.006  0.021
   18  0.005  0.000  0.059  0.065
   19  0.003  0.001  0.026  0.031
   20  0.005  0.000  0.055  0.060
   21  0.014  0.001  0.007  0.021
   22  0.001  0.000  0.032  0.033
   23  0.002  0.000  0.068  0.070
   24  0.000  0.001  0.030  0.031
   25  0.007  0.001  0.026  0.034
   26  0.020  0.001  0.023  0.044
   27  0.000  0.001  0.030  0.031
   28  0.000  0.000  0.006  0.006
   29  0.001  0.000  0.005  0.006
   30  0.000  0.000  0.002  0.003
   31  0.000  0.000  0.003  0.003
   32  0.000  0.000  0.002  0.002
   33  0.001  0.000  0.003  0.004
   34  0.001  0.000  0.005  0.006
   35  0.000  0.000  0.001  0.001
   36  0.000  0.000  0.001  0.001
   37  0.000  0.000  0.000  0.000
   38  0.000  0.001  0.000  0.001
tot    0.119  0.017  0.671  0.806
 
band    14 # energy   -4.94850588 # occ.  2.00000000
 
ion      s      p      d    tot
    1  0.000  0.000  0.008  0.009
    2  0.001  0.000  0.005  0.007
    3  0.000  0.000  0.003  0.003
    4  0.001  0.000  0.004  0.005
    5  0.000  0.000  0.001  0.001
    6  0.000  0.000  0.002  0.003
    7  0.001  0.000  0.004  0.006
    8  0.002  0.000  0.005  0.007
    9  0.000  0.000  0.005  0.006
   10  0.015  0.001  0.026  0.042
   11  0.001  0.000  0.032  0.033
   12  0.000  0.001  0.032  0.033
   13  0.000  0.001  0.025  0.026
   14  0.001  0.001  0.030  0.032
   15  0.012  0.001  0.019  0.032
   16  0.019  0.001  0.025  0.045
   17  0.000  0.000  0.086  0.087
   18  0.009  0.000  0.033  0.043
   19  0.017  0.001  0.024  0.041
   20  0.009  0.001  0.031  0.041
   21  0.000  0.000  0.080  0.080
   22  0.000  0.001  0.029  0.030
   23  0.012  0.001  0.019  0.031
   24  0.000  0.000  0.031  0.032
   25  0.013  0.001  0.024  0.039
   26  0.000  0.001  0.027  0.029
   27  0.001  0.000  0.032  0.033
   28  0.000  0.000  0.006  0.006
   29  0.000  0.000  0.002  0.002
   30  0.001  0.000  0.004  0.006
   31  0.001  0.000  0.004  0.005
   32  0.001  0.000  0.004  0.006
   33  0.001  0.000  0.003  0.004
   34  0.000  0.000  0.002  0.002
   35  0.000  0.000  0.001  0.001
   36  0.000  0.000  0.001  0.001
   37  0.000  0.000  0.000  0.000
   38  0.000  0.001  0.000  0.001
tot    0.119  0.017  0.671  0.806
 
band    15 # energy   -4.93181356 # occ.  2.00000000
 
ion      s      p      d    tot
    1  0.000  0.001  0.016  0.017
    2  0.001  0.000  0.009  0.010
    3  0.001  0.000  0.009  0.010
    4  0.001  0.000  0.009  0.010
    5  0.000  0.000  0.002  0.002
    6  0.001  0.000  0.009  0.010
    7  0.001  0.000  0.009  0.010
    8  0.001  0.000  0.009  0.010
    9  0.008  0.000  0.004  0.012
   10  0.007  0.000  0.027  0.035
   11  0.000  0.000  0.059  0.059
   12  0.007  0.000  0.027  0.035
   13  0.000  0.000  0.059  0.059
   14  0.000  0.000  0.059  0.059
   15  0.001  0.000  0.020  0.022
   16  0.007  0.000  0.027  0.035
   17  0.001  0.000  0.020  0.022
   18  0.001  0.000  0.020  0.022
   19  0.001  0.001  0.005  0.007
   20  0.001  0.000  0.035  0.036
   21  0.001  0.000  0.035  0.036
   22  0.001  0.000  0.045  0.047
   23  0.001  0.000  0.035  0.036
   24  0.001  0.000  0.045  0.047
   25  0.001  0.001  0.005  0.007
   26  0.001  0.001  0.005  0.007
   27  0.001  0.000  0.045  0.047
   28  0.008  0.000  0.001  0.010
   29  0.002  0.000  0.014  0.016
   30  0.002  0.000  0.014  0.016
   31  0.002  0.000  0.014  0.016
   32  0.002  0.000  0.014  0.016
   33  0.002  0.000  0.014  0.016
   34  0.002  0.000  0.014  0.016
   35  0.003  0.000  0.018  0.021
   36  0.001  0.000  0.000  0.001
   37  0.000  0.000  0.000  0.000
   38  0.000  0.000  0.000  0.000
tot    0.072  0.007  0.754  0.834
 
band    16 # energy   -4.91398711 # occ.  2.00000000
 
ion      s      p      d    tot
    1  0.000  0.000  0.019  0.019
    2  0.003  0.000  0.005  0.008
    3  0.000  0.000  0.009  0.010
    4  0.003  0.000  0.006  0.009
    5  0.000  0.000  0.005  0.005
    6  0.001  0.000  0.008  0.009
    7  0.001  0.000  0.009  0.010
    8  0.001  0.000  0.007  0.008
    9  0.000  0.000  0.008  0.008
   10  0.000  0.000  0.041  0.041
   11  0.000  0.000  0.029  0.029
   12  0.003  0.000  0.037  0.040
   13  0.001  0.000  0.030  0.031
   14  0.000  0.000  0.017  0.017
   15  0.005  0.000  0.028  0.033
   16  0.003  0.000  0.037  0.040
   17  0.006  0.000  0.021  0.026
   18  0.000  0.000  0.076  0.076
   19  0.005  0.000  0.036  0.042
   20  0.000  0.000  0.075  0.075
   21  0.005  0.000  0.022  0.027
   22  0.000  0.000  0.035  0.035
   23  0.004  0.000  0.029  0.034
   24  0.000  0.000  0.011  0.012
   25  0.000  0.000  0.060  0.060
   26  0.006  0.000  0.032  0.039
   27  0.000  0.000  0.032  0.032
   28  0.000  0.000  0.013  0.013
   29  0.000  0.000  0.008  0.009
   30  0.002  0.000  0.005  0.007
   31  0.000  0.000  0.009  0.009
   32  0.002  0.001  0.005  0.007
   33  0.002  0.000  0.006  0.008
   34  0.002  0.001  0.005  0.008
   35  0.000  0.000  0.007  0.007
   36  0.000  0.000  0.001  0.001
   37  0.000  0.000  0.000  0.000
   38  0.000  0.000  0.000  0.000
tot    0.054  0.007  0.784  0.845
 
band    17 # energy   -4.91393426 # occ.  2.00000000
 
ion      s      p      d    tot
    1  0.000  0.000  0.019  0.019
    2  0.000  0.000  0.009  0.009
    3  0.002  0.000  0.005  0.008
    4  0.000  0.000  0.009  0.009
    5  0.000  0.000  0.005  0.005
    6  0.002  0.000  0.007  0.009
    7  0.002  0.000  0.006  0.008
    8  0.002  0.000  0.007  0.009
    9  0.000  0.000  0.008  0.008
   10  0.004  0.000  0.036  0.039
   11  0.000  0.000  0.022  0.022
   12  0.001  0.000  0.040  0.041
   13  0.000  0.000  0.020  0.020
   14  0.001  0.000  0.034  0.034
   15  0.002  0.000  0.055  0.057
   16  0.001  0.000  0.039  0.041
   17  0.001  0.000  0.062  0.064
   18  0.007  0.000  0.007  0.014
   19  0.002  0.000  0.050  0.053
   20  0.006  0.000  0.009  0.016
   21  0.001  0.000  0.062  0.064
   22  0.000  0.000  0.017  0.017
   23  0.002  0.000  0.055  0.057
   24  0.000  0.000  0.041  0.041
   25  0.008  0.000  0.025  0.033
   26  0.002  0.000  0.054  0.055
   27  0.000  0.000  0.020  0.021
   28  0.000  0.000  0.013  0.013
   29  0.003  0.000  0.004  0.007
   30  0.000  0.000  0.007  0.008
   31  0.002  0.000  0.004  0.007
   32  0.001  0.000  0.008  0.008
   33  0.001  0.000  0.007  0.008
   34  0.001  0.000  0.007  0.008
   35  0.000  0.000  0.007  0.007
   36  0.000  0.000  0.001  0.001
   37  0.000  0.000  0.000  0.000
   38  0.000  0.000  0.000  0.000
tot    0.054  0.007  0.784  0.845
 
band    18 # energy   -4.90667753 # occ.  2.00000000
 
ion      s      p      d    tot
    1  0.003  0.000  0.001  0.005
    2  0.000  0.000  0.011  0.011
    3  0.000  0.000  0.011  0.011
    4  0.000  0.000  0.011  0.011
    5  0.006  0.001  0.000  0.007
    6  0.000  0.000  0.011  0.011
    7  0.000  0.000  0.011  0.011
    8  0.000  0.000  0.011  0.011
    9  0.000  0.000  0.012  0.012
   10  0.001  0.000  0.039  0.040
   11  0.002  0.000  0.012  0.015
   12  0.001  0.000  0.039  0.040
   13  0.002  0.000  0.012  0.015
   14  0.002  0.000  0.012  0.015
   15  0.001  0.000  0.044  0.045
   16  0.001  0.000  0.039  0.040
   17  0.001  0.000  0.044  0.045
   18  0.001  0.000  0.043  0.044
   19  0.000  0.000  0.063  0.063
   20  0.006  0.000  0.039  0.045
   21  0.006  0.000  0.039  0.045
   22  0.004  0.000  0.012  0.016
   23  0.006  0.000  0.039  0.045
   24  0.004  0.000  0.012  0.017
   25  0.000  0.000  0.063  0.063
   26  0.000  0.000  0.063  0.063
   27  0.004  0.000  0.012  0.016
   28  0.000  0.000  0.004  0.005
   29  0.000  0.000  0.010  0.010
   30  0.000  0.000  0.010  0.010
   31  0.000  0.000  0.010  0.010
   32  0.000  0.000  0.010  0.010
   33  0.000  0.000  0.010  0.010
   34  0.000  0.000  0.010  0.010
   35  0.008  0.001  0.000  0.009
   36  0.000  0.003  0.000  0.003
   37  0.000  0.001  0.000  0.001
   38  0.000  0.001  0.000  0.001
tot    0.063  0.012  0.766  0.841
 
band    19 # energy   -4.89949706 # occ.  2.00000000
 
ion      s      p      d    tot
    1  0.000  0.000  0.005  0.006
    2  0.003  0.001  0.006  0.010
    3  0.000  0.000  0.011  0.011
    4  0.003  0.000  0.006  0.010
    5  0.000  0.000  0.015  0.016
    6  0.001  0.001  0.009  0.011
    7  0.001  0.000  0.010  0.011
    8  0.001  0.001  0.008  0.010
    9  0.000  0.000  0.015  0.015
   10  0.008  0.000  0.012  0.020
   11  0.003  0.000  0.056  0.059
   12  0.001  0.000  0.060  0.062
   13  0.002  0.000  0.063  0.065
   14  0.010  0.000  0.020  0.031
   15  0.000  0.000  0.024  0.025
   16  0.002  0.000  0.052  0.055
   17  0.000  0.000  0.019  0.020
   18  0.000  0.000  0.051  0.051
   19  0.001  0.000  0.032  0.033
   20  0.001  0.000  0.040  0.041
   21  0.000  0.000  0.024  0.024
   22  0.001  0.000  0.059  0.061
   23  0.000  0.000  0.027  0.027
   24  0.008  0.000  0.011  0.019
   25  0.003  0.000  0.018  0.020
   26  0.000  0.000  0.035  0.035
   27  0.002  0.000  0.051  0.054
   28  0.000  0.000  0.002  0.002
   29  0.000  0.000  0.007  0.007
   30  0.001  0.000  0.002  0.003
   31  0.000  0.000  0.006  0.006
   32  0.001  0.000  0.005  0.006
   33  0.001  0.000  0.002  0.003
   34  0.001  0.000  0.005  0.007
   35  0.000  0.000  0.006  0.007
   36  0.000  0.000  0.001  0.001
   37  0.000  0.000  0.000  0.000
   38  0.000  0.000  0.000  0.000
tot    0.059  0.008  0.777  0.844
 
band    20 # energy   -4.89945885 # occ.  2.00000000
 
ion      s      p      d    tot
    1  0.000  0.000  0.005  0.006
    2  0.000  0.000  0.011  0.011
    3  0.003  0.001  0.006  0.010
    4  0.000  0.000  0.011  0.011
    5  0.000  0.000  0.015  0.016
    6  0.003  0.000  0.008  0.010
    7  0.003  0.001  0.007  0.010
    8  0.002  0.000  0.008  0.011
    9  0.000  0.000  0.015  0.015
   10  0.000  0.000  0.071  0.071
   11  0.007  0.000  0.037  0.044
   12  0.006  0.000  0.023  0.029
   13  0.009  0.000  0.029  0.038
   14  0.000  0.000  0.072  0.072
   15  0.000  0.000  0.038  0.039
   16  0.005  0.000  0.031  0.036
   17  0.000  0.000  0.044  0.044
   18  0.000  0.000  0.012  0.013
   19  0.002  0.000  0.024  0.026
   20  0.000  0.000  0.020  0.021
   21  0.001  0.000  0.037  0.038
   22  0.006  0.000  0.022  0.029
   23  0.001  0.000  0.034  0.035
   24  0.000  0.000  0.070  0.070
   25  0.000  0.000  0.039  0.039
   26  0.002  0.000  0.022  0.024
   27  0.005  0.000  0.030  0.035
   28  0.000  0.000  0.002  0.002
   29  0.001  0.000  0.002  0.004
   30  0.000  0.000  0.007  0.008
   31  0.001  0.000  0.003  0.005
   32  0.000  0.000  0.004  0.004
   33  0.001  0.000  0.007  0.008
   34  0.000  0.000  0.003  0.004
   35  0.000  0.000  0.006  0.007
   36  0.000  0.000  0.001  0.001
   37  0.000  0.000  0.000  0.000
   38  0.000  0.000  0.000  0.000
tot    0.059  0.008  0.777  0.844
 
band    21 # energy   -4.82279918 # occ.  2.00000000
 
ion      s      p      d    tot
    1  0.005  0.000  0.000  0.005
    2  0.001  0.000  0.008  0.009
    3  0.001  0.000  0.008  0.009
    4  0.001  0.000  0.008  0.009
    5  0.001  0.000  0.016  0.017
    6  0.001  0.000  0.008  0.009
    7  0.001  0.000  0.008  0.009
    8  0.001  0.000  0.008  0.009
    9  0.000  0.000  0.003  0.004
   10  0.000  0.000  0.010  0.011
   11  0.002  0.000  0.031  0.033
   12  0.000  0.000  0.010  0.011
   13  0.002  0.000  0.031  0.033
   14  0.002  0.000  0.031  0.033
   15  0.005  0.000  0.008  0.014
   16  0.000  0.000  0.010  0.011