 vasp.6.2.0 18Jan21 (build Jun 12 2021 23:27:24) complex                        
  
 executed on             LinuxIFC date 2022.05.28  01:09:57
 running on   28 total cores
 distrk:  each k-point on   28 cores,    1 groups
 distr:  one band on NCORE=   1 cores,   28 groups


--------------------------------------------------------------------------------------------------------


 INCAR:
   ISMEAR = -5
   SIGMA = 0.1
   ISPIN = 1
   EDIFF = 1.d-5
   EDIFFG = -0.01
   NSW = 0
   NELM = 150
   ENCUT = 500
   ISIF = 2
   IBRION = 2
   LREAL = Auto
   ALGO = Fast
   ICHARG = 11
   LORBIT = 10
   LCHARG = .F.
   LWAVE = .F.

 POTCAR:    PAW_PBE Au 04Oct2007                  
 POTCAR:    PAW_PBE W 08Apr2002                   
 POTCAR:    PAW_PBE H 15Jun2001                   
 POTCAR:    PAW_PBE O 08Apr2002                   
 -----------------------------------------------------------------------------
|                                                                             |
|           W    W    AA    RRRRR   N    N  II  N    N   GGGG   !!!           |
|           W    W   A  A   R    R  NN   N  II  NN   N  G    G  !!!           |
|           W    W  A    A  R    R  N N  N  II  N N  N  G       !!!           |
|           W WW W  AAAAAA  RRRRR   N  N N  II  N  N N  G  GGG   !            |
|           WW  WW  A    A  R   R   N   NN  II  N   NN  G    G                |
|           W    W  A    A  R    R  N    N  II  N    N   GGGG   !!!           |
|                                                                             |
|     For optimal performance we recommend to set                             |
|       NCORE = 2 up to number-of-cores-per-socket                            |
|     NCORE specifies how many cores store one orbital (NPAR=cpu/NCORE).      |
|     This setting can greatly improve the performance of VASP for DFT.       |
|     The default, NCORE=1 might be grossly inefficient on modern             |
|     multi-core architectures or massively parallel machines. Do your        |
|     own testing! More info at https://www.vasp.at/wiki/index.php/NCORE      |
|     Unfortunately you need to use the default for GW and RPA                |
|     calculations (for HF NCORE is supported but not extensively tested      |
|     yet).                                                                   |
|                                                                             |
 -----------------------------------------------------------------------------

 POTCAR:    PAW_PBE Au 04Oct2007                  
   VRHFIN =Au: s1d10                                                                                
   LEXCH  = PE                                                                                      
   EATOM  =   926.0867 eV,   68.0654 Ry                                                             
                                                                                                    
   TITEL  = PAW_PBE Au 04Oct2007                                                                    
   LULTRA =        F    use ultrasoft PP ?                                                          
   IUNSCR =        1    unscreen: 0-lin 1-nonlin 2-no                                               
   RPACOR =    2.330    partial core radius                                                         
   POMASS =  196.966; ZVAL   =   11.000    mass and valenz                                          
   RCORE  =    2.500    outmost cutoff radius                                                       
   RWIGS  =    2.840; RWIGS  =    1.503    wigner-seitz radius (au A)                               
   ENMAX  =  229.943; ENMIN  =  172.457 eV                                                          
   ICORE  =        3    local potential                                                             
   LCOR   =        T    correct aug charges                                                         
   LPAW   =        T    paw PP                                                                      
   EAUG   =  356.670                                                                                
   DEXC   =    0.000                                                                                
   RMAX   =    2.562    core radius for proj-oper                                                   
   RAUG   =    1.300    factor for augmentation sphere                                              
   RDEP   =    2.598    radius for radial grids                                                     
   RDEPT  =    2.193    core radius for aug-charge                                                  
                                                                                                    
   Atomic configuration                                                                             
   16 entries                                                                                       
     n  l   j            E        occ.                                                              
     1  0  0.50    -80748.5001   2.0000                                                             
     2  0  0.50    -14244.7466   2.0000                                                             
     2  1  1.50    -12310.9591   6.0000                                                             
     3  0  0.50     -3362.1768   2.0000                                                             
     3  1  1.50     -2801.5463   6.0000                                                             
     3  2  2.50     -2203.8206  10.0000                                                             
     4  0  0.50      -729.8168   2.0000                                                             
     4  1  1.50      -546.0527   6.0000                                                             
     4  2  2.50      -325.7302  10.0000                                                             
     4  3  3.50       -81.1472  14.0000                                                             
     5  0  0.50      -108.3201   2.0000                                                             
     5  1  1.50       -59.7479   6.0000                                                             
     5  2  2.50        -6.8783  10.0000                                                             
     6  0  0.50        -5.7602   1.0000                                                             
     6  1  1.50        -6.8029   0.0000                                                             
     5  3  2.50        -1.3606   0.0000                                                             
   Description                                                                                      
     l       E           TYP  RCUT    TYP  RCUT                                                     
     2     -6.8782861     23  2.500                                                                 
     2     -8.2388687     23  2.500                                                                 
     0     -5.7601759     23  2.500                                                                 
     0     -0.8493231     23  2.500                                                                 
     1     -2.7211652     23  2.500                                                                 
     1     27.2116520     23  2.500                                                                 
     3     -1.3605826     23  2.500                                                                 
  local pseudopotential read in
  partial core-charges read in
  partial kinetic energy density read in
  atomic valenz-charges read in
  non local Contribution for L=           2  read in
    real space projection operators read in
  non local Contribution for L=           2  read in
    real space projection operators read in
  non local Contribution for L=           0  read in
    real space projection operators read in
  non local Contribution for L=           0  read in
    real space projection operators read in
  non local Contribution for L=           1  read in
    real space projection operators read in
  non local Contribution for L=           1  read in
    real space projection operators read in
    PAW grid and wavefunctions read in
 
   number of l-projection  operators is LMAX  =           6
   number of lm-projection operators is LMMAX =          18
 
 POTCAR:    PAW_PBE W 08Apr2002                   
   VRHFIN =W : 6s5d                                                                                 
   LEXCH  = PE                                                                                      
   EATOM  =   204.6103 eV,   15.0384 Ry                                                             
                                                                                                    
   TITEL  = PAW_PBE W 08Apr2002                                                                     
   LULTRA =        F    use ultrasoft PP ?                                                          
   IUNSCR =        1    unscreen: 0-lin 1-nonlin 2-no                                               
   RPACOR =    2.330    partial core radius                                                         
   POMASS =  183.850; ZVAL   =    6.000    mass and valenz                                          
   RCORE  =    2.750    outmost cutoff radius                                                       
   RWIGS  =    2.750; RWIGS  =    1.455    wigner-seitz radius (au A)                               
   ENMAX  =  223.057; ENMIN  =  167.293 eV                                                          
   RCLOC  =    2.147    cutoff for local pot                                                        
   LCOR   =        T    correct aug charges                                                         
   LPAW   =        T    paw PP                                                                      
   EAUG   =  373.438                                                                                
   DEXC   =    0.000                                                                                
   RMAX   =    2.801    core radius for proj-oper                                                   
   RAUG   =    1.300    factor for augmentation sphere                                              
   RDEP   =    2.886    radius for radial grids                                                     
   RDEPT  =    2.230    core radius for aug-charge                                                  
                                                                                                    
   Atomic configuration                                                                             
   16 entries                                                                                       
     n  l   j            E        occ.                                                              
     1  0  0.50    -69465.5836   2.0000                                                             
     2  0  0.50    -11986.2642   2.0000                                                             
     2  1  1.50    -10479.8616   6.0000                                                             
     3  0  0.50     -2759.0758   2.0000                                                             
     3  1  1.50     -2313.1857   6.0000                                                             
     3  2  2.50     -1801.1185  10.0000                                                             
     4  0  0.50      -567.6791   2.0000                                                             
     4  1  1.50      -421.4694   6.0000                                                             
     4  2  2.50      -236.3473  10.0000                                                             
     4  3  3.50       -31.2666  14.0000                                                             
     5  0  0.50       -77.1085   2.0000                                                             
     5  1  1.50       -41.3856   6.0000                                                             
     5  2  2.50        -3.3185   5.0000                                                             
     6  0  0.50        -5.1438   1.0000                                                             
     6  1  0.50        -3.8096   0.0000                                                             
     5  3  2.50        -1.3606   0.0000                                                             
   Description                                                                                      
     l       E           TYP  RCUT    TYP  RCUT                                                     
     2     -3.3185288     23  2.500                                                                 
     2     -1.5965414     23  2.500                                                                 
     0     -5.1438054     23  2.500                                                                 
     0      4.9117504     23  2.500                                                                 
     1      2.7211652     23  2.750                                                                 
     1     27.2116520     23  2.750                                                                 
  local pseudopotential read in
  partial core-charges read in
  partial kinetic energy density read in
  atomic valenz-charges read in
  non local Contribution for L=           2  read in
    real space projection operators read in
  non local Contribution for L=           2  read in
    real space projection operators read in
  non local Contribution for L=           0  read in
    real space projection operators read in
  non local Contribution for L=           0  read in
    real space projection operators read in
  non local Contribution for L=           1  read in
    real space projection operators read in
  non local Contribution for L=           1  read in
    real space projection operators read in
    PAW grid and wavefunctions read in
 
   number of l-projection  operators is LMAX  =           6
   number of lm-projection operators is LMMAX =          18
 
 POTCAR:    PAW_PBE H 15Jun2001                   
   VRHFIN =H: ultrasoft test                                                                        
   LEXCH  = PE                                                                                      
   EATOM  =    12.4884 eV,    0.9179 Ry                                                             
                                                                                                    
   TITEL  = PAW_PBE H 15Jun2001                                                                     
   LULTRA =        F    use ultrasoft PP ?                                                          
   IUNSCR =        0    unscreen: 0-lin 1-nonlin 2-no                                               
   RPACOR =    0.000    partial core radius                                                         
   POMASS =    1.000; ZVAL   =    1.000    mass and valenz                                          
   RCORE  =    1.100    outmost cutoff radius                                                       
   RWIGS  =    0.700; RWIGS  =    0.370    wigner-seitz radius (au A)                               
   ENMAX  =  250.000; ENMIN  =  200.000 eV                                                          
   RCLOC  =    0.701    cutoff for local pot                                                        
   LCOR   =        T    correct aug charges                                                         
   LPAW   =        T    paw PP                                                                      
   EAUG   =  400.000                                                                                
   RMAX   =    1.123    core radius for proj-oper                                                   
   RAUG   =    1.200    factor for augmentation sphere                                              
   RDEP   =    1.112    radius for radial grids                                                     
   RDEPT  =    0.926    core radius for aug-charge                                                  
                                                                                                    
   Atomic configuration                                                                             
    2 entries                                                                                       
     n  l   j            E        occ.                                                              
     1  0  0.50        -6.4927   1.0000                                                             
     2  1  0.50        -3.4015   0.0000                                                             
   Description                                                                                      
     l       E           TYP  RCUT    TYP  RCUT                                                     
     0     -6.4927494     23  1.100                                                                 
     0      6.8029130     23  1.100                                                                 
     1     -4.0817478     23  1.100                                                                 
  local pseudopotential read in
  atomic valenz-charges read in
  non local Contribution for L=           0  read in
    real space projection operators read in
  non local Contribution for L=           0  read in
    real space projection operators read in
  non local Contribution for L=           1  read in
    real space projection operators read in
    PAW grid and wavefunctions read in
 
   number of l-projection  operators is LMAX  =           3
   number of lm-projection operators is LMMAX =           5
 
 POTCAR:    PAW_PBE O 08Apr2002                   
   VRHFIN =O: s2p4                                                                                  
   LEXCH  = PE                                                                                      
   EATOM  =   432.3788 eV,   31.7789 Ry                                                             
                                                                                                    
   TITEL  = PAW_PBE O 08Apr2002                                                                     
   LULTRA =        F    use ultrasoft PP ?                                                          
   IUNSCR =        1    unscreen: 0-lin 1-nonlin 2-no                                               
   RPACOR =    1.200    partial core radius                                                         
   POMASS =   16.000; ZVAL   =    6.000    mass and valenz                                          
   RCORE  =    1.520    outmost cutoff radius                                                       
   RWIGS  =    1.550; RWIGS  =    0.820    wigner-seitz radius (au A)                               
   ENMAX  =  400.000; ENMIN  =  300.000 eV                                                          
   ICORE  =        2    local potential                                                             
   LCOR   =        T    correct aug charges                                                         
   LPAW   =        T    paw PP                                                                      
   EAUG   =  605.392                                                                                
   DEXC   =    0.000                                                                                
   RMAX   =    1.553    core radius for proj-oper                                                   
   RAUG   =    1.300    factor for augmentation sphere                                              
   RDEP   =    1.550    radius for radial grids                                                     
   RDEPT  =    1.329    core radius for aug-charge                                                  
                                                                                                    
   Atomic configuration                                                                             
    4 entries                                                                                       
     n  l   j            E        occ.                                                              
     1  0  0.50      -514.6923   2.0000                                                             
     2  0  0.50       -23.9615   2.0000                                                             
     2  1  0.50        -9.0305   4.0000                                                             
     3  2  1.50        -9.5241   0.0000                                                             
   Description                                                                                      
     l       E           TYP  RCUT    TYP  RCUT                                                     
     0    -23.9615318     23  1.200                                                                 
     0     -9.5240782     23  1.200                                                                 
     1     -9.0304911     23  1.520                                                                 
     1      8.1634956     23  1.520                                                                 
     2     -9.5240782      7  1.500                                                                 
  local pseudopotential read in
  partial core-charges read in
  partial kinetic energy density read in
  kinetic energy density of atom read in
  atomic valenz-charges read in
  non local Contribution for L=           0  read in
    real space projection operators read in
  non local Contribution for L=           0  read in
    real space projection operators read in
  non local Contribution for L=           1  read in
    real space projection operators read in
  non local Contribution for L=           1  read in
    real space projection operators read in
    PAW grid and wavefunctions read in
 
   number of l-projection  operators is LMAX  =           4
   number of lm-projection operators is LMMAX =           8
 
 Optimization of the real space projectors (new method)

 maximal supplied QI-value         = 15.12
 optimisation between [QCUT,QGAM] = [ 11.34, 22.83] = [ 36.00,145.93] Ry 
 Optimized for a Real-space Cutoff    1.39 Angstroem

   l    n(q)    QCUT    max X(q) W(low)/X(q) W(high)/X(q)  e(spline) 
   2      9    11.338    60.898    0.39E-03    0.42E-03    0.21E-06
   2      9    11.338    58.894    0.40E-03    0.42E-03    0.22E-06
   0      9    11.338   109.617    0.13E-03    0.20E-04    0.13E-06
   0      9    11.338    75.026    0.13E-03    0.20E-04    0.13E-06
   1      9    11.338    16.344    0.33E-04    0.24E-03    0.18E-06
   1      9    11.338    10.160    0.26E-04    0.19E-03    0.15E-06
 Optimization of the real space projectors (new method)

 maximal supplied QI-value         = 13.61
 optimisation between [QCUT,QGAM] = [ 11.43, 22.86] = [ 36.58,146.31] Ry 
 Optimized for a Real-space Cutoff    1.56 Angstroem

   l    n(q)    QCUT    max X(q) W(low)/X(q) W(high)/X(q)  e(spline) 
   2     10    11.429   130.855    0.22E-03    0.64E-03    0.11E-05
   2     10    11.429   114.007    0.22E-03    0.64E-03    0.11E-05
   0     11    11.429    84.709    0.39E-04    0.67E-04    0.23E-06
   0     11    11.429    49.163    0.35E-04    0.62E-04    0.21E-06
   1     10    11.429    15.765    0.84E-04    0.15E-03    0.24E-06
   1     10    11.429    10.638    0.58E-04    0.12E-03    0.19E-06
 Optimization of the real space projectors (new method)

 maximal supplied QI-value         = 34.20
 optimisation between [QCUT,QGAM] = [ 11.29, 22.57] = [ 35.68,142.71] Ry 
 Optimized for a Real-space Cutoff    1.16 Angstroem

   l    n(q)    QCUT    max X(q) W(low)/X(q) W(high)/X(q)  e(spline) 
   0      8    11.287    19.460    0.40E-03    0.73E-03    0.16E-06
   0      8    11.287    12.209    0.38E-03    0.70E-03    0.15E-06
   1      7    11.287     4.655    0.22E-03    0.25E-04    0.22E-06
 Optimization of the real space projectors (new method)

 maximal supplied QI-value         = 24.76
 optimisation between [QCUT,QGAM] = [ 11.39, 22.77] = [ 36.31,145.25] Ry 
 Optimized for a Real-space Cutoff    1.00 Angstroem

   l    n(q)    QCUT    max X(q) W(low)/X(q) W(high)/X(q)  e(spline) 
   0      7    11.387    20.381    0.39E-03    0.13E-02    0.15E-06
   0      7    11.387    15.268    0.42E-03    0.14E-02    0.17E-06
   1      6    11.387     5.964    0.41E-03    0.11E-02    0.17E-06
   1      6    11.387     5.382    0.39E-03    0.87E-03    0.15E-06
  PAW_PBE Au 04Oct2007                  :
 energy of atom  1       EATOM= -926.0867
 kinetic energy error for atom=    0.0042 (will be added to EATOM!!)
  PAW_PBE W 08Apr2002                   :
 energy of atom  2       EATOM= -204.6103
 kinetic energy error for atom=    0.0017 (will be added to EATOM!!)
  PAW_PBE H 15Jun2001                   :
 energy of atom  3       EATOM=  -12.4884
 kinetic energy error for atom=    0.0020 (will be added to EATOM!!)
  PAW_PBE O 08Apr2002                   :
 energy of atom  4       EATOM= -432.3788
 kinetic energy error for atom=    0.0224 (will be added to EATOM!!)
 
 
 POSCAR: Au-W-H2O
  positions in direct lattice
  velocities in cartesian coordinates
 exchange correlation table for  LEXCH =        8
   RHO(1)=    0.500       N(1)  =     2000
   RHO(2)=  100.500       N(2)  =     4000

 VTST: version 3.2, (02/03/18)

 CHAIN: initializing optimizer
 
 OPT: Using VASP Conjugate-Gradient optimizer
 CHAIN: Read ICHAIN            0
 
 POSCAR: Au-W-H2O
  positions in direct lattice
  velocities in cartesian coordinates
 


--------------------------------------------------------------------------------------------------------


 ion  position               nearest neighbor table
   1  0.000  0.000  0.213-  16 2.94  12 2.94   6 2.94   8 2.94   7 2.94   3 2.94  10 2.94   4 2.94
                             2 2.94
   2  0.333  0.000  0.213-   9 2.94  11 2.94  17 2.94  10 2.94   8 2.94   4 2.94   5 2.94   1 2.94
                             3 2.94
   3  0.667  0.000  0.213-   7 2.94  18 2.94  12 2.94   1 2.94  11 2.94   5 2.94   6 2.94   9 2.94
                             2 2.94
   4  0.000  0.333  0.213-  10 2.94   6 2.94   5 2.94  13 2.94   2 2.94  15 2.94   9 2.94   1 2.94
                             7 2.94
   5  0.333  0.333  0.213-  13 2.94   7 2.94  11 2.94   4 2.94   2 2.94  14 2.94   3 2.94   8 2.94
                             6 2.94
   6  0.667  0.333  0.213-  15 2.94  14 2.94   1 2.94  12 2.94   4 2.94   9 2.94   8 2.94   3 2.94
                             5 2.94
   7  0.000  0.667  0.213-  18 2.94   3 2.94  16 2.94   5 2.94   1 2.94  13 2.94   8 2.94   4 2.94
                             9 2.94
   8  0.333  0.667  0.213-   9 2.94  17 2.94   1 2.94   2 2.94  14 2.94  16 2.94   6 2.94   7 2.94
                             5 2.94
   9  0.667  0.667  0.213-   2 2.94   8 2.94  17 2.94   6 2.94  15 2.94   4 2.94   3 2.94  18 2.94
                             7 2.94
  10  0.111  0.111  0.310-  20 2.90  11 2.94  17 2.94   2 2.94   4 2.94   1 2.94  12 2.94  16 2.94
                            13 2.94  15 2.94  26 2.96  19 2.96
  11  0.444  0.111  0.310-  20 2.91  21 2.91  13 2.94   2 2.94  10 2.94  17 2.94   5 2.94   3 2.94
                            18 2.94  14 2.94  12 2.94  27 2.94
  12  0.778  0.111  0.310-  21 2.90  16 2.94  18 2.94   1 2.94  14 2.94  15 2.94   3 2.94   6 2.94
                            10 2.94  11 2.94  25 2.96  19 2.96
  13  0.111  0.444  0.310-  23 2.91  20 2.91   5 2.94  18 2.94  11 2.94   7 2.94   4 2.94  16 2.94
                            10 2.94  14 2.94  15 2.94  22 2.94
  14  0.444  0.444  0.310-  21 2.91  23 2.91  15 2.94   6 2.94  12 2.94   8 2.94  17 2.94   5 2.94
                            16 2.94  13 2.94  11 2.94  24 2.94
  15  0.778  0.444  0.310-  24 2.92  22 2.92  14 2.94   6 2.94  17 2.94  12 2.94   9 2.94   4 2.94
                            10 2.94  13 2.94  18 2.94  19 2.95
  16  0.111  0.778  0.310-  23 2.90  18 2.94  12 2.94   7 2.94   1 2.94   8 2.94  13 2.94  10 2.94
                            14 2.94  17 2.94  25 2.96  26 2.96
  17  0.444  0.778  0.310-  27 2.92  24 2.92   9 2.94  15 2.94   2 2.94  10 2.94  11 2.94   8 2.94
                            14 2.94  16 2.94  18 2.94  26 2.95
  18  0.778  0.778  0.310-  22 2.92  27 2.92  16 2.94   7 2.94  13 2.94  12 2.94   3 2.94  11 2.94
                             9 2.94  15 2.94  17 2.94  25 2.95
  19  0.888  0.224  0.408-  24 2.93  22 2.93  21 2.93  20 2.93  28 2.94  15 2.95  26 2.96  25 2.96
                            10 2.96  12 2.96  32 3.04  31 3.04
  20  0.222  0.222  0.406-  36 2.74  10 2.90  11 2.91  13 2.91  26 2.93  19 2.93  23 2.95  21 2.95
                            27 2.96  22 2.96  29 2.98  31 2.98
  21  0.557  0.222  0.406-  36 2.74  12 2.90  14 2.91  11 2.91  25 2.93  19 2.93  20 2.95  23 2.95
                            27 2.96  24 2.96  30 2.98  32 2.98
  22  0.886  0.557  0.407-  24 2.90  27 2.90  18 2.92  15 2.92  25 2.93  19 2.93  13 2.94  35 2.95
                            23 2.96  20 2.96  33 3.02  31 3.02
  23  0.222  0.557  0.406-  36 2.74  16 2.90  13 2.91  14 2.91  25 2.93  26 2.93  20 2.95  21 2.95
                            22 2.96  24 2.96  33 2.98  34 2.98
  24  0.557  0.557  0.407-  27 2.90  22 2.90  15 2.92  17 2.92  26 2.93  19 2.93  14 2.94  35 2.95
                            21 2.96  23 2.96  32 3.02  34 3.02
  25  0.888  0.888  0.408-  22 2.93  27 2.93  23 2.93  21 2.93  28 2.94  18 2.95  19 2.96  26 2.96
                            16 2.96  12 2.96  33 3.04  30 3.04
  26  0.224  0.888  0.408-  27 2.93  24 2.93  20 2.93  23 2.93  28 2.94  17 2.95  19 2.96  25 2.96
                            10 2.96  16 2.96  29 3.04  34 3.04
  27  0.557  0.886  0.407-  24 2.90  22 2.90  17 2.92  18 2.92  26 2.93  25 2.93  11 2.94  35 2.95
                            20 2.96  21 2.96  29 3.02  30 3.02
  28  0.000  0.000  0.505-  25 2.94  19 2.94  26 2.94  34 3.00  32 3.00  33 3.00  30 3.00  31 3.00
                            29 3.00
  29  0.334  0.013  0.507-  30 2.82  31 2.82  36 2.84  20 2.98  35 3.00  28 3.00  27 3.02  26 3.04
                            34 3.17
  30  0.653  0.013  0.507-  29 2.82  32 2.82  36 2.84  21 2.98  35 3.00  28 3.00  27 3.02  25 3.04
                            33 3.17
  31  0.013  0.334  0.507-  33 2.82  29 2.82  36 2.84  20 2.98  35 3.00  28 3.00  22 3.02  19 3.04
                            32 3.17
  32  0.653  0.334  0.507-  34 2.82  30 2.82  36 2.84  21 2.98  35 3.00  28 3.00  24 3.02  19 3.04
                            31 3.17
  33  0.013  0.653  0.507-  31 2.82  34 2.82  36 2.84  23 2.98  35 3.00  28 3.00  22 3.02  25 3.04
                            30 3.17
  34  0.334  0.653  0.507-  32 2.82  33 2.82  36 2.84  23 2.98  35 3.00  28 3.00  24 3.02  26 3.04
                            29 3.17
  35  0.667  0.667  0.505-  24 2.95  27 2.95  22 2.95  29 3.00  34 3.00  32 3.00  31 3.00  30 3.00
                            33 3.00
  36  0.333  0.333  0.492-  39 2.27  20 2.74  23 2.74  21 2.74  33 2.84  31 2.84  29 2.84  30 2.84
                            34 2.84  32 2.84
  37  0.279  0.263  0.593-  39 0.98
  38  0.458  0.262  0.593-  39 0.98
  39  0.333  0.333  0.584-  38 0.98  37 0.98  36 2.27
 
  LATTYP: Found a hexagonal cell.
 ALAT       =     8.8135128021
 C/A-ratio  =     2.8075332270
  
  Lattice vectors:
  
 A1 = (  -4.4067569092,  -7.6327256898,   0.0000000000)
 A2 = (   8.8135128021,   0.0000000000,   0.0000000000)
 A3 = (   0.0000000000,   0.0000000000,  24.7442300386)


Analysis of symmetry for initial positions (statically):
=====================================================================
 Subroutine PRICEL returns:
 Original cell was already a primitive cell.
 

 Routine SETGRP: Setting up the symmetry group for a 
 hexagonal supercell.


 Subroutine GETGRP returns: Found  1 space group operations
 (whereof  1 operations were pure point group operations)
 out of a pool of 24 trial point group operations.


The static configuration has the point symmetry C_1 .


Analysis of symmetry for dynamics (positions and initial velocities):
=====================================================================
 Subroutine PRICEL returns:
 Original cell was already a primitive cell.
 

 Routine SETGRP: Setting up the symmetry group for a 
 hexagonal supercell.


 Subroutine GETGRP returns: Found  1 space group operations
 (whereof  1 operations were pure point group operations)
 out of a pool of 24 trial point group operations.


The dynamic configuration has the point symmetry C_1 .


Analysis of constrained symmetry for selective dynamics:
=====================================================================
 Subroutine PRICEL returns:
 Original cell was already a primitive cell.
 

 Routine SETGRP: Setting up the symmetry group for a 
 hexagonal supercell.


 Subroutine GETGRP returns: Found  1 space group operations
 (whereof  1 operations were pure point group operations)
 out of a pool of 24 trial point group operations.


The constrained configuration has the point symmetry C_1 .


 Subroutine INISYM returns: Found  1 space group operations
 (whereof  1 operations are pure point group operations),
 and found     1 'primitive' translations


----------------------------------------------------------------------------------------

                                     Primitive cell                                     

  volume of cell :    1664.5722

  direct lattice vectors                    reciprocal lattice vectors
     8.813512802  0.000000000  0.000000000     0.113462137 -0.065507406  0.000000000
     4.406756909  7.632725690  0.000000000     0.000000000  0.131014796  0.000000000
     0.000000000  0.000000000 24.744230039     0.000000000  0.000000000  0.040413462

  length of vectors
     8.813512802  8.813512802 24.744230039     0.131014796  0.131014796  0.040413462

  position of ions in fractional coordinates (direct lattice)
     0.000000000  0.000000000  0.213398434
     0.333333343  0.000000000  0.213398434
     0.666666687  0.000000000  0.213398434
     1.000000000  0.333333343  0.213398434
     0.333333313  0.333333343  0.213398434
     0.666666687  0.333333343  0.213398434
     1.000000000  0.666666687  0.213398434
     0.333333343  0.666666687  0.213398434
     0.666666627  0.666666687  0.213398434
     0.111111119  0.111111112  0.310339584
     0.444444418  0.111111112  0.310339584
     0.777777791  0.111111112  0.310339584
     0.111111127  0.444444448  0.310339584
     0.444444478  0.444444448  0.310339584
     0.777777731  0.444444448  0.310339584
     0.111111090  0.777777791  0.310339584
     0.444444448  0.777777791  0.310339584
     0.777777851  0.777777791  0.310339584
     0.888108940  0.223782136  0.408208864
     0.221743954  0.221743939  0.405756026
     0.556512152  0.221743939  0.405756026
     0.886138604  0.556930728  0.406819743
     0.221743909  0.556512152  0.405756026
     0.556930728  0.556930728  0.406819743
     0.888108940  0.888108940  0.408208864
     0.223782166  0.888108940  0.408208864
     0.556930668  0.886138604  0.406819743
     0.000000000  0.000000000  0.505136730
     0.333684557  0.013163897  0.507369304
     0.653151576  0.013163897  0.507369304
     0.013163897  0.333684557  0.507369304
     0.653151576  0.333684557  0.507369304
     0.013163897  0.653151576  0.507369304
     0.333684557  0.653151576  0.507369304
     0.666666627  0.666666687  0.505115446
     0.333333313  0.333333343  0.492462309
     0.279187702  0.262636341  0.593394321
     0.458041389  0.262328280  0.593431656
     0.333399906  0.333175258  0.584223832

  ion indices of the primitive-cell ions
   primitive index   ion index
                 1           1
                 2           2
                 3           3
                 4           4
                 5           5
                 6           6
                 7           7
                 8           8
                 9           9
                10          10
                11          11
                12          12
                13          13
                14          14
                15          15
                16          16
                17          17
                18          18
                19          19
                20          20
                21          21
                22          22
                23          23
                24          24
                25          25
                26          26
                27          27
                28          28
                29          29
                30          30
                31          31
                32          32
                33          33
                34          34
                35          35
                36          36
                37          37
                38          38
                39          39

----------------------------------------------------------------------------------------

 
 
 KPOINTS: Automatic mesh                          

Automatic generation of k-mesh.
 Grid dimensions read from file:
 generate k-points for:    8    8    1

 Generating k-lattice:

  Cartesian coordinates                     Fractional coordinates (reciprocal lattice)
     0.014182767 -0.008188426  0.000000000     0.125000000 -0.000000000  0.000000000
     0.000000000  0.016376850  0.000000000     0.000000000  0.125000000  0.000000000
     0.000000000  0.000000000  0.040413462     0.000000000  0.000000000  1.000000000

  Length of vectors
     0.016376850  0.016376850  0.040413462

  Shift w.r.t. Gamma in fractional coordinates (k-lattice)
     0.000000000  0.000000000  0.000000000

 TETIRR: Found    192 inequivalent tetrahedra from      384
 
 Subroutine IBZKPT returns following result:
 ===========================================
 
 Found     34 irreducible k-points:
 
 Following reciprocal coordinates:
            Coordinates               Weight
  0.000000  0.000000  0.000000      1.000000
  0.125000 -0.000000  0.000000      2.000000
  0.125000  0.125000  0.000000      2.000000
  0.000000  0.125000  0.000000      2.000000
  0.250000 -0.000000  0.000000      2.000000
  0.250000  0.250000  0.000000      2.000000
  0.000000  0.250000  0.000000      2.000000
  0.375000  0.000000  0.000000      2.000000
  0.375000  0.375000  0.000000      2.000000
  0.000000  0.375000  0.000000      2.000000
  0.500000 -0.000000  0.000000      1.000000
  0.500000  0.500000  0.000000      1.000000
  0.000000  0.500000  0.000000      1.000000
  0.250000  0.125000  0.000000      2.000000
  0.125000  0.250000  0.000000      2.000000
 -0.125000  0.125000  0.000000      2.000000
  0.375000  0.125000  0.000000      2.000000
  0.250000  0.375000  0.000000      2.000000
 -0.125000  0.250000  0.000000      2.000000
  0.250000 -0.125000  0.000000      2.000000
 -0.125000 -0.375000  0.000000      2.000000
 -0.375000 -0.250000  0.000000      2.000000
  0.500000  0.125000  0.000000      2.000000
  0.375000  0.500000  0.000000      2.000000
 -0.125000  0.375000  0.000000      2.000000
  0.375000 -0.125000  0.000000      2.000000
 -0.125000  0.500000  0.000000      2.000000
  0.500000 -0.375000  0.000000      2.000000
  0.500000  0.250000  0.000000      2.000000
  0.250000  0.500000  0.000000      2.000000
 -0.250000  0.250000  0.000000      2.000000
 -0.375000  0.250000  0.000000      2.000000
  0.375000 -0.375000  0.000000      2.000000
 -0.250000  0.375000  0.000000      2.000000
 
 Following cartesian coordinates:
            Coordinates               Weight
  0.000000  0.000000  0.000000      1.000000
  0.014183 -0.008188  0.000000      2.000000
  0.014183  0.008188  0.000000      2.000000
  0.000000  0.016377  0.000000      2.000000
  0.028366 -0.016377  0.000000      2.000000
  0.028366  0.016377  0.000000      2.000000
  0.000000  0.032754  0.000000      2.000000
  0.042548 -0.024565  0.000000      2.000000
  0.042548  0.024565  0.000000      2.000000
  0.000000  0.049131  0.000000      2.000000
  0.056731 -0.032754  0.000000      1.000000
  0.056731  0.032754  0.000000      1.000000
  0.000000  0.065507  0.000000      1.000000
  0.028366 -0.000000  0.000000      2.000000
  0.014183  0.024565  0.000000      2.000000
 -0.014183  0.024565  0.000000      2.000000
  0.042548 -0.008188  0.000000      2.000000
  0.028366  0.032754  0.000000      2.000000
 -0.014183  0.040942  0.000000      2.000000
  0.028366 -0.032754  0.000000      2.000000
 -0.014183 -0.040942  0.000000      2.000000
 -0.042548 -0.008188  0.000000      2.000000
  0.056731 -0.016377  0.000000      2.000000
  0.042548  0.040942  0.000000      2.000000
 -0.014183  0.057319  0.000000      2.000000
  0.042548 -0.040942  0.000000      2.000000
 -0.014183  0.073696  0.000000      2.000000
  0.056731 -0.081884  0.000000      2.000000
  0.056731 -0.000000  0.000000      2.000000
  0.028366  0.049131  0.000000      2.000000
 -0.028366  0.049131  0.000000      2.000000
 -0.042548  0.057319  0.000000      2.000000
  0.042548 -0.073696  0.000000      2.000000
 -0.028366  0.065507  0.000000      2.000000
 


--------------------------------------------------------------------------------------------------------




 Dimension of arrays:
   k-points           NKPTS =     34   k-points in BZ     NKDIM =     34   number of bands    NBANDS=    252
   number of dos      NEDOS =    301   number of ions     NIONS =     39
   non local maximal  LDIM  =      6   non local SUM 2l+1 LMDIM =     18
   total plane-waves  NPLWV = 322560
   max r-space proj   IRMAX =   3156   max aug-charges    IRDMAX=  12048
   dimension x,y,z NGX =    48 NGY =   48 NGZ =  140
   dimension x,y,z NGXF=    96 NGYF=   96 NGZF=  280
   support grid    NGXF=    96 NGYF=   96 NGZF=  280
   ions per type =              35   1   2   1
   NGX,Y,Z   is equivalent  to a cutoff of   9.05,  9.05,  9.41 a.u.
   NGXF,Y,Z  is equivalent  to a cutoff of  18.11, 18.11, 18.81 a.u.

 SYSTEM =  unknown system                          
 POSCAR =  Au-W-H2O                                

 Startparameter for this run:
   NWRITE =      2    write-flag & timer
   PREC   = normal    normal or accurate (medium, high low for compatibility)
   ISTART =      0    job   : 0-new  1-cont  2-samecut
   ICHARG =     11    charge: 1-file 2-atom 10-const
   ISPIN  =      1    spin polarized calculation?
   LNONCOLLINEAR =      F non collinear calculations
   LSORBIT =      F    spin-orbit coupling
   INIWAV =      1    electr: 0-lowe 1-rand  2-diag
   LASPH  =      F    aspherical Exc in radial PAW
   METAGGA=      F    non-selfconsistent MetaGGA calc.

 Electronic Relaxation 1
   ENCUT  =  500.0 eV  36.75 Ry    6.06 a.u.  16.07 16.07 45.11*2*pi/ulx,y,z
   ENINI  =  500.0     initial cutoff
   ENAUG  =  605.4 eV  augmentation charge cutoff
   NELM   =    150;   NELMIN=  2; NELMDL= -5     # of ELM steps 
   EDIFF  = 0.1E-04   stopping-criterion for ELM
   LREAL  =      T    real-space projection
   NLSPLINE    = F    spline interpolate recip. space projectors
   LCOMPAT=      F    compatible to vasp.4.4
   GGA_COMPAT  = T    GGA compatible to vasp.4.4-vasp.4.6
   LMAXPAW     = -100 max onsite density
   LMAXMIX     =    2 max onsite mixed and CHGCAR
   VOSKOWN=      0    Vosko Wilk Nusair interpolation
   ROPT   =   -0.00050  -0.00050  -0.00050  -0.00050
 Ionic relaxation
   EDIFFG = -.1E-01   stopping-criterion for IOM
   NSW    =      0    number of steps for IOM
   NBLOCK =      1;   KBLOCK =      1    inner block; outer block 
   IBRION =     -1    ionic relax: 0-MD 1-quasi-New 2-CG
   NFREE  =      1    steps in history (QN), initial steepest desc. (CG)
   ISIF   =      2    stress and relaxation
   IWAVPR =     10    prediction:  0-non 1-charg 2-wave 3-comb
   ISYM   =      2    0-nonsym 1-usesym 2-fastsym
   LCORR  =      T    Harris-Foulkes like correction to forces

   POTIM  = 0.5000    time-step for ionic-motion
   TEIN   =    0.0    initial temperature
   TEBEG  =    0.0;   TEEND  =   0.0 temperature during run
   SMASS  =  -3.00    Nose mass-parameter (am)
   estimated Nose-frequenzy (Omega)   =  0.10E-29 period in steps = 0.13E+47 mass=  -0.178E-26a.u.
   SCALEE = 1.0000    scale energy and forces
   NPACO  =    256;   APACO  = 16.0  distance and # of slots for P.C.
   PSTRESS=    0.0 pullay stress

  Mass of Ions in am
   POMASS = 196.97183.85  1.00 16.00
  Ionic Valenz
   ZVAL   =  11.00  6.00  1.00  6.00
  Atomic Wigner-Seitz radii
   RWIGS  =  -1.00 -1.00 -1.00 -1.00
  virtual crystal weights 
   VCA    =   1.00  1.00  1.00  1.00
   NELECT =     399.0000    total number of electrons
   NUPDOWN=      -1.0000    fix difference up-down

 DOS related values:
   EMIN   =  10.00;   EMAX   =-10.00  energy-range for DOS
   EFERMI =   0.00
   ISMEAR =    -5;   SIGMA  =   0.10  broadening in eV -4-tet -1-fermi 0-gaus

 Electronic relaxation 2 (details)
   IALGO  =     68    algorithm
   LDIAG  =      T    sub-space diagonalisation (order eigenvalues)
   LSUBROT=      F    optimize rotation matrix (better conditioning)
   TURBO    =      0    0=normal 1=particle mesh
   IRESTART =      0    0=no restart 2=restart with 2 vectors
   NREBOOT  =      0    no. of reboots
   NMIN     =      0    reboot dimension
   EREF     =   0.00    reference energy to select bands
   IMIX   =      4    mixing-type and parameters
     AMIX     =   0.40;   BMIX     =  1.00
     AMIX_MAG =   1.60;   BMIX_MAG =  1.00
     AMIN     =   0.10
     WC   =   100.;   INIMIX=   1;  MIXPRE=   1;  MAXMIX= -45

 Intra band minimization:
   WEIMIN = 0.0000     energy-eigenvalue tresh-hold
   EBREAK =  0.99E-08  absolut break condition
   DEPER  =   0.30     relativ break condition  

   TIME   =   0.40     timestep for ELM

  volume/ion in A,a.u.               =      42.68       288.03
  Fermi-wavevector in a.u.,A,eV,Ry     =   1.016947  1.921751 14.070885  1.034181
  Thomas-Fermi vector in A             =   2.150320
 
 Write flags
   LWAVE        =      F    write WAVECAR
   LDOWNSAMPLE  =      F    k-point downsampling of WAVECAR
   LCHARG       =      F    write CHGCAR
   LVTOT        =      F    write LOCPOT, total local potential
   LVHAR        =      F    write LOCPOT, Hartree potential only
   LELF         =      F    write electronic localiz. function (ELF)
   LORBIT       =     10    0 simple, 1 ext, 2 COOP (PROOUT), +10 PAW based schemes


 Dipole corrections
   LMONO  =      F    monopole corrections only (constant potential shift)
   LDIPOL =      F    correct potential (dipole corrections)
   IDIPOL =      0    1-x, 2-y, 3-z, 4-all directions 
   EPSILON=  1.0000000 bulk dielectric constant

 Exchange correlation treatment:
   GGA     =    --    GGA type
   LEXCH   =     8    internal setting for exchange type
   VOSKOWN=      0    Vosko Wilk Nusair interpolation
   LHFCALC =     F    Hartree Fock is set to
   LHFONE  =     F    Hartree Fock one center treatment
   AEXX    =    0.0000 exact exchange contribution

 Linear response parameters
   LEPSILON=     F    determine dielectric tensor
   LRPA    =     F    only Hartree local field effects (RPA)
   LNABLA  =     F    use nabla operator in PAW spheres
   LVEL    =     F    velocity operator in full k-point grid
   LINTERFAST=   F  fast interpolation
   KINTER  =     0    interpolate to denser k-point grid
   CSHIFT  =0.1000    complex shift for real part using Kramers Kronig
   OMEGAMAX=  -1.0    maximum frequency
   DEG_THRESHOLD= 0.2000000E-02 threshold for treating states as degnerate
   RTIME   =   -0.100 relaxation time in fs
  (WPLASMAI=    0.000 imaginary part of plasma frequency in eV, 0.658/RTIME)
   DFIELD  = 0.0000000 0.0000000 0.0000000 field for delta impulse in time
 
 Orbital magnetization related:
   ORBITALMAG=     F  switch on orbital magnetization
   LCHIMAG   =     F  perturbation theory with respect to B field
   DQ        =  0.001000  dq finite difference perturbation B field
   LLRAUG    =     F  two centre corrections for induced B field



--------------------------------------------------------------------------------------------------------


 Static calculation
 charge density and potential remain constant during run
 non-spin polarized calculation
 RMM-DIIS sequential band-by-band and
  variant of blocked Davidson during initial phase
 perform sub-space diagonalisation
    before iterative eigenvector-optimisation
 no mixing
 using additional bands           52
 real space projection scheme for non local part
 use partial core corrections
 calculate Harris-corrections to forces 
   (improved forces if not selfconsistent)
 use gradient corrections 
 WARNING: stress and forces are not correct
  (second derivative of E(xc) not defined)
 use of overlap-Matrix (Vanderbilt PP)
 Fermi weights with tetrahedron method with Bloechl corrections


--------------------------------------------------------------------------------------------------------


  energy-cutoff  :      500.00
  volume of cell :     1664.57
      direct lattice vectors                 reciprocal lattice vectors
     8.813512802  0.000000000  0.000000000     0.113462137 -0.065507406  0.000000000
     4.406756909  7.632725690  0.000000000     0.000000000  0.131014796  0.000000000
     0.000000000  0.000000000 24.744230039     0.000000000  0.000000000  0.040413462

  length of vectors
     8.813512802  8.813512802 24.744230039     0.131014796  0.131014796  0.040413462


 
 k-points in units of 2pi/SCALE and weight: Automatic mesh                          
   0.00000000  0.00000000  0.00000000       0.016
   0.01418277 -0.00818843  0.00000000       0.031
   0.01418277  0.00818842  0.00000000       0.031
   0.00000000  0.01637685  0.00000000       0.031
   0.02836553 -0.01637685  0.00000000       0.031
   0.02836553  0.01637685  0.00000000       0.031
   0.00000000  0.03275370  0.00000000       0.031
   0.04254830 -0.02456528  0.00000000       0.031
   0.04254830  0.02456527  0.00000000       0.031
   0.00000000  0.04913055  0.00000000       0.031
   0.05673107 -0.03275370  0.00000000       0.016
   0.05673107  0.03275370  0.00000000       0.016
   0.00000000  0.06550740  0.00000000       0.016
   0.02836553 -0.00000000  0.00000000       0.031
   0.01418277  0.02456527  0.00000000       0.031
  -0.01418277  0.02456528  0.00000000       0.031
   0.04254830 -0.00818843  0.00000000       0.031
   0.02836553  0.03275370  0.00000000       0.031
  -0.01418277  0.04094212  0.00000000       0.031
   0.02836553 -0.03275370  0.00000000       0.031
  -0.01418277 -0.04094212  0.00000000       0.031
  -0.04254830 -0.00818842  0.00000000       0.031
   0.05673107 -0.01637685  0.00000000       0.031
   0.04254830  0.04094212  0.00000000       0.031
  -0.01418277  0.05731897  0.00000000       0.031
   0.04254830 -0.04094213  0.00000000       0.031
  -0.01418277  0.07369582  0.00000000       0.031
   0.05673107 -0.08188425  0.00000000       0.031
   0.05673107 -0.00000000  0.00000000       0.031
   0.02836553  0.04913055  0.00000000       0.031
  -0.02836553  0.04913055  0.00000000       0.031
  -0.04254830  0.05731898  0.00000000       0.031
   0.04254830 -0.07369583  0.00000000       0.031
  -0.02836553  0.06550740  0.00000000       0.031
 
 k-points in reciprocal lattice and weights: Automatic mesh                          
   0.00000000  0.00000000  0.00000000       0.016
   0.12500000 -0.00000000  0.00000000       0.031
   0.12500000  0.12500000  0.00000000       0.031
   0.00000000  0.12500000  0.00000000       0.031
   0.25000000 -0.00000000  0.00000000       0.031
   0.25000000  0.25000000  0.00000000       0.031
   0.00000000  0.25000000  0.00000000       0.031
   0.37500000  0.00000000  0.00000000       0.031
   0.37500000  0.37500000  0.00000000       0.031
   0.00000000  0.37500000  0.00000000       0.031
   0.50000000 -0.00000000  0.00000000       0.016
   0.50000000  0.50000000  0.00000000       0.016
   0.00000000  0.50000000  0.00000000       0.016
   0.25000000  0.12500000  0.00000000       0.031
   0.12500000  0.25000000  0.00000000       0.031
  -0.12500000  0.12500000  0.00000000       0.031
   0.37500000  0.12500000  0.00000000       0.031
   0.25000000  0.37500000  0.00000000       0.031
  -0.12500000  0.25000000  0.00000000       0.031
   0.25000000 -0.12500000  0.00000000       0.031
  -0.12500000 -0.37500000  0.00000000       0.031
  -0.37500000 -0.25000000  0.00000000       0.031
   0.50000000  0.12500000  0.00000000       0.031
   0.37500000  0.50000000  0.00000000       0.031
  -0.12500000  0.37500000  0.00000000       0.031
   0.37500000 -0.12500000  0.00000000       0.031
  -0.12500000  0.50000000  0.00000000       0.031
   0.50000000 -0.37500000  0.00000000       0.031
   0.50000000  0.25000000  0.00000000       0.031
   0.25000000  0.50000000  0.00000000       0.031
  -0.25000000  0.25000000  0.00000000       0.031
  -0.37500000  0.25000000  0.00000000       0.031
   0.37500000 -0.37500000  0.00000000       0.031
  -0.25000000  0.37500000  0.00000000       0.031
 
 position of ions in fractional coordinates (direct lattice) 
   0.00000000  0.00000000  0.21339843
   0.33333334  0.00000000  0.21339843
   0.66666669  0.00000000  0.21339843
   0.00000000  0.33333334  0.21339843
   0.33333331  0.33333334  0.21339843
   0.66666669  0.33333334  0.21339843
   0.00000000  0.66666669  0.21339843
   0.33333334  0.66666669  0.21339843
   0.66666663  0.66666669  0.21339843
   0.11111112  0.11111111  0.31033958
   0.44444442  0.11111111  0.31033958
   0.77777779  0.11111111  0.31033958
   0.11111113  0.44444445  0.31033958
   0.44444448  0.44444445  0.31033958
   0.77777773  0.44444445  0.31033958
   0.11111109  0.77777779  0.31033958
   0.44444445  0.77777779  0.31033958
   0.77777785  0.77777779  0.31033958
   0.88810894  0.22378214  0.40820886
   0.22174395  0.22174394  0.40575603
   0.55651215  0.22174394  0.40575603
   0.88613860  0.55693073  0.40681974
   0.22174391  0.55651215  0.40575603
   0.55693073  0.55693073  0.40681974
   0.88810894  0.88810894  0.40820886
   0.22378217  0.88810894  0.40820886
   0.55693067  0.88613860  0.40681974
   0.00000000  0.00000000  0.50513673
   0.33368456  0.01316390  0.50736930
   0.65315158  0.01316390  0.50736930
   0.01316390  0.33368456  0.50736930
   0.65315158  0.33368456  0.50736930
   0.01316390  0.65315158  0.50736930
   0.33368456  0.65315158  0.50736930
   0.66666663  0.66666669  0.50511545
   0.33333331  0.33333334  0.49246231
   0.27918770  0.26263634  0.59339432
   0.45804139  0.26232828  0.59343166
   0.33339991  0.33317526  0.58422383
 
 position of ions in cartesian coordinates  (Angst):
   0.00000000  0.00000000  5.28037993
   2.93783769  0.00000000  5.28037993
   5.87567538  0.00000000  5.28037993
   1.46891901  2.54424197  5.28037993
   4.40675643  2.54424197  5.28037993
   7.34459439  2.54424197  5.28037993
   2.93783803  5.08848395  5.28037993
   5.87567571  5.08848395  5.28037993
   8.81351288  5.08848395  5.28037993
   1.46891893  0.84808064  7.67911405
   4.40675623  0.84808064  7.67911405
   7.34459418  0.84808064  7.67911405
   2.93783798  3.39232256  7.67911405
   5.87567574  3.39232256  7.67911405
   8.81351263  3.39232256  7.67911405
   4.40675667  5.93656453  7.67911405
   7.34459449  5.93656453  7.67911405
  10.28243270  5.93656453  7.67911405
   8.81351299  1.70806766 10.10081404
   2.93151481  1.69251066 10.04012044
   5.88199861  1.69251066 10.04012044
  10.26425226  4.25089948 10.06644130
   4.40675655  4.24770460 10.04012044
   7.36277444  4.25089948 10.06644130
  11.74103972  6.77869192 10.10081404
   5.88598719  6.77869192 10.10081404
   8.81351299  6.76365289 10.06644130
   0.00000000  0.00000000 12.49921944
   2.99894321  0.10047641 12.55446278
   5.81456987  0.10047641 12.55446278
   1.58648690  2.54692269 12.55446278
   7.22702651  2.54692269 12.55446278
   2.99430039  4.98532682 12.55446278
   5.81921334  4.98532682 12.55446278
   8.81351288  5.08848395 12.49869278
   4.40675643  2.54424197 12.18560065
   3.61799890  2.00463115 14.68308557
   5.19297060  2.00227980 14.68400941
   4.40664671  2.54303535 14.45616890
 


--------------------------------------------------------------------------------------------------------


 k-point   1 :   0.0000 0.0000 0.0000  plane waves:   42157
 k-point   2 :   0.1250-0.0000 0.0000  plane waves:   42204
 k-point   3 :   0.1250 0.1250 0.0000  plane waves:   42204
 k-point   4 :   0.0000 0.1250 0.0000  plane waves:   42204
 k-point   5 :   0.2500-0.0000 0.0000  plane waves:   42256
 k-point   6 :   0.2500 0.2500 0.0000  plane waves:   42256
 k-point   7 :   0.0000 0.2500 0.0000  plane waves:   42256
 k-point   8 :   0.3750 0.0000 0.0000  plane waves:   42248
 k-point   9 :   0.3750 0.3750 0.0000  plane waves:   42248
 k-point  10 :   0.0000 0.3750 0.0000  plane waves:   42248
 k-point  11 :   0.5000-0.0000 0.0000  plane waves:   42276
 k-point  12 :   0.5000 0.5000 0.0000  plane waves:   42276
 k-point  13 :   0.0000 0.5000 0.0000  plane waves:   42276
 k-point  14 :   0.2500 0.1250 0.0000  plane waves:   42212
 k-point  15 :   0.1250 0.2500 0.0000  plane waves:   42212
 k-point  16 :  -0.1250 0.1250 0.0000  plane waves:   42212
 k-point  17 :   0.3750 0.1250 0.0000  plane waves:   42250
 k-point  18 :   0.2500 0.3750 0.0000  plane waves:   42250
 k-point  19 :  -0.1250 0.2500 0.0000  plane waves:   42250
 k-point  20 :   0.2500-0.1250 0.0000  plane waves:   42250
 k-point  21 :  -0.1250-0.3750 0.0000  plane waves:   42250
 k-point  22 :  -0.3750-0.2500 0.0000  plane waves:   42250
 k-point  23 :   0.5000 0.1250 0.0000  plane waves:   42294
 k-point  24 :   0.3750 0.5000 0.0000  plane waves:   42294
 k-point  25 :  -0.1250 0.3750 0.0000  plane waves:   42294
 k-point  26 :   0.3750-0.1250 0.0000  plane waves:   42294
 k-point  27 :  -0.1250 0.5000 0.0000  plane waves:   42294
 k-point  28 :   0.5000-0.3750 0.0000  plane waves:   42294
 k-point  29 :   0.5000 0.2500 0.0000  plane waves:   42246
 k-point  30 :   0.2500 0.5000 0.0000  plane waves:   42246
 k-point  31 :  -0.2500 0.2500 0.0000  plane waves:   42246
 k-point  32 :  -0.3750 0.2500 0.0000  plane waves:   42274
 k-point  33 :   0.3750-0.3750 0.0000  plane waves:   42274
 k-point  34 :  -0.2500 0.3750 0.0000  plane waves:   42274

 maximum and minimum number of plane-waves per node :     42294    42157

 maximum number of plane-waves:     42294
 maximum index in each direction: 
   IXMAX=   16   IYMAX=   16   IZMAX=   45
   IXMIN=  -16   IYMIN=  -16   IZMIN=  -45


 serial   3D FFT for wavefunctions
 parallel 3D FFT for charge:
    minimum data exchange during FFTs selected (reduces bandwidth)


 total amount of memory used by VASP MPI-rank0   280975. kBytes
=======================================================================

   base      :      30000. kBytes
   nonlr-proj:      14408. kBytes
   fftplans  :       4808. kBytes
   grid      :      20723. kBytes
   one-center:        606. kBytes
   wavefun   :     210430. kBytes
 
     INWAV:  cpu time    0.0000: real time    0.0000
 initial charge density was supplied:
 number of electron     398.9999980 magnetization 
 keeping initial charge density in first step


--------------------------------------------------------------------------------------------------------


 Maximum index for non-local projection operator         2993
 Maximum index for augmentation-charges          846 (set IRDMAX)


--------------------------------------------------------------------------------------------------------


 First call to EWALD:  gamma=   0.150
 Maximum number of real-space cells 4x 4x 2
 Maximum number of reciprocal cells 2x 2x 5

    FEWALD:  cpu time    0.0013: real time    0.0013


--------------------------------------- Iteration      1(   1)  ---------------------------------------


    POTLOK:  cpu time    0.0491: real time    0.0495
    SETDIJ:  cpu time    0.0049: real time    0.0050
     EDDAV:  cpu time   26.6553: real time   26.6582
 BZINTS: Fermi energy:   10.841512;  399.000000 electrons
         Band energy: 0.137235E+04;  BLOECHL correction:   -0.019350
       DOS:  cpu time    0.0592: real time    0.0593
    --------------------------------------------
      LOOP:  cpu time   26.7686: real time   26.7721

 eigenvalue-minimisations  : 17136
 total energy-change (2. order) : 0.2638300E+04  (-0.1765724E+05)
 number of electron     398.9999980 magnetization 
 augmentation part      398.9999980 magnetization 

 Free energy of the ion-electron system (eV)
  ---------------------------------------------------
  alpha Z        PSCENC =       924.20949584
  Ewald energy   TEWEN  =    131791.27691397
  -Hartree energ DENC   =   -165810.55240177
  -exchange      EXHF   =         0.00000000
  -V(xc)+E(xc)   XCENC  =       503.91427191
  PAW double counting   =     36210.35252082   -35428.07020527
  entropy T*S    EENTRO =         0.00000000
  eigenvalues    EBANDS =      1372.34512474
  atomic energy  EATOM  =     33074.82412871
  Solvation  Ediel_sol  =         0.00000000
  ---------------------------------------------------
  free energy    TOTEN  =      2638.29984894 eV

  energy without entropy =     2638.29984894  energy(sigma->0) =     2638.29984894


--------------------------------------------------------------------------------------------------------




--------------------------------------- Iteration      1(   2)  ---------------------------------------


     EDDAV:  cpu time   29.3077: real time   29.3093
 BZINTS: Fermi energy:    1.223716;  399.000000 electrons
         Band energy:-0.124972E+04;  BLOECHL correction:   -0.042737
       DOS:  cpu time    0.0582: real time    0.0582
    --------------------------------------------
      LOOP:  cpu time   29.3659: real time   29.3675

 eigenvalue-minimisations  : 19264
 total energy-change (2. order) :-0.2622066E+04  (-0.2422397E+04)
 number of electron     398.9999980 magnetization 
 augmentation part      398.9999980 magnetization 

 Free energy of the ion-electron system (eV)
  ---------------------------------------------------
  alpha Z        PSCENC =       924.20949584
  Ewald energy   TEWEN  =    131791.27691397
  -Hartree energ DENC   =   -165810.55240177
  -exchange      EXHF   =         0.00000000
  -V(xc)+E(xc)   XCENC  =       503.91427191
  PAW double counting   =     36210.35252082   -35428.07020527
  entropy T*S    EENTRO =         0.00000000
  eigenvalues    EBANDS =     -1249.72070078
  atomic energy  EATOM  =     33074.82412871
  Solvation  Ediel_sol  =         0.00000000
  ---------------------------------------------------
  free energy    TOTEN  =        16.23402342 eV

  energy without entropy =       16.23402342  energy(sigma->0) =       16.23402342


--------------------------------------------------------------------------------------------------------




--------------------------------------- Iteration      1(   3)  ---------------------------------------


     EDDAV:  cpu time   30.2896: real time   30.2913
 BZINTS: Fermi energy:    0.426965;  399.000000 electrons
         Band energy:-0.139465E+04;  BLOECHL correction:   -0.025171
       DOS:  cpu time    0.0588: real time    0.0588
    --------------------------------------------
      LOOP:  cpu time   30.3484: real time   30.3501

 eigenvalue-minimisations  : 19992
 total energy-change (2. order) :-0.1449321E+03  (-0.1401158E+03)
 number of electron     398.9999980 magnetization 
 augmentation part      398.9999980 magnetization 

 Free energy of the ion-electron system (eV)
  ---------------------------------------------------
  alpha Z        PSCENC =       924.20949584
  Ewald energy   TEWEN  =    131791.27691397
  -Hartree energ DENC   =   -165810.55240177
  -exchange      EXHF   =         0.00000000
  -V(xc)+E(xc)   XCENC  =       503.91427191
  PAW double counting   =     36210.35252082   -35428.07020527
  entropy T*S    EENTRO =         0.00000000
  eigenvalues    EBANDS =     -1394.65280044
  atomic energy  EATOM  =     33074.82412871
  Solvation  Ediel_sol  =         0.00000000
  ---------------------------------------------------
  free energy    TOTEN  =      -128.69807624 eV

  energy without entropy =     -128.69807624  energy(sigma->0) =     -128.69807624


--------------------------------------------------------------------------------------------------------




--------------------------------------- Iteration      1(   4)  ---------------------------------------


     EDDAV:  cpu time   28.7743: real time   28.7759
 BZINTS: Fermi energy:    0.405440;  399.000000 electrons
         Band energy:-0.139780E+04;  BLOECHL correction:   -0.025670
       DOS:  cpu time    0.0601: real time    0.0601
    --------------------------------------------
      LOOP:  cpu time   28.8344: real time   28.8361

 eigenvalue-minimisations  : 18788
 total energy-change (2. order) :-0.3151869E+01  (-0.3142209E+01)
 number of electron     398.9999980 magnetization 
 augmentation part      398.9999980 magnetization 

 Free energy of the ion-electron system (eV)
  ---------------------------------------------------
  alpha Z        PSCENC =       924.20949584
  Ewald energy   TEWEN  =    131791.27691397
  -Hartree energ DENC   =   -165810.55240177
  -exchange      EXHF   =         0.00000000
  -V(xc)+E(xc)   XCENC  =       503.91427191
  PAW double counting   =     36210.35252082   -35428.07020527
  entropy T*S    EENTRO =         0.00000000
  eigenvalues    EBANDS =     -1397.80466914
  atomic energy  EATOM  =     33074.82412871
  Solvation  Ediel_sol  =         0.00000000
  ---------------------------------------------------
  free energy    TOTEN  =      -131.84994493 eV

  energy without entropy =     -131.84994493  energy(sigma->0) =     -131.84994493


--------------------------------------------------------------------------------------------------------




--------------------------------------- Iteration      1(   5)  ---------------------------------------


     EDDAV:  cpu time   32.3414: real time   32.3462
 BZINTS: Fermi energy:    0.404962;  399.000000 electrons
         Band energy:-0.139790E+04;  BLOECHL correction:   -0.025669
       DOS:  cpu time    0.0601: real time    0.0601
    --------------------------------------------
      LOOP:  cpu time   32.4015: real time   32.4063

 eigenvalue-minimisations  : 21616
 total energy-change (2. order) :-0.9444296E-01  (-0.9440194E-01)
 number of electron     398.9999980 magnetization 
 augmentation part      398.9999980 magnetization 

 Free energy of the ion-electron system (eV)
  ---------------------------------------------------
  alpha Z        PSCENC =       924.20949584
  Ewald energy   TEWEN  =    131791.27691397
  -Hartree energ DENC   =   -165810.55240177
  -exchange      EXHF   =         0.00000000
  -V(xc)+E(xc)   XCENC  =       503.91427191
  PAW double counting   =     36210.35252082   -35428.07020527
  entropy T*S    EENTRO =         0.00000000
  eigenvalues    EBANDS =     -1397.89911210
  atomic energy  EATOM  =     33074.82412871
  Solvation  Ediel_sol  =         0.00000000
  ---------------------------------------------------
  free energy    TOTEN  =      -131.94438789 eV

  energy without entropy =     -131.94438789  energy(sigma->0) =     -131.94438789


--------------------------------------------------------------------------------------------------------




--------------------------------------- Iteration      1(   6)  ---------------------------------------


    EDDIAG:  cpu time    5.2384: real time    5.2391
  RMM-DIIS:  cpu time   15.2249: real time   15.2256
    ORTHCH:  cpu time    0.9781: real time    0.9782
 BZINTS: Fermi energy:    0.404960;  399.000000 electrons
         Band energy:-0.139790E+04;  BLOECHL correction:   -0.025669
       DOS:  cpu time    0.0589: real time    0.0589
    --------------------------------------------
      LOOP:  cpu time   21.5002: real time   21.5017

 eigenvalue-minimisations  : 17497
 total energy-change (2. order) :-0.2108615E-02  (-0.2108470E-02)
 number of electron     398.9999980 magnetization 
 augmentation part      398.9999980 magnetization 

 Free energy of the ion-electron system (eV)
  ---------------------------------------------------
  alpha Z        PSCENC =       924.20949584
  Ewald energy   TEWEN  =    131791.27691397
  -Hartree energ DENC   =   -165810.55240177
  -exchange      EXHF   =         0.00000000
  -V(xc)+E(xc)   XCENC  =       503.91427191
  PAW double counting   =     36210.35252082   -35428.07020527
  entropy T*S    EENTRO =         0.00000000
  eigenvalues    EBANDS =     -1397.90122071
  atomic energy  EATOM  =     33074.82412871
  Solvation  Ediel_sol  =         0.00000000
  ---------------------------------------------------
  free energy    TOTEN  =      -131.94649651 eV

  energy without entropy =     -131.94649651  energy(sigma->0) =     -131.94649651


--------------------------------------------------------------------------------------------------------




--------------------------------------- Iteration      1(   7)  ---------------------------------------


    EDDIAG:  cpu time    5.2397: real time    5.2402
  RMM-DIIS:  cpu time   20.0532: real time   20.0543
    ORTHCH:  cpu time    0.9779: real time    0.9780
 BZINTS: Fermi energy:    0.404960;  399.000000 electrons
         Band energy:-0.139790E+04;  BLOECHL correction:   -0.025669
       DOS:  cpu time    0.0588: real time    0.0588
    --------------------------------------------
      LOOP:  cpu time   26.3296: real time   26.3313

 eigenvalue-minimisations  : 23079
 total energy-change (2. order) :-0.6683082E-03  (-0.6664012E-03)
 number of electron     398.9999980 magnetization 
 augmentation part      398.9999980 magnetization 

 Free energy of the ion-electron system (eV)
  ---------------------------------------------------
  alpha Z        PSCENC =       924.20949584
  Ewald energy   TEWEN  =    131791.27691397
  -Hartree energ DENC   =   -165810.55240177
  -exchange      EXHF   =         0.00000000
  -V(xc)+E(xc)   XCENC  =       503.91427191
  PAW double counting   =     36210.35252082   -35428.07020527
  entropy T*S    EENTRO =         0.00000000
  eigenvalues    EBANDS =     -1397.90188902
  atomic energy  EATOM  =     33074.82412871
  Solvation  Ediel_sol  =         0.00000000
  ---------------------------------------------------
  free energy    TOTEN  =      -131.94716482 eV

  energy without entropy =     -131.94716482  energy(sigma->0) =     -131.94716482


--------------------------------------------------------------------------------------------------------




--------------------------------------- Iteration      1(   8)  ---------------------------------------


    EDDIAG:  cpu time    5.2390: real time    5.2396
  RMM-DIIS:  cpu time   18.0810: real time   18.0820
    ORTHCH:  cpu time    0.9787: real time    0.9788
 BZINTS: Fermi energy:    0.404960;  399.000000 electrons
         Band energy:-0.139790E+04;  BLOECHL correction:   -0.025669
       DOS:  cpu time    0.0588: real time    0.0588
    --------------------------------------------
      LOOP:  cpu time   24.3576: real time   24.3592

 eigenvalue-minimisations  : 20362
 total energy-change (2. order) :-0.4979459E-04  (-0.5100500E-04)
 number of electron     398.9999980 magnetization 
 augmentation part      398.9999980 magnetization 

 Free energy of the ion-electron system (eV)
  ---------------------------------------------------
  alpha Z        PSCENC =       924.20949584
  Ewald energy   TEWEN  =    131791.27691397
  -Hartree energ DENC   =   -165810.55240177
  -exchange      EXHF   =         0.00000000
  -V(xc)+E(xc)   XCENC  =       503.91427191
  PAW double counting   =     36210.35252082   -35428.07020527
  entropy T*S    EENTRO =         0.00000000
  eigenvalues    EBANDS =     -1397.90193881
  atomic energy  EATOM  =     33074.82412871
  Solvation  Ediel_sol  =         0.00000000
  ---------------------------------------------------
  free energy    TOTEN  =      -131.94721461 eV

  energy without entropy =     -131.94721461  energy(sigma->0) =     -131.94721461


--------------------------------------------------------------------------------------------------------




--------------------------------------- Iteration      1(   9)  ---------------------------------------


    EDDIAG:  cpu time    5.2434: real time    5.2440
  RMM-DIIS:  cpu time   13.1296: real time   13.1303
    ORTHCH:  cpu time    0.9789: real time    0.9790
 BZINTS: Fermi energy:    0.404960;  399.000000 electrons
         Band energy:-0.139790E+04;  BLOECHL correction:   -0.025669
       DOS:  cpu time    0.0601: real time    0.0601
    --------------------------------------------
      LOOP:  cpu time   19.4121: real time   19.4134

 eigenvalue-minimisations  : 12906
 total energy-change (2. order) :-0.4947156E-05  (-0.4914488E-05)
 number of electron     398.9999980 magnetization 
 augmentation part      398.9999980 magnetization 

 Free energy of the ion-electron system (eV)
  ---------------------------------------------------
  alpha Z        PSCENC =       924.20949584
  Ewald energy   TEWEN  =    131791.27691397
  -Hartree energ DENC   =   -165810.55240177
  -exchange      EXHF   =         0.00000000
  -V(xc)+E(xc)   XCENC  =       503.91427191
  PAW double counting   =     36210.35252082   -35428.07020527
  entropy T*S    EENTRO =         0.00000000
  eigenvalues    EBANDS =     -1397.90194376
  atomic energy  EATOM  =     33074.82412871
  Solvation  Ediel_sol  =         0.00000000
  ---------------------------------------------------
  free energy    TOTEN  =      -131.94721956 eV

  energy without entropy =     -131.94721956  energy(sigma->0) =     -131.94721956


--------------------------------------------------------------------------------------------------------




 average (electrostatic) potential at core
  the test charge radii are     1.2098  1.1823  0.5201  0.7215
  (the norm of the test charge is              1.0000)
       1 -72.6473       2 -72.6202       3 -72.6201       4 -72.6184       5 -72.6147
       6 -72.6181       7 -72.6220       8 -72.6218       9 -72.6319      10 -72.9731
      11 -72.9170      12 -72.9729      13 -72.9189      14 -72.9185      15 -72.9482
      16 -72.9776      17 -72.9505      18 -72.9507      19 -72.9007      20 -73.2491
      21 -73.2489      22 -72.9197      23 -73.2516      24 -72.9193      25 -72.9007
      26 -72.9005      27 -72.9216      28 -72.6427      29 -72.8626      30 -72.8627
      31 -72.8464      32 -72.8459      33 -72.8041      34 -72.8038      35 -72.6293
      36 -46.2957      37 -41.0651      38 -41.0696      39 -77.7325
 
 
 
 E-fermi :   0.4050     XC(G=0):  -5.5975     alpha+bet : -5.2101

 Fermi energy:         0.4049599613

 k-point     1 :       0.0000    0.0000    0.0000
  band No.  band energies     occupation 
      1     -22.2721      2.00000
      2     -10.0221      2.00000
      3      -8.4518      2.00000
      4      -7.3936      2.00000
      5      -6.9307      2.00000
      6      -6.3721      2.00000
      7      -6.3166      2.00000
      8      -6.3123      2.00000
      9      -6.3088      2.00000
     10      -6.2714      2.00000
     11      -6.2215      2.00000
     12      -6.2106      2.00000
     13      -6.2105      2.00000
     14      -5.8298      2.00000
     15      -5.8250      2.00000
     16      -5.8246      2.00000
     17      -5.7917      2.00000
     18      -5.7376      2.00000
     19      -5.7366      2.00000
     20      -5.4908      2.00000
     21      -5.4688      2.00000
     22      -5.4683      2.00000
     23      -5.4445      2.00000
     24      -5.3961      2.00000
     25      -5.3905      2.00000
     26      -5.3747      2.00000
     27      -5.2467      2.00000
     28      -5.2456      2.00000
     29      -5.2439      2.00000
     30      -5.2420      2.00000
     31      -5.2249      2.00000
     32      -5.1162      2.00000
     33      -5.1157      2.00000
     34      -5.1066      2.00000
     35      -5.0990      2.00000
     36      -5.0733      2.00000
     37      -5.0569      2.00000
     38      -5.0542      2.00000
     39      -5.0541      2.00000
     40      -5.0147      2.00000
     41      -5.0124      2.00000
     42      -5.0121      2.00000
     43      -5.0035      2.00000
     44      -4.9559      2.00000
     45      -4.5882      2.00000
     46      -4.5828      2.00000
     47      -4.5500      2.00000
     48      -4.5487      2.00000
     49      -4.5445      2.00000
     50      -4.5078      2.00000
     51      -4.5012      2.00000
     52      -4.4975      2.00000
     53      -4.4680      2.00000
     54      -4.4626      2.00000
     55      -4.3734      2.00000
     56      -4.3693      2.00000
     57      -4.3539      2.00000
     58      -4.2939      2.00000
     59      -4.0602      2.00000
     60      -4.0262      2.00000
     61      -4.0256      2.00000
     62      -3.9977      2.00000
     63      -3.9948      2.00000
     64      -3.9877      2.00000
     65      -3.9788      2.00000
     66      -3.9043      2.00000
     67      -3.9035      2.00000
     68      -3.8566      2.00000
     69      -3.8533      2.00000
     70      -3.8433      2.00000
     71      -3.8201      2.00000
     72      -3.8157      2.00000
     73      -3.8010      2.00000
     74      -3.8003      2.00000
     75      -3.7896      2.00000
     76      -3.7436      2.00000
     77      -3.7253      2.00000
     78      -3.7211      2.00000
     79      -3.7079      2.00000
     80      -3.7078      2.00000
     81      -3.7014      2.00000
     82      -3.6983      2.00000
     83      -3.6942      2.00000
     84      -3.6616      2.00000
     85      -3.6509      2.00000
     86      -3.6268      2.00000
     87      -3.6218      2.00000
     88      -3.6204      2.00000
     89      -3.5982      2.00000
     90      -3.5568      2.00000
     91      -3.5558      2.00000
     92      -3.5382      2.00000
[...]
  0.000   0.000   0.000   0.000   0.000   0.000   0.000   0.000   0.000   0.000   1.000   0.000   0.000   0.000   0.000   0.000
  0.000   0.000   0.000   0.000   0.000   0.000   0.000   0.000   0.000   0.000   0.000   0.000   0.000   0.000   0.000   0.000
  0.000   0.000   0.000   0.000   0.000   0.000   0.000   0.000   0.000   0.000   0.000   0.000   0.000   0.000   0.000   0.000
  0.000   0.000   0.000   0.000   0.000   0.000   0.000   0.000   0.000   0.000   0.000   0.000   0.000   0.000   0.000   0.000
  0.000   0.000   0.000   0.000   0.000   0.000   0.000   0.000   0.000   0.000   0.000   0.000   0.000   0.000   0.000   0.000
  0.000   0.000   0.000   0.000   0.000   0.000   0.000   0.000   0.000   0.000   0.000   0.000   0.000   0.000   0.000   0.000
  0.000   0.000   0.000   0.000   0.000   0.000   0.000   0.000   0.000   0.000   0.000   0.000   0.000   0.000   0.000   0.000
  0.000   0.000   0.000   0.000   0.000   0.000   0.000   0.000   0.000   0.000   0.000   0.000   0.000   0.000   0.000   0.000


------------------------ aborting loop because EDIFF is reached ----------------------------------------





 total charge

# of ion       s       p       d       tot
------------------------------------------
    1        0.548   0.238   8.768   9.554
    2        0.543   0.241   8.765   9.549
    3        0.543   0.241   8.765   9.549
    4        0.543   0.241   8.765   9.549
    5        0.546   0.239   8.763   9.548
    6        0.543   0.241   8.765   9.549
    7        0.542   0.241   8.766   9.549
    8        0.542   0.241   8.766   9.549
    9        0.543   0.239   8.767   9.549
   10        0.529   0.306   8.766   9.601
   11        0.523   0.307   8.780   9.610
   12        0.529   0.306   8.766   9.601
   13        0.522   0.307   8.779   9.609
   14        0.522   0.307   8.779   9.609
   15        0.516   0.307   8.776   9.600
   16        0.529   0.306   8.766   9.601
   17        0.516   0.307   8.777   9.600
   18        0.516   0.307   8.777   9.600
   19        0.518   0.295   8.771   9.584
   20        0.579   0.350   8.718   9.646
   21        0.579   0.350   8.718   9.646
   22        0.506   0.306   8.780   9.592
   23        0.579   0.349   8.718   9.646
   24        0.506   0.306   8.780   9.592
   25        0.517   0.294   8.772   9.584
   26        0.517   0.294   8.772   9.584
   27        0.508   0.306   8.780   9.593
   28        0.540   0.228   8.752   9.519
   29        0.589   0.262   8.727   9.578
   30        0.589   0.262   8.727   9.578
   31        0.589   0.261   8.727   9.576
   32        0.588   0.261   8.727   9.576
   33        0.584   0.254   8.731   9.569
   34        0.584   0.254   8.731   9.569
   35        0.534   0.227   8.757   9.518
   36        0.555   0.469   3.788   4.811
   37        0.598   0.118   0.000   0.716
   38        0.599   0.118   0.000   0.716
   39        1.567   3.613   0.000   5.181
--------------------------------------------------
tot         22.324  14.096 310.331 346.750
 
    CHARGE:  cpu time    1.2081: real time    1.2082
    FORLOC:  cpu time    0.0124: real time    0.0124
    FORNL :  cpu time    5.3354: real time    5.3358
    STRESS:  cpu time   16.0355: real time   16.0365
    FORCOR:  cpu time    0.0477: real time    0.0479
    FORHAR:  cpu time    0.0197: real time    0.0198
    OFIELD:  cpu time    0.0003: real time    0.0003

  FORCE on cell =-STRESS in cart. coord.  units (eV):
  Direction    XX          YY          ZZ          XY          YZ          ZX
  --------------------------------------------------------------------------------------
  Alpha Z   924.20950   924.20950   924.20950
  Ewald  154322.37642154256.19540************    -0.11449   -13.60946     0.06816
  Hartree162720.31937162708.27595************    -0.02101     3.12318     0.03216
  E(xc)   -1789.22275 -1789.40110 -1797.02567    -0.00026    -0.01731     0.00040
  Local  ************************329286.69338     0.10356     3.52722    -0.08974
  n-local   -86.22683   -86.86145   -56.40812     0.00855    -0.04184    -0.00269
  augment  2372.89523  2374.06095  2395.41750     0.00042     0.35995    -0.00085
  Kinetic  5550.67634  5568.93230  5636.41176     0.02661     6.52103    -0.00756
  Fock        0.00000     0.00000     0.00000     0.00000     0.00000     0.00000
  -------------------------------------------------------------------------------------
  Total     -22.29751   -22.39672     2.77827     0.00337    -0.13723    -0.00012
  in kB     -21.46171   -21.55720     2.67413     0.00324    -0.13209    -0.00011
  external pressure =      -13.45 kB  Pullay stress =        0.00 kB


 VOLUME and BASIS-vectors are now :
 -----------------------------------------------------------------------------
  energy-cutoff  :      500.00
  volume of cell :     1664.57
      direct lattice vectors                 reciprocal lattice vectors
     8.813512802  0.000000000  0.000000000     0.113462137 -0.065507406  0.000000000
     4.406756909  7.632725690  0.000000000     0.000000000  0.131014796  0.000000000
     0.000000000  0.000000000 24.744230039     0.000000000  0.000000000  0.040413462

  length of vectors
     8.813512802  8.813512802 24.744230039     0.131014796  0.131014796  0.040413462


 FORCES acting on ions
    electron-ion (+dipol)            ewald-force                    non-local-force                 convergence-correction
 -----------------------------------------------------------------------------------------------
   0.154E-02 -.127E-01 0.267E+04   0.250E-04 -.968E-02 -.267E+04   -.423E-05 0.648E-02 -.876E+00   -.156E-02 0.163E-01 -.198E+00
   0.484E+00 -.106E+00 0.267E+04   -.771E+00 -.193E+00 -.267E+04   0.111E+00 0.172E+00 -.178E+00   0.160E+00 0.113E+00 -.224E+00
   -.486E+00 -.118E+00 0.267E+04   0.771E+00 -.193E+00 -.267E+04   -.111E+00 0.172E+00 -.178E+00   -.159E+00 0.125E+00 -.222E+00
   0.160E+00 0.471E+00 0.267E+04   -.544E+00 -.560E+00 -.267E+04   0.193E+00 -.532E-02 -.183E+00   0.171E+00 0.864E-01 -.234E+00
   -.149E-01 -.458E-01 0.268E+04   0.153E-03 0.162E-01 -.268E+04   0.606E-04 0.492E-02 0.141E+00   0.149E-01 0.186E-01 -.196E+00
   -.149E+00 0.467E+00 0.267E+04   0.544E+00 -.560E+00 -.267E+04   -.193E+00 -.529E-02 -.183E+00   -.182E+00 0.913E-01 -.228E+00
   -.358E+00 -.341E+00 0.267E+04   0.227E+00 0.753E+00 -.267E+04   0.104E+00 -.175E+00 -.215E+00   0.172E-01 -.213E+00 -.233E+00
   0.349E+00 -.334E+00 0.267E+04   -.227E+00 0.753E+00 -.267E+04   -.104E+00 -.175E+00 -.216E+00   -.722E-02 -.220E+00 -.230E+00
   0.144E-01 0.260E-01 0.268E+04   0.136E-03 -.629E-02 -.267E+04   0.244E-05 -.293E-02 -.466E+00   -.147E-01 -.167E-01 -.201E+00
   0.767E+01 0.442E+01 0.897E+03   -.726E+01 -.419E+01 -.896E+03   -.470E+00 -.281E+00 -.795E+00   0.642E-01 0.486E-01 0.341E-01
   -.116E-01 0.298E+01 0.904E+03   0.460E-03 -.305E+01 -.904E+03   0.808E-05 0.281E-02 -.105E+00   0.113E-01 0.127E-01 0.711E-01
   -.766E+01 0.441E+01 0.897E+03   0.726E+01 -.419E+01 -.896E+03   0.470E+00 -.281E+00 -.795E+00   -.714E-01 0.593E-01 0.318E-01
   0.258E+01 -.158E+01 0.904E+03   -.264E+01 0.162E+01 -.903E+03   0.256E-01 -.307E-02 -.111E+00   -.253E-02 -.963E-02 0.668E-01
   -.260E+01 -.158E+01 0.904E+03   0.264E+01 0.162E+01 -.903E+03   -.256E-01 -.292E-02 -.111E+00   0.258E-01 -.107E-01 0.665E-01
   0.141E-01 0.555E+01 0.902E+03   -.151E-03 -.570E+01 -.902E+03   -.144E-03 0.265E-01 -.589E+00   -.139E-01 0.361E-01 0.328E-01
   -.489E-02 -.879E+01 0.897E+03   0.248E-03 0.828E+01 -.896E+03   0.339E-04 0.573E+00 -.802E+00   0.464E-02 -.592E-01 0.305E-01
   0.489E+01 -.270E+01 0.902E+03   -.502E+01 0.279E+01 -.902E+03   0.171E-01 -.144E-01 -.599E+00   0.373E-01 -.386E-01 0.342E-01
   -.489E+01 -.271E+01 0.902E+03   0.502E+01 0.279E+01 -.902E+03   -.171E-01 -.143E-01 -.599E+00   -.417E-01 -.271E-01 0.322E-01
   0.643E-02 0.302E+01 -.911E+03   -.259E-02 -.314E+01 0.909E+03   -.183E-03 -.360E-01 0.435E+00   -.370E-02 0.951E-01 0.641E+00
   0.173E+01 0.400E+00 -.864E+03   -.670E+00 0.189E+00 0.864E+03   -.121E+01 -.674E+00 -.159E+01   0.183E+00 0.105E+00 0.849E+00
   -.174E+01 0.387E+00 -.864E+03   0.672E+00 0.190E+00 0.864E+03   0.121E+01 -.674E+00 -.159E+01   -.178E+00 0.117E+00 0.847E+00
   -.918E+01 0.506E+01 -.886E+03   0.862E+01 -.473E+01 0.885E+03   0.505E+00 -.273E+00 0.570E+00   0.574E-01 -.549E-01 0.591E+00
   -.143E-01 -.217E+01 -.865E+03   0.250E-02 0.921E+00 0.866E+03   -.216E-04 0.145E+01 -.152E+01   0.119E-01 -.221E+00 0.828E+00
   0.921E+01 0.506E+01 -.886E+03   -.862E+01 -.474E+01 0.885E+03   -.505E+00 -.273E+00 0.570E+00   -.783E-01 -.536E-01 0.588E+00
   -.310E+01 -.980E+00 -.911E+03   0.318E+01 0.106E+01 0.910E+03   0.529E-01 -.108E-01 0.519E+00   -.748E-01 -.306E-01 0.637E+00
   0.309E+01 -.969E+00 -.911E+03   -.318E+01 0.105E+01 0.910E+03   -.526E-01 -.110E-01 0.519E+00   0.837E-01 -.391E-01 0.641E+00
   0.120E-01 -.979E+01 -.886E+03   0.586E-03 0.912E+01 0.884E+03   0.389E-05 0.585E+00 0.523E+00   -.128E-01 0.828E-01 0.596E+00
   -.102E-02 0.205E+01 -.260E+04   -.516E-02 -.211E+01 0.260E+04   0.105E-03 0.316E-01 0.450E+00   0.606E-02 0.150E-01 0.478E+00
   0.329E+02 0.530E+02 -.259E+04   -.318E+02 -.514E+02 0.259E+04   -.131E+01 -.202E+01 -.837E+00   0.170E+00 0.253E+00 0.408E+00
   -.328E+02 0.529E+02 -.259E+04   0.318E+02 -.513E+02 0.259E+04   0.131E+01 -.202E+01 -.838E+00   -.184E+00 0.263E+00 0.411E+00
   0.588E+02 -.140E+01 -.259E+04   -.568E+02 0.152E+01 0.259E+04   -.244E+01 -.130E+00 -.800E+00   0.297E+00 0.230E-01 0.405E+00
   -.588E+02 -.141E+01 -.259E+04   0.568E+02 0.152E+01 0.259E+04   0.244E+01 -.130E+00 -.798E+00   -.315E+00 0.299E-01 0.402E+00
   0.242E+02 -.487E+02 -.260E+04   -.234E+02 0.471E+02 0.260E+04   -.104E+01 0.204E+01 -.384E+00   0.116E+00 -.286E+00 0.419E+00
   -.242E+02 -.487E+02 -.260E+04   0.234E+02 0.470E+02 0.260E+04   0.104E+01 0.204E+01 -.383E+00   -.118E+00 -.289E+00 0.413E+00
   0.167E-01 0.122E+01 -.260E+04   -.581E-02 -.123E+01 0.260E+04   0.863E-04 0.143E-01 0.566E+00   -.112E-01 -.118E-01 0.488E+00
   -.214E-01 -.428E+01 -.124E+04   0.169E-01 0.432E+01 0.124E+04   0.423E-03 -.212E-01 0.157E+01   0.483E-02 -.942E-02 0.278E+00
   0.670E+02 0.422E+02 -.289E+03   -.738E+02 -.465E+02 0.291E+03   0.677E+01 0.432E+01 -.185E+01   0.258E-02 0.210E-02 -.290E-01
   -.669E+02 0.424E+02 -.289E+03   0.737E+02 -.468E+02 0.291E+03   -.676E+01 0.435E+01 -.187E+01   -.224E-02 0.229E-02 -.293E-01
   -.885E-01 -.555E+02 -.162E+04   0.135E+00 0.979E+02 0.162E+04   -.518E-01 -.424E+02 0.564E+01   0.282E-02 0.395E-02 -.246E+00
 -----------------------------------------------------------------------------------------------
   0.827E-01 0.339E+02 0.616E+00   0.423E-13 -.284E-13 -.182E-11   -.448E-01 -.339E+02 -.795E+01   -.288E-01 0.833E-02 0.805E+01
 
 
 POSITION                                       TOTAL-FORCE (eV/Angst)
 -----------------------------------------------------------------------------------
      0.00000      0.00000      5.28038        -0.000230     -0.000082     -0.135182
      2.93784      0.00000      5.28038        -0.016063     -0.014467     -0.018824
      5.87568      0.00000      5.28038         0.015609     -0.014444     -0.018837
      1.46892      2.54424      5.28038        -0.020737     -0.008089     -0.015746
      4.40676      2.54424      5.28038        -0.000016     -0.006613     -0.035731
      7.34459      2.54424      5.28038         0.020239     -0.008083     -0.015607
      2.93784      5.08848      5.28038        -0.010697      0.023133     -0.011791
      5.87568      5.08848      5.28038         0.010245      0.023125     -0.011678
      8.81351      5.08848      5.28038        -0.000436     -0.000355     -0.029162
      1.46892      0.84808      7.67911         0.000924      0.000351      0.116382
      4.40676      0.84808      7.67911         0.000003     -0.050452     -0.049153
      7.34459      0.84808      7.67911        -0.001440      0.000405      0.116348
      2.93784      3.39232      7.67911        -0.037305      0.028565     -0.046981
      5.87568      3.39232      7.67911         0.037323      0.028598     -0.047003
      8.81351      3.39232      7.67911        -0.000333     -0.081408      0.048149
      4.40676      5.93656      7.67911        -0.000204      0.002097      0.107460
      7.34459      5.93656      7.67911        -0.069345      0.038135      0.052858
     10.28243      5.93656      7.67911         0.068875      0.038211      0.052839
      8.81351      1.70807     10.10081        -0.000274     -0.060336     -0.006091
      2.93151      1.69251     10.04012         0.030187      0.019451     -0.057976
      5.88200      1.69251     10.04012        -0.030688      0.019581     -0.058024
     10.26425      4.25090     10.06644        -0.002417     -0.003145      0.009294
      4.40676      4.24770     10.04012        -0.000138     -0.017176     -0.024036
      7.36277      4.25090     10.06644         0.001435     -0.003239      0.009356
     11.74104      6.77869     10.10081         0.053466      0.035124     -0.011315
      5.88599      6.77869     10.10081        -0.053891      0.035094     -0.011278
      8.81351      6.76365     10.06644        -0.000449      0.001556      0.000244
      0.00000      0.00000     12.49922        -0.000255     -0.019922     -0.025862
      2.99894      0.10048     12.55446        -0.096996     -0.161652     -0.059423
      5.81457      0.10048     12.55446         0.096112     -0.161633     -0.059273
      1.58649      2.54692     12.55446        -0.153419      0.012769     -0.055151
      7.22703      2.54692     12.55446         0.152495      0.012874     -0.055358
      2.99430      4.98533     12.55446        -0.101489      0.136888     -0.102827
      5.81921      4.98533     12.55446         0.100713      0.136856     -0.103040
      8.81351      5.08848     12.49869        -0.000532     -0.001709     -0.028215
      4.40676      2.54424     12.18560         0.000488      0.012573      0.576754
      3.61800      2.00463     14.68309         0.005229      0.005770     -0.001170
      5.19297      2.00228     14.68401         0.006499     -0.002573      0.001465
      4.40665      2.54304     14.45617        -0.002488      0.004223      0.003586
 -----------------------------------------------------------------------------------
    total drift:                                0.009111      0.019710      0.716343


--------------------------------------------------------------------------------------------------------



  FREE ENERGIE OF THE ION-ELECTRON SYSTEM (eV)
  ---------------------------------------------------
  free  energy   TOTEN  =      -131.94721956 eV

  energy  without entropy=     -131.94721956  energy(sigma->0) =     -131.94721956
 


--------------------------------------------------------------------------------------------------------


    POTLOK:  cpu time    0.0485: real time    0.0485


--------------------------------------------------------------------------------------------------------


 stress matrix after NEB project (eV)
    -22.29751      0.00337     -0.00012
      0.00337    -22.39672     -0.13723
     -0.00012     -0.13723      2.77827
  FORCES: max atom, RMS     0.007875    0.001960
  FORCE total and by dimension    0.012243    0.006499
  Stress total and by dimension   31.726150   22.396721
     LOOP+:  cpu time  262.1484: real time  262.1735
 -----------------------------------------------------------------------------
|                                                                             |
|           W    W    AA    RRRRR   N    N  II  N    N   GGGG   !!!           |
|           W    W   A  A   R    R  NN   N  II  NN   N  G    G  !!!           |
|           W    W  A    A  R    R  N N  N  II  N N  N  G       !!!           |
|           W WW W  AAAAAA  RRRRR   N  N N  II  N  N N  G  GGG   !            |
|           WW  WW  A    A  R   R   N   NN  II  N   NN  G    G                |
|           W    W  A    A  R    R  N    N  II  N    N   GGGG   !!!           |
|                                                                             |
|     Tetrahedron method does not include variations of the Fermi             |
|     occupations, so forces and stress will be inaccurate. We suggest        |
|     using a different smearing scheme ISMEAR = 1 or 2 for metals in         |
|     relaxations.                                                            |
|                                                                             |
 -----------------------------------------------------------------------------

    4ORBIT:  cpu time    0.0000: real time    0.0000



 total charge

# of ion       s       p       d       tot
------------------------------------------
    1        0.548   0.238   8.768   9.554
    2        0.543   0.241   8.765   9.549
    3        0.543   0.241   8.765   9.549
    4        0.543   0.241   8.765   9.549
    5        0.546   0.239   8.763   9.548
    6        0.543   0.241   8.765   9.549
    7        0.542   0.241   8.766   9.549
    8        0.542   0.241   8.766   9.549
    9        0.543   0.239   8.767   9.549
   10        0.529   0.306   8.766   9.601
   11        0.523   0.307   8.780   9.610
   12        0.529   0.306   8.766   9.601
   13        0.522   0.307   8.779   9.609
   14        0.522   0.307   8.779   9.609
   15        0.516   0.307   8.776   9.600
   16        0.529   0.306   8.766   9.601
   17        0.516   0.307   8.777   9.600
   18        0.516   0.307   8.777   9.600
   19        0.518   0.295   8.771   9.584
   20        0.579   0.350   8.718   9.646
   21        0.579   0.350   8.718   9.646
   22        0.506   0.306   8.780   9.592
   23        0.579   0.349   8.718   9.646
   24        0.506   0.306   8.780   9.592
   25        0.517   0.294   8.772   9.584
   26        0.517   0.294   8.772   9.584
   27        0.508   0.306   8.780   9.593
   28        0.540   0.228   8.752   9.519
   29        0.589   0.262   8.727   9.578
   30        0.589   0.262   8.727   9.578
   31        0.589   0.261   8.727   9.576
   32        0.588   0.261   8.727   9.576
   33        0.584   0.254   8.731   9.569
   34        0.584   0.254   8.731   9.569
   35        0.534   0.227   8.757   9.518
   36        0.555   0.469   3.788   4.811
   37        0.598   0.118   0.000   0.716
   38        0.599   0.118   0.000   0.716
   39        1.567   3.613   0.000   5.181
--------------------------------------------------
tot         22.324  14.096 310.331 346.750
 
 BZINTS: Fermi energy:    0.404960;  399.000000 electrons
         Band energy:-0.139790E+04;  BLOECHL correction:   -0.025669

 total amount of memory used by VASP MPI-rank0   280975. kBytes
=======================================================================

   base      :      30000. kBytes
   nonlr-proj:      14408. kBytes
   fftplans  :       4808. kBytes
   grid      :      20723. kBytes
   one-center:        606. kBytes
   wavefun   :     210430. kBytes
 
  
  
 General timing and accounting informations for this job:
 ========================================================
  
                  Total CPU time used (sec):      285.541
                            User time (sec):      275.049
                          System time (sec):       10.492
                         Elapsed time (sec):      286.081
  
                   Maximum memory used (kb):      584748.
                   Average memory used (kb):          N/A
  
                          Minor page faults:       121155
                          Major page faults:            0
                 Voluntary context switches:         6841
