PROCAR new format
# of k-points:   10         # of bands:  252         # of ions:   37

 k-point     1 :    0.00000000 0.00000000 0.00000000     weight = 0.01562500

band     1 # energy   -8.78504896 # occ.  2.00000000
 
ion      s      p      d    tot
    1  0.006  0.001  0.000  0.007
    2  0.006  0.001  0.000  0.007
    3  0.006  0.001  0.000  0.007
    4  0.006  0.001  0.000  0.007
    5  0.006  0.001  0.000  0.007
    6  0.006  0.001  0.000  0.007
    7  0.006  0.001  0.000  0.007
    8  0.006  0.001  0.000  0.007
    9  0.006  0.000  0.000  0.007
   10  0.025  0.000  0.000  0.025
   11  0.026  0.000  0.000  0.026
   12  0.025  0.000  0.000  0.025
   13  0.026  0.000  0.000  0.026
   14  0.026  0.000  0.000  0.026
   15  0.025  0.000  0.000  0.025
   16  0.025  0.000  0.000  0.025
   17  0.025  0.000  0.000  0.025
   18  0.025  0.000  0.000  0.025
   19  0.022  0.000  0.000  0.023
   20  0.027  0.000  0.000  0.027
   21  0.027  0.000  0.000  0.027
   22  0.023  0.000  0.000  0.024
   23  0.027  0.000  0.000  0.027
   24  0.023  0.000  0.000  0.024
   25  0.022  0.000  0.000  0.023
   26  0.022  0.000  0.000  0.023
   27  0.023  0.000  0.000  0.024
   28  0.005  0.000  0.000  0.005
   29  0.005  0.000  0.000  0.006
   30  0.005  0.000  0.000  0.006
   31  0.005  0.000  0.000  0.006
   32  0.005  0.000  0.000  0.006
   33  0.005  0.000  0.000  0.006
   34  0.005  0.000  0.000  0.006
   35  0.005  0.000  0.000  0.005
   36  0.015  0.000  0.003  0.018
   37  0.014  0.000  0.000  0.015
tot    0.570  0.011  0.006  0.587
 
band     2 # energy   -8.06646759 # occ.  2.00000000
 
ion      s      p      d    tot
    1  0.003  0.000  0.000  0.003
    2  0.003  0.000  0.000  0.004
    3  0.003  0.000  0.000  0.004
    4  0.003  0.000  0.000  0.004
    5  0.003  0.000  0.000  0.004
    6  0.003  0.000  0.000  0.004
    7  0.003  0.000  0.000  0.004
    8  0.003  0.000  0.000  0.004
    9  0.003  0.000  0.000  0.004
   10  0.005  0.000  0.001  0.006
   11  0.005  0.000  0.000  0.006
   12  0.005  0.000  0.001  0.006
   13  0.005  0.000  0.000  0.006
   14  0.005  0.000  0.000  0.006
   15  0.006  0.000  0.000  0.006
   16  0.005  0.000  0.001  0.006
   17  0.006  0.000  0.000  0.006
   18  0.006  0.000  0.000  0.006
   19  0.000  0.000  0.000  0.000
   20  0.001  0.001  0.001  0.003
   21  0.001  0.001  0.001  0.003
   22  0.000  0.000  0.000  0.000
   23  0.001  0.001  0.001  0.003
   24  0.000  0.000  0.000  0.000
   25  0.000  0.000  0.000  0.000
   26  0.000  0.000  0.000  0.000
   27  0.000  0.000  0.000  0.000
   28  0.001  0.000  0.000  0.002
   29  0.005  0.000  0.002  0.007
   30  0.005  0.000  0.002  0.007
   31  0.005  0.000  0.002  0.007
   32  0.005  0.000  0.002  0.007
   33  0.005  0.000  0.002  0.007
   34  0.005  0.000  0.002  0.007
   35  0.001  0.000  0.000  0.002
   36  0.091  0.043  0.067  0.201
   37  0.351  0.007  0.000  0.357
tot    0.554  0.059  0.088  0.702
 
band     3 # energy   -7.46961804 # occ.  2.00000000
 
ion      s      p      d    tot
    1  0.016  0.000  0.001  0.017
    2  0.015  0.000  0.001  0.017
    3  0.015  0.000  0.001  0.017
    4  0.015  0.000  0.001  0.017
    5  0.015  0.000  0.001  0.016
    6  0.015  0.000  0.001  0.017
    7  0.015  0.000  0.001  0.017
    8  0.015  0.000  0.001  0.017
    9  0.014  0.000  0.001  0.016
   10  0.007  0.001  0.002  0.011
   11  0.006  0.002  0.002  0.010
   12  0.007  0.001  0.002  0.011
   13  0.006  0.002  0.002  0.010
   14  0.006  0.002  0.002  0.010
   15  0.005  0.002  0.002  0.009
   16  0.007  0.001  0.002  0.011
   17  0.005  0.002  0.002  0.009
   18  0.005  0.002  0.002  0.009
   19  0.017  0.001  0.005  0.023
   20  0.014  0.000  0.007  0.021
   21  0.014  0.000  0.007  0.021
   22  0.020  0.001  0.005  0.025
   23  0.014  0.000  0.007  0.021
   24  0.020  0.001  0.005  0.025
   25  0.017  0.001  0.005  0.023
   26  0.017  0.001  0.005  0.023
   27  0.020  0.001  0.005  0.025
   28  0.011  0.001  0.000  0.012
   29  0.007  0.001  0.001  0.009
   30  0.007  0.001  0.001  0.009
   31  0.007  0.001  0.001  0.009
   32  0.007  0.001  0.001  0.009
   33  0.007  0.001  0.001  0.009
   34  0.007  0.001  0.001  0.009
   35  0.012  0.001  0.000  0.012
   36  0.002  0.015  0.016  0.033
   37  0.069  0.001  0.000  0.070
tot    0.477  0.044  0.103  0.624
 
band     4 # energy   -6.64685665 # occ.  2.00000000
 
ion      s      p      d    tot
    1  0.011  0.000  0.022  0.033
    2  0.018  0.000  0.018  0.036
    3  0.018  0.000  0.018  0.036
    4  0.018  0.000  0.018  0.036
    5  0.014  0.000  0.017  0.031
    6  0.018  0.000  0.018  0.036
    7  0.018  0.000  0.018  0.036
    8  0.018  0.000  0.018  0.036
    9  0.032  0.000  0.014  0.046
   10  0.013  0.001  0.022  0.036
   11  0.014  0.001  0.020  0.036
   12  0.013  0.001  0.022  0.036
   13  0.014  0.001  0.020  0.036
   14  0.014  0.001  0.020  0.036
   15  0.000  0.001  0.025  0.026
   16  0.013  0.001  0.022  0.036
   17  0.000  0.001  0.025  0.026
   18  0.000  0.001  0.025  0.026
   19  0.000  0.001  0.005  0.005
   20  0.003  0.001  0.007  0.010
   21  0.003  0.001  0.007  0.010
   22  0.004  0.001  0.001  0.006
   23  0.003  0.001  0.007  0.010
   24  0.004  0.001  0.001  0.006
   25  0.000  0.001  0.005  0.005
   26  0.000  0.001  0.005  0.005
   27  0.004  0.001  0.001  0.006
   28  0.003  0.000  0.000  0.003
   29  0.002  0.000  0.001  0.003
   30  0.002  0.000  0.001  0.003
   31  0.002  0.000  0.001  0.003
   32  0.002  0.000  0.001  0.003
   33  0.002  0.000  0.001  0.003
   34  0.002  0.000  0.001  0.003
   35  0.005  0.000  0.000  0.006
   36  0.000  0.000  0.001  0.001
   37  0.000  0.000  0.000  0.000
tot    0.289  0.016  0.410  0.715
 
band     5 # energy   -6.62398443 # occ.  2.00000000
 
ion      s      p      d    tot
    1  0.000  0.000  0.008  0.008
    2  0.005  0.001  0.004  0.010
    3  0.006  0.001  0.003  0.010
    4  0.005  0.001  0.004  0.010
    5  0.000  0.001  0.008  0.009
    6  0.000  0.000  0.003  0.003
    7  0.006  0.001  0.003  0.011
    8  0.000  0.000  0.003  0.003
    9  0.000  0.000  0.001  0.001
   10  0.000  0.000  0.036  0.036
   11  0.043  0.001  0.015  0.060
   12  0.022  0.002  0.012  0.036
   13  0.044  0.001  0.015  0.060
   14  0.000  0.003  0.029  0.032
   15  0.003  0.001  0.011  0.016
   16  0.022  0.002  0.012  0.036
   17  0.003  0.001  0.011  0.016
   18  0.000  0.004  0.003  0.007
   19  0.004  0.001  0.010  0.015
   20  0.000  0.003  0.032  0.035
   21  0.043  0.002  0.015  0.060
   22  0.017  0.001  0.011  0.029
   23  0.042  0.002  0.016  0.060
   24  0.000  0.000  0.030  0.030
   25  0.000  0.004  0.003  0.007
   26  0.004  0.001  0.010  0.016
   27  0.017  0.001  0.011  0.029
   28  0.000  0.000  0.001  0.001
   29  0.000  0.000  0.002  0.002
   30  0.005  0.001  0.002  0.008
   31  0.000  0.000  0.002  0.002
   32  0.004  0.001  0.003  0.008
   33  0.005  0.001  0.002  0.008
   34  0.004  0.001  0.003  0.008
   35  0.000  0.000  0.005  0.005
   36  0.000  0.003  0.003  0.005
   37  0.000  0.000  0.000  0.000
tot    0.305  0.044  0.345  0.693
 
band     6 # energy   -6.62395182 # occ.  2.00000000
 
ion      s      p      d    tot
    1  0.000  0.000  0.008  0.008
    2  0.003  0.001  0.003  0.006
    3  0.001  0.000  0.004  0.005
    4  0.003  0.001  0.003  0.006
    5  0.000  0.001  0.008  0.009
    6  0.007  0.001  0.004  0.012
    7  0.001  0.000  0.003  0.005
    8  0.007  0.001  0.004  0.012
    9  0.000  0.000  0.001  0.001
   10  0.030  0.002  0.004  0.036
   11  0.015  0.002  0.025  0.042
   12  0.007  0.001  0.028  0.036
   13  0.014  0.002  0.025  0.041
   14  0.058  0.001  0.011  0.069
   15  0.001  0.003  0.006  0.010
   16  0.008  0.001  0.028  0.036
   17  0.001  0.003  0.006  0.010
   18  0.004  0.000  0.014  0.019
   19  0.001  0.003  0.005  0.010
   20  0.057  0.001  0.010  0.068
   21  0.014  0.002  0.027  0.043
   22  0.006  0.001  0.023  0.030
   23  0.014  0.002  0.027  0.043
   24  0.022  0.002  0.004  0.028
   25  0.006  0.000  0.013  0.019
   26  0.001  0.003  0.005  0.010
   27  0.006  0.001  0.023  0.029
   28  0.000  0.000  0.001  0.001
   29  0.006  0.001  0.003  0.010
   30  0.001  0.000  0.003  0.004
   31  0.006  0.001  0.003  0.010
   32  0.002  0.000  0.002  0.004
   33  0.001  0.000  0.003  0.004
   34  0.002  0.000  0.002  0.004
   35  0.000  0.000  0.005  0.005
   36  0.000  0.003  0.003  0.005
   37  0.000  0.000  0.000  0.000
tot    0.305  0.044  0.345  0.693
 
band     7 # energy   -6.61319132 # occ.  2.00000000
 
ion      s      p      d    tot
    1  0.009  0.000  0.000  0.010
    2  0.002  0.000  0.007  0.010
    3  0.002  0.000  0.007  0.010
    4  0.002  0.000  0.007  0.010
    5  0.011  0.000  0.003  0.014
    6  0.002  0.000  0.007  0.010
    7  0.002  0.000  0.007  0.010
    8  0.002  0.000  0.007  0.010
    9  0.003  0.002  0.008  0.013
   10  0.000  0.000  0.031  0.031
   11  0.003  0.002  0.015  0.020
   12  0.000  0.000  0.031  0.031
   13  0.003  0.002  0.015  0.020
   14  0.003  0.002  0.015  0.020
   15  0.035  0.001  0.009  0.046
   16  0.000  0.000  0.031  0.031
   17  0.035  0.001  0.009  0.046
   18  0.036  0.001  0.009  0.046
   19  0.000  0.000  0.026  0.026
   20  0.030  0.001  0.012  0.043
   21  0.030  0.001  0.012  0.043
   22  0.005  0.002  0.012  0.019
   23  0.030  0.001  0.012  0.043
   24  0.005  0.002  0.012  0.019
   25  0.000  0.000  0.026  0.026
   26  0.000  0.000  0.026  0.026
   27  0.005  0.002  0.012  0.019
   28  0.004  0.000  0.000  0.005
   29  0.001  0.000  0.005  0.006
   30  0.001  0.000  0.005  0.006
   31  0.001  0.000  0.005  0.006
   32  0.001  0.000  0.005  0.006
   33  0.001  0.000  0.005  0.006
   34  0.001  0.000  0.005  0.006
   35  0.008  0.000  0.001  0.009
   36  0.002  0.004  0.001  0.007
   37  0.001  0.000  0.000  0.001
tot    0.282  0.034  0.397  0.714
 
band     8 # energy   -6.60024809 # occ.  2.00000000
 
ion      s      p      d    tot
    1  0.013  0.002  0.000  0.015
    2  0.000  0.001  0.006  0.007
    3  0.000  0.001  0.006  0.007
    4  0.000  0.001  0.006  0.007
    5  0.011  0.002  0.002  0.015
    6  0.000  0.001  0.006  0.007
    7  0.000  0.001  0.006  0.007
    8  0.000  0.001  0.006  0.007
    9  0.000  0.000  0.000  0.000
   10  0.025  0.003  0.004  0.031
   11  0.022  0.000  0.023  0.045
   12  0.024  0.003  0.004  0.031
   13  0.022  0.000  0.023  0.045
   14  0.022  0.000  0.023  0.045
   15  0.001  0.001  0.021  0.023
   16  0.024  0.003  0.004  0.031
   17  0.001  0.001  0.021  0.023
   18  0.001  0.001  0.021  0.023
   19  0.028  0.003  0.003  0.033
   20  0.002  0.002  0.022  0.025
   21  0.002  0.002  0.022  0.026
   22  0.010  0.000  0.025  0.035
   23  0.002  0.002  0.022  0.026
   24  0.010  0.000  0.025  0.035
   25  0.028  0.003  0.003  0.033
   26  0.028  0.003  0.003  0.033
   27  0.010  0.000  0.025  0.035
   28  0.008  0.001  0.001  0.011
   29  0.000  0.000  0.004  0.004
   30  0.000  0.000  0.004  0.004
   31  0.000  0.000  0.004  0.004
   32  0.000  0.000  0.004  0.004
   33  0.000  0.000  0.004  0.004
   34  0.000  0.000  0.004  0.004
   35  0.007  0.001  0.001  0.009
   36  0.000  0.000  0.000  0.001
   37  0.000  0.000  0.000  0.000
tot    0.298  0.040  0.356  0.695
 
band     9 # energy   -6.57208687 # occ.  2.00000000
 
ion      s      p      d    tot
    1  0.000  0.001  0.004  0.006
    2  0.005  0.001  0.004  0.011
    3  0.007  0.001  0.004  0.012
    4  0.006  0.001  0.004  0.011
    5  0.000  0.000  0.004  0.004
    6  0.000  0.000  0.003  0.004
    7  0.008  0.001  0.004  0.013
    8  0.000  0.000  0.003  0.004
    9  0.000  0.001  0.011  0.012
   10  0.034  0.000  0.017  0.051
   11  0.001  0.002  0.018  0.021
   12  0.008  0.004  0.009  0.021
   13  0.001  0.002  0.018  0.021
   14  0.004  0.001  0.010  0.015
   15  0.016  0.001  0.036  0.052
   16  0.009  0.004  0.009  0.022
   17  0.015  0.001  0.036  0.052
   18  0.061  0.002  0.004  0.067
   19  0.011  0.001  0.027  0.040
   20  0.002  0.001  0.011  0.014
   21  0.001  0.001  0.014  0.016
   22  0.007  0.003  0.012  0.022
   23  0.001  0.001  0.014  0.016
   24  0.029  0.000  0.012  0.041
   25  0.044  0.002  0.003  0.049
   26  0.011  0.001  0.028  0.039
   27  0.007  0.003  0.012  0.023
   28  0.000  0.000  0.006  0.007
   29  0.000  0.000  0.002  0.002
   30  0.003  0.001  0.002  0.005
   31  0.000  0.000  0.002  0.002
   32  0.003  0.001  0.002  0.006
   33  0.003  0.001  0.002  0.005
   34  0.003  0.001  0.002  0.006
   35  0.000  0.001  0.003  0.003
   36  0.000  0.000  0.001  0.001
   37  0.000  0.000  0.000  0.000
tot    0.298  0.041  0.354  0.693
 
band    10 # energy   -6.57205484 # occ.  2.00000000
 
ion      s      p      d    tot
    1  0.000  0.001  0.004  0.006
    2  0.003  0.001  0.003  0.007
    3  0.001  0.001  0.004  0.006
    4  0.003  0.001  0.003  0.007
    5  0.000  0.000  0.004  0.004
    6  0.009  0.001  0.004  0.014
    7  0.001  0.001  0.004  0.006
    8  0.009  0.001  0.004  0.014
    9  0.000  0.001  0.011  0.012
   10  0.000  0.005  0.007  0.012
   11  0.003  0.001  0.013  0.017
   12  0.026  0.001  0.014  0.041
   13  0.003  0.001  0.012  0.017
   14  0.000  0.002  0.020  0.023
   15  0.045  0.001  0.015  0.062
   16  0.025  0.001  0.014  0.041
   17  0.046  0.002  0.014  0.062
   18  0.000  0.001  0.047  0.047
   19  0.032  0.002  0.012  0.046
   20  0.000  0.002  0.014  0.016
   21  0.002  0.001  0.012  0.015
   22  0.022  0.001  0.012  0.035
   23  0.002  0.001  0.012  0.015
   24  0.000  0.004  0.012  0.016
   25  0.000  0.001  0.036  0.036
   26  0.033  0.002  0.011  0.046
   27  0.021  0.001  0.012  0.035
   28  0.000  0.000  0.006  0.007
   29  0.004  0.001  0.002  0.007
   30  0.001  0.000  0.002  0.004
   31  0.004  0.001  0.002  0.007
   32  0.001  0.000  0.001  0.002
   33  0.001  0.000  0.002  0.004
   34  0.001  0.000  0.001  0.002
   35  0.000  0.001  0.003  0.003
   36  0.000  0.000  0.001  0.001
   37  0.000  0.000  0.000  0.000
tot    0.298  0.041  0.354  0.693
 
band    11 # energy   -6.44404541 # occ.  2.00000000
 
ion      s      p      d    tot
    1  0.002  0.000  0.000  0.002
    2  0.001  0.000  0.001  0.002
    3  0.001  0.000  0.001  0.002
    4  0.001  0.000  0.001  0.002
    5  0.003  0.000  0.000  0.003
    6  0.001  0.000  0.001  0.002
    7  0.001  0.000  0.001  0.002
    8  0.001  0.000  0.001  0.002
    9  0.001  0.000  0.001  0.003
   10  0.001  0.000  0.007  0.008
   11  0.002  0.001  0.002  0.004
   12  0.001  0.000  0.007  0.008
   13  0.002  0.001  0.002  0.004
   14  0.002  0.001  0.002  0.004
   15  0.006  0.001  0.004  0.010
   16  0.001  0.000  0.007  0.008
   17  0.006  0.001  0.004  0.010
   18  0.006  0.001  0.004  0.010
   19  0.002  0.001  0.014  0.017
   20  0.001  0.000  0.028  0.029
   21  0.001  0.000  0.028  0.029
   22  0.010  0.002  0.019  0.030
   23  0.001  0.000  0.028  0.029
   24  0.010  0.002  0.019  0.030
   25  0.002  0.001  0.014  0.017
   26  0.002  0.001  0.014  0.017
   27  0.010  0.002  0.019  0.030
   28  0.031  0.000  0.020  0.051
   29  0.024  0.000  0.021  0.044
   30  0.024  0.000  0.021  0.044
   31  0.024  0.000  0.021  0.044
   32  0.024  0.000  0.021  0.044
   33  0.024  0.000  0.021  0.044
   34  0.024  0.000  0.021  0.044
   35  0.027  0.000  0.023  0.050
   36  0.002  0.001  0.018  0.021
   37  0.015  0.000  0.000  0.015
tot    0.289  0.017  0.414  0.720
 
band    12 # energy   -6.14590844 # occ.  2.00000000
 
ion      s      p      d    tot
    1  0.012  0.002  0.002  0.016
    2  0.000  0.001  0.008  0.009
    3  0.000  0.001  0.008  0.009
    4  0.000  0.001  0.008  0.009
    5  0.001  0.000  0.002  0.002
    6  0.000  0.001  0.008  0.009
    7  0.000  0.001  0.008  0.009
    8  0.000  0.001  0.008  0.009
    9  0.017  0.001  0.000  0.019
   10  0.010  0.001  0.014  0.025
   11  0.002  0.000  0.045  0.047
   12  0.010  0.001  0.014  0.025
   13  0.002  0.000  0.045  0.047
   14  0.002  0.000  0.045  0.047
   15  0.004  0.001  0.021  0.026
   16  0.010  0.001  0.014  0.025
   17  0.004  0.001  0.021  0.026
   18  0.004  0.001  0.021  0.026
   19  0.004  0.001  0.014  0.018
   20  0.002  0.000  0.054  0.056
   21  0.002  0.000  0.054  0.056
   22  0.012  0.001  0.017  0.030
   23  0.002  0.000  0.054  0.056
   24  0.011  0.001  0.017  0.030
   25  0.004  0.001  0.014  0.019
   26  0.004  0.001  0.014  0.018
   27  0.012  0.001  0.017  0.030
   28  0.011  0.001  0.000  0.012
   29  0.000  0.000  0.005  0.006
   30  0.000  0.000  0.005  0.006
   31  0.000  0.000  0.005  0.006
   32  0.000  0.000  0.005  0.006
   33  0.000  0.000  0.005  0.006
   34  0.000  0.000  0.005  0.006
   35  0.008  0.001  0.002  0.012
   36  0.000  0.000  0.001  0.001
   37  0.000  0.000  0.000  0.000
tot    0.146  0.027  0.583  0.756
 
band    13 # energy   -6.14177496 # occ.  2.00000000
 
ion      s      p      d    tot
    1  0.000  0.001  0.004  0.004
    2  0.009  0.001  0.004  0.014
    3  0.001  0.000  0.004  0.006
    4  0.009  0.001  0.004  0.014
    5  0.000  0.001  0.011  0.012
    6  0.004  0.001  0.005  0.010
    7  0.001  0.000  0.004  0.006
    8  0.004  0.001  0.005  0.010
    9  0.000  0.000  0.008  0.009
   10  0.009  0.002  0.009  0.020
   11  0.005  0.000  0.041  0.046
   12  0.002  0.001  0.040  0.043
   13  0.005  0.000  0.041  0.046
   14  0.020  0.001  0.011  0.032
   15  0.000  0.001  0.014  0.015
   16  0.002  0.001  0.039  0.043
   17  0.000  0.001  0.014  0.015
   18  0.002  0.000  0.022  0.024
   19  0.002  0.001  0.014  0.017
   20  0.024  0.001  0.007  0.032
   21  0.006  0.000  0.059  0.065
   22  0.001  0.001  0.029  0.031
   23  0.006  0.000  0.059  0.065
   24  0.004  0.001  0.014  0.019
   25  0.008  0.000  0.022  0.030
   26  0.002  0.001  0.014  0.017
   27  0.001  0.001  0.029  0.031
   28  0.000  0.000  0.008  0.008
   29  0.007  0.001  0.004  0.012
   30  0.000  0.000  0.004  0.005
   31  0.007  0.001  0.004  0.012
   32  0.007  0.001  0.004  0.011
   33  0.000  0.000  0.004  0.005
   34  0.007  0.001  0.004  0.012
   35  0.000  0.000  0.003  0.004
   36  0.000  0.003  0.003  0.006
   37  0.000  0.000  0.000  0.000
tot    0.155  0.031  0.564  0.751
 
band    14 # energy   -6.14177269 # occ.  2.00000000
 
ion      s      p      d    tot
    1  0.000  0.001  0.004  0.004
    2  0.000  0.000  0.005  0.006
    3  0.009  0.001  0.005  0.014
    4  0.000  0.001  0.005  0.006
    5  0.000  0.001  0.011  0.012
    6  0.005  0.001  0.004  0.010
    7  0.008  0.001  0.005  0.014
    8  0.005  0.001  0.004  0.010
    9  0.000  0.000  0.008  0.009
   10  0.000  0.001  0.050  0.050
   11  0.015  0.001  0.021  0.037
   12  0.007  0.002  0.019  0.027
   13  0.015  0.001  0.021  0.037
   14  0.000  0.000  0.051  0.051
   15  0.001  0.000  0.019  0.021
   16  0.007  0.002  0.019  0.027
   17  0.001  0.000  0.020  0.021
   18  0.000  0.001  0.011  0.012
   19  0.006  0.000  0.019  0.025
   20  0.000  0.000  0.076  0.076
   21  0.018  0.001  0.024  0.043
   22  0.003  0.001  0.019  0.023
   23  0.018  0.001  0.024  0.043
   24  0.000  0.001  0.035  0.036
   25  0.000  0.001  0.012  0.013
   26  0.006  0.000  0.019  0.026
   27  0.003  0.001  0.019  0.023
   28  0.000  0.000  0.008  0.008
   29  0.002  0.001  0.004  0.007
   30  0.009  0.001  0.004  0.014
   31  0.002  0.001  0.004  0.007
   32  0.003  0.001  0.004  0.007
   33  0.009  0.001  0.004  0.014
   34  0.003  0.001  0.004  0.007
   35  0.000  0.000  0.003  0.004
   36  0.000  0.003  0.003  0.006
   37  0.000  0.000  0.000  0.000
tot    0.155  0.031  0.564  0.751
 
band    15 # energy   -6.08106239 # occ.  2.00000000
 
ion      s      p      d    tot
    1  0.000  0.001  0.015  0.016
    2  0.010  0.001  0.005  0.016
    3  0.002  0.000  0.005  0.008
    4  0.010  0.001  0.005  0.016
    5  0.000  0.000  0.005  0.005
    6  0.003  0.001  0.006  0.009
    7  0.002  0.000  0.005  0.008
    8  0.003  0.001  0.006  0.010
    9  0.000  0.001  0.007  0.009
   10  0.000  0.001  0.030  0.030
   11  0.001  0.001  0.020  0.022
   12  0.006  0.000  0.023  0.030
   13  0.001  0.001  0.020  0.022
   14  0.000  0.001  0.019  0.020
   15  0.010  0.002  0.021  0.033
   16  0.006  0.000  0.023  0.030
   17  0.010  0.002  0.021  0.033
   18  0.000  0.000  0.065  0.065
   19  0.013  0.001  0.020  0.034
   20  0.000  0.002  0.019  0.021
   21  0.000  0.001  0.023  0.024
   22  0.018  0.001  0.020  0.039
   23  0.000  0.001  0.023  0.024
   24  0.000  0.000  0.032  0.033
   25  0.000  0.000  0.068  0.069
   26  0.013  0.001  0.020  0.034
   27  0.018  0.001  0.021  0.039
   28  0.000  0.001  0.005  0.005
   29  0.005  0.001  0.003  0.010
   30  0.000  0.000  0.004  0.005
   31  0.005  0.001  0.003  0.010
   32  0.003  0.001  0.002  0.006
   33  0.000  0.000  0.004  0.005
   34  0.003  0.001  0.002  0.006
   35  0.000  0.001  0.007  0.008
   36  0.000  0.000  0.001  0.001
   37  0.000  0.000  0.000  0.000
tot    0.146  0.028  0.579  0.752
 
band    16 # energy   -6.08104453 # occ.  2.00000000
 
ion      s      p      d    tot
    1  0.000  0.001  0.015  0.016
    2  0.000  0.000  0.006  0.006
    3  0.008  0.001  0.005  0.015
    4  0.000  0.000  0.006  0.006
    5  0.000  0.000  0.005  0.005
    6  0.007  0.001  0.005  0.013
    7  0.008  0.001  0.005  0.014
    8  0.007  0.001  0.005  0.013
    9  0.000  0.001  0.007  0.009
   10  0.009  0.000  0.021  0.029
   11  0.000  0.001  0.020  0.021
   12  0.002  0.001  0.027  0.030
   13  0.000  0.001  0.020  0.021
   14  0.001  0.001  0.020  0.023
   15  0.003  0.001  0.050  0.054
   16  0.002  0.001  0.027  0.030
   17  0.003  0.001  0.050  0.054
   18  0.014  0.002  0.007  0.023
   19  0.004  0.001  0.052  0.057
   20  0.000  0.000  0.024  0.024
   21  0.000  0.001  0.021  0.022
   22  0.006  0.001  0.028  0.035
   23  0.000  0.001  0.021  0.022
   24  0.024  0.001  0.017  0.041
   25  0.018  0.001  0.004  0.023
   26  0.004  0.001  0.052  0.057
   27  0.006  0.001  0.028  0.035
   28  0.000  0.001  0.005  0.005
   29  0.001  0.000  0.003  0.004
   30  0.005  0.001  0.002  0.009
   31  0.001  0.000  0.003  0.004
   32  0.002  0.001  0.004  0.008
   33  0.005  0.001  0.002  0.009
   34  0.002  0.001  0.004  0.008
   35  0.000  0.001  0.007  0.008
   36  0.000  0.000  0.001  0.001
   37  0.000  0.000  0.000  0.000
tot    0.146  0.028  0.579  0.752
 
band    17 # energy   -6.07194572 # occ.  2.00000000
 
ion      s      p      d    tot
    1  0.013  0.001  0.001  0.014
    2  0.000  0.001  0.010  0.010
    3  0.000  0.001  0.010  0.010
    4  0.000  0.001  0.010  0.010
    5  0.018  0.002  0.001  0.021
    6  0.000  0.001  0.010  0.010
    7  0.000  0.001  0.010  0.010
    8  0.000  0.001  0.010  0.010
    9  0.001  0.000  0.002  0.003
   10  0.000  0.001  0.041  0.042
   11  0.006  0.002  0.012  0.019
   12  0.000  0.001  0.041  0.042
   13  0.006  0.002  0.012  0.019
   14  0.006  0.002  0.012  0.019
   15  0.004  0.001  0.029  0.034
   16  0.000  0.001  0.041  0.042
   17  0.004  0.001  0.029  0.034
   18  0.004  0.001  0.029  0.034
   19  0.011  0.000  0.045  0.056
   20  0.010  0.001  0.004  0.015
   21  0.010  0.001  0.004  0.015
   22  0.000  0.000  0.036  0.037
   23  0.010  0.001  0.004  0.015
   24  0.000  0.000  0.037  0.037
   25  0.010  0.000  0.045  0.056
   26  0.011  0.000  0.045  0.056
   27  0.000  0.000  0.036  0.037
   28  0.000  0.001  0.009  0.009
   29  0.001  0.000  0.005  0.006
   30  0.001  0.000  0.005  0.006
   31  0.001  0.000  0.005  0.006
   32  0.001  0.000  0.005  0.006
   33  0.001  0.000  0.005  0.006
   34  0.001  0.000  0.005  0.006
   35  0.000  0.000  0.000  0.001
   36  0.006  0.005  0.000  0.012
   37  0.003  0.000  0.000  0.003
tot    0.139  0.028  0.602  0.770
 
band    18 # energy   -5.75759816 # occ.  2.00000000
 
ion      s      p      d    tot
    1  0.000  0.000  0.018  0.018
    2  0.008  0.000  0.013  0.021
    3  0.005  0.001  0.008  0.013
    4  0.008  0.000  0.013  0.021
    5  0.000  0.001  0.026  0.027
    6  0.001  0.000  0.013  0.014
    7  0.004  0.001  0.008  0.013
    8  0.000  0.000  0.013  0.014
    9  0.000  0.001  0.005  0.006
   10  0.000  0.000  0.010  0.010
   11  0.000  0.000  0.052  0.052
   12  0.000  0.000  0.016  0.016
   13  0.000  0.000  0.052  0.052
   14  0.000  0.000  0.056  0.056
   15  0.000  0.000  0.033  0.033
   16  0.000  0.000  0.016  0.017
   17  0.000  0.000  0.033  0.033
   18  0.000  0.000  0.017  0.017
   19  0.001  0.000  0.011  0.012
   20  0.000  0.000  0.037  0.038
   21  0.001  0.000  0.055  0.056
   22  0.000  0.000  0.029  0.029
   23  0.001  0.000  0.055  0.056
   24  0.000  0.000  0.029  0.030
   25  0.000  0.000  0.009  0.009
   26  0.001  0.000  0.011  0.012
   27  0.000  0.000  0.029  0.029
   28  0.000  0.001  0.011  0.011
   29  0.002  0.001  0.006  0.009
   30  0.010  0.001  0.009  0.020
   31  0.002  0.001  0.006  0.009
   32  0.003  0.001  0.012  0.015
   33  0.010  0.001  0.009  0.020
   34  0.003  0.001  0.012  0.015
   35  0.000  0.000  0.019  0.019
   36  0.000  0.003  0.002  0.005
   37  0.000  0.000  0.000  0.000
tot    0.062  0.017  0.751  0.829
 
band    19 # energy   -5.75759567 # occ.  2.00000000
 
ion      s      p      d    tot
    1  0.000  0.000  0.018  0.018
    2  0.001  0.001  0.010  0.011
    3  0.004  0.000  0.015  0.019
    4  0.001  0.001  0.010  0.011
    5  0.000  0.001  0.026  0.027
    6  0.008  0.001  0.010  0.018
    7  0.004  0.000  0.015  0.019
    8  0.008  0.001  0.010  0.019
    9  0.000  0.001  0.005  0.006
   10  0.000  0.000  0.018  0.019
   11  0.000  0.000  0.054  0.055
   12  0.000  0.000  0.012  0.012
   13  0.000  0.000  0.054  0.055
   14  0.000  0.000  0.050  0.051
   15  0.000  0.000  0.022  0.022
   16  0.000  0.000  0.012  0.012
   17  0.000  0.000  0.023  0.023
   18  0.000  0.000  0.038  0.039
   19  0.000  0.000  0.010  0.010
   20  0.001  0.000  0.061  0.062
   21  0.000  0.000  0.044  0.044
   22  0.000  0.000  0.029  0.030
   23  0.000  0.000  0.043  0.044
   24  0.000  0.000  0.028  0.029
   25  0.001  0.000  0.012  0.013
   26  0.000  0.000  0.010  0.010
   27  0.000  0.000  0.029  0.030
   28  0.000  0.001  0.011  0.011
   29  0.008  0.001  0.012  0.021
   30  0.000  0.000  0.009  0.009
   31  0.008  0.001  0.012  0.021
   32  0.007  0.001  0.006  0.014
   33  0.000  0.000  0.008  0.009
   34  0.007  0.001  0.006  0.014
   35  0.000  0.000  0.019  0.019
   36  0.000  0.003  0.002  0.005
   37  0.000  0.000  0.000  0.000
tot    0.062  0.017  0.751  0.829
 
band    20 # energy   -5.74274525 # occ.  2.00000000
 
ion      s      p      d    tot
    1  0.014  0.000  0.005  0.020
    2  0.000  0.001  0.012  0.013
    3  0.000  0.001  0.012  0.013
    4  0.000  0.001  0.012  0.013
    5  0.000  0.000  0.014  0.014
    6  0.000  0.001  0.012  0.013
    7  0.000  0.001  0.012  0.013
    8  0.000  0.001  0.012  0.013
    9  0.009  0.001  0.001  0.011
   10  0.000  0.000  0.027  0.027
   11  0.000  0.000  0.048  0.049
   12  0.000  0.000  0.027  0.027
   13  0.000  0.000  0.048  0.049
   14  0.000  0.000  0.048  0.049
   15  0.000  0.000  0.032  0.033
   16  0.000  0.000  0.027  0.027
   17  0.000  0.000  0.032  0.033
   18  0.000  0.000  0.032  0.033
   19  0.000  0.000  0.022  0.022
   20  0.001  0.000  0.039  0.041
   21  0.001  0.000  0.039  0.040
   22  0.001  0.000  0.028  0.029
   23  0.001  0.000  0.039  0.040
   24  0.001  0.000  0.028  0.029
   25  0.000  0.000  0.022  0.022
   26  0.000  0.000  0.022  0.022
   27  0.001  0.000  0.028  0.029
   28  0.008  0.001  0.000  0.009
   29  0.000  0.001  0.012  0.013
   30  0.000  0.001  0.012  0.013
   31  0.000  0.001  0.012  0.013
   32  0.000  0.001  0.012  0.013
   33  0.000  0.001  0.012  0.013
   34  0.000  0.001  0.012  0.013
   35  0.014  0.001  0.002  0.017
   36  0.001  0.000  0.003  0.004
   37  0.000  0.000  0.000  0.000
tot    0.053  0.014  0.763  0.830
 
band    21 # energy   -5.72888295 # occ.  2.00000000
 
ion      s      p      d    tot
    1  0.004  0.001  0.005  0.010
    2  0.000  0.001  0.021  0.022
    3  0.000  0.001  0.021  0.022
    4  0.000  0.001  0.021  0.022
    5  0.031  0.001  0.001  0.034
    6  0.000  0.001  0.021  0.022
    7  0.000  0.001  0.021  0.022
    8  0.000  0.001  0.021  0.022
    9  0.014  0.000  0.012  0.026
   10  0.000  0.000  0.043  0.043
   11  0.000  0.001  0.033  0.034
   12  0.000  0.000  0.043  0.043
   13  0.000  0.001  0.033  0.034
   14  0.000  0.001  0.033  0.034
   15  0.000  0.000  0.032  0.032
   16  0.000  0.000  0.043  0.043
   17  0.000  0.000  0.032  0.032
   18  0.000  0.000  0.032  0.032
   19  0.001  0.000  0.023  0.025
   20  0.000  0.000  0.025  0.025
   21  0.000  0.000  0.025  0.025
   22  0.001  0.000  0.014  0.015
   23  0.000  0.000  0.025  0.025
   24  0.001  0.000  0.013  0.014
   25  0.001  0.000  0.023  0.025
   26  0.001  0.000  0.023  0.025
   27  0.001  0.000  0.014  0.015
   28  0.008  0.000  0.006  0.014
   29  0.000  0.000  0.013  0.013
   30  0.000  0.000  0.013  0.013
   31  0.000  0.000  0.013  0.013
   32  0.000  0.000  0.013  0.013
   33  0.000  0.000  0.013  0.013
   34  0.000  0.000  0.013  0.013
   35  0.001  0.000  0.004  0.005
   36  0.003  0.001  0.001  0.004