 vasp.6.2.0 18Jan21 (build Jun 12 2021 23:27:24) complex                        
  
 executed on             LinuxIFC date 2022.05.30  15:53:37
 running on   28 total cores
 distrk:  each k-point on   28 cores,    1 groups
 distr:  one band on NCORE=   1 cores,   28 groups


--------------------------------------------------------------------------------------------------------


 INCAR:
   ISMEAR = -5
   SIGMA = 0.1
   ISPIN = 1
   EDIFF = 1.d-5
   EDIFFG = -0.01
   NSW = 0
   NELM = 150
   ENCUT = 500
   ISIF = 2
   IBRION = 2
   LREAL = Auto
   ALGO = Fast
   ICHARG = 11
   LORBIT = 10
   LCHARG = .F.
   LWAVE = .F.

 POTCAR:    PAW_PBE Au 04Oct2007                  
 POTCAR:    PAW_PBE Mn 06Sep2000                  
 POTCAR:    PAW_PBE O 08Apr2002                   
 -----------------------------------------------------------------------------
|                                                                             |
|           W    W    AA    RRRRR   N    N  II  N    N   GGGG   !!!           |
|           W    W   A  A   R    R  NN   N  II  NN   N  G    G  !!!           |
|           W    W  A    A  R    R  N N  N  II  N N  N  G       !!!           |
|           W WW W  AAAAAA  RRRRR   N  N N  II  N  N N  G  GGG   !            |
|           WW  WW  A    A  R   R   N   NN  II  N   NN  G    G                |
|           W    W  A    A  R    R  N    N  II  N    N   GGGG   !!!           |
|                                                                             |
|     For optimal performance we recommend to set                             |
|       NCORE = 2 up to number-of-cores-per-socket                            |
|     NCORE specifies how many cores store one orbital (NPAR=cpu/NCORE).      |
|     This setting can greatly improve the performance of VASP for DFT.       |
|     The default, NCORE=1 might be grossly inefficient on modern             |
|     multi-core architectures or massively parallel machines. Do your        |
|     own testing! More info at https://www.vasp.at/wiki/index.php/NCORE      |
|     Unfortunately you need to use the default for GW and RPA                |
|     calculations (for HF NCORE is supported but not extensively tested      |
|     yet).                                                                   |
|                                                                             |
 -----------------------------------------------------------------------------

 POTCAR:    PAW_PBE Au 04Oct2007                  
   VRHFIN =Au: s1d10                                                                                
   LEXCH  = PE                                                                                      
   EATOM  =   926.0867 eV,   68.0654 Ry                                                             
                                                                                                    
   TITEL  = PAW_PBE Au 04Oct2007                                                                    
   LULTRA =        F    use ultrasoft PP ?                                                          
   IUNSCR =        1    unscreen: 0-lin 1-nonlin 2-no                                               
   RPACOR =    2.330    partial core radius                                                         
   POMASS =  196.966; ZVAL   =   11.000    mass and valenz                                          
   RCORE  =    2.500    outmost cutoff radius                                                       
   RWIGS  =    2.840; RWIGS  =    1.503    wigner-seitz radius (au A)                               
   ENMAX  =  229.943; ENMIN  =  172.457 eV                                                          
   ICORE  =        3    local potential                                                             
   LCOR   =        T    correct aug charges                                                         
   LPAW   =        T    paw PP                                                                      
   EAUG   =  356.670                                                                                
   DEXC   =    0.000                                                                                
   RMAX   =    2.562    core radius for proj-oper                                                   
   RAUG   =    1.300    factor for augmentation sphere                                              
   RDEP   =    2.598    radius for radial grids                                                     
   RDEPT  =    2.193    core radius for aug-charge                                                  
                                                                                                    
   Atomic configuration                                                                             
   16 entries                                                                                       
     n  l   j            E        occ.                                                              
     1  0  0.50    -80748.5001   2.0000                                                             
     2  0  0.50    -14244.7466   2.0000                                                             
     2  1  1.50    -12310.9591   6.0000                                                             
     3  0  0.50     -3362.1768   2.0000                                                             
     3  1  1.50     -2801.5463   6.0000                                                             
     3  2  2.50     -2203.8206  10.0000                                                             
     4  0  0.50      -729.8168   2.0000                                                             
     4  1  1.50      -546.0527   6.0000                                                             
     4  2  2.50      -325.7302  10.0000                                                             
     4  3  3.50       -81.1472  14.0000                                                             
     5  0  0.50      -108.3201   2.0000                                                             
     5  1  1.50       -59.7479   6.0000                                                             
     5  2  2.50        -6.8783  10.0000                                                             
     6  0  0.50        -5.7602   1.0000                                                             
     6  1  1.50        -6.8029   0.0000                                                             
     5  3  2.50        -1.3606   0.0000                                                             
   Description                                                                                      
     l       E           TYP  RCUT    TYP  RCUT                                                     
     2     -6.8782861     23  2.500                                                                 
     2     -8.2388687     23  2.500                                                                 
     0     -5.7601759     23  2.500                                                                 
     0     -0.8493231     23  2.500                                                                 
     1     -2.7211652     23  2.500                                                                 
     1     27.2116520     23  2.500                                                                 
     3     -1.3605826     23  2.500                                                                 
  local pseudopotential read in
  partial core-charges read in
  partial kinetic energy density read in
  atomic valenz-charges read in
  non local Contribution for L=           2  read in
    real space projection operators read in
  non local Contribution for L=           2  read in
    real space projection operators read in
  non local Contribution for L=           0  read in
    real space projection operators read in
  non local Contribution for L=           0  read in
    real space projection operators read in
  non local Contribution for L=           1  read in
    real space projection operators read in
  non local Contribution for L=           1  read in
    real space projection operators read in
    PAW grid and wavefunctions read in
 
   number of l-projection  operators is LMAX  =           6
   number of lm-projection operators is LMMAX =          18
 
 POTCAR:    PAW_PBE Mn 06Sep2000                  
   VRHFIN =Mn: d6 s1                                                                                
   LEXCH  = PE                                                                                      
   EATOM  =   416.7541 eV,   30.6306 Ry                                                             
                                                                                                    
   TITEL  = PAW_PBE Mn 06Sep2000                                                                    
   LULTRA =        F    use ultrasoft PP ?                                                          
   IUNSCR =        1    unscreen: 0-lin 1-nonlin 2-no                                               
   RPACOR =    2.000    partial core radius                                                         
   POMASS =   54.938; ZVAL   =    7.000    mass and valenz                                          
   RCORE  =    2.300    outmost cutoff radius                                                       
   RWIGS  =    2.500; RWIGS  =    1.323    wigner-seitz radius (au A)                               
   ENMAX  =  269.864; ENMIN  =  202.398 eV                                                          
   RCLOC  =    1.725    cutoff for local pot                                                        
   LCOR   =        T    correct aug charges                                                         
   LPAW   =        T    paw PP                                                                      
   EAUG   =  500.711                                                                                
   DEXC   =    0.000                                                                                
   RMAX   =    2.343    core radius for proj-oper                                                   
   RAUG   =    1.300    factor for augmentation sphere                                              
   RDEP   =    2.338    radius for radial grids                                                     
   RDEPT  =    1.911    core radius for aug-charge                                                  
                                                                                                    
   Atomic configuration                                                                             
    9 entries                                                                                       
     n  l   j            E        occ.                                                              
     1  0  0.50     -6424.8288   2.0000                                                             
     2  0  0.50      -739.1154   2.0000                                                             
     2  1  1.50      -625.3949   6.0000                                                             
     3  0  0.50       -81.6100   2.0000                                                             
     3  1  1.50       -50.4667   6.0000                                                             
     3  2  2.50        -3.3745   6.0000                                                             
     4  0  0.50        -4.1331   1.0000                                                             
     4  1  0.50        -4.0817   0.0000                                                             
     4  3  2.50        -1.3606   0.0000                                                             
   Description                                                                                      
     l       E           TYP  RCUT    TYP  RCUT                                                     
     2     -3.3744664     23  2.300                                                                 
     2     -4.7350490     23  2.300                                                                 
     0     -4.1331408     23  2.300                                                                 
     0      7.6656614     23  2.300                                                                 
     1     -2.7211652     23  2.300                                                                 
     1     20.4087390     23  2.300                                                                 
  local pseudopotential read in
  partial core-charges read in
  partial kinetic energy density read in
  atomic valenz-charges read in
  non local Contribution for L=           2  read in
    real space projection operators read in
  non local Contribution for L=           2  read in
    real space projection operators read in
  non local Contribution for L=           0  read in
    real space projection operators read in
  non local Contribution for L=           0  read in
    real space projection operators read in
  non local Contribution for L=           1  read in
    real space projection operators read in
  non local Contribution for L=           1  read in
    real space projection operators read in
    PAW grid and wavefunctions read in
 
   number of l-projection  operators is LMAX  =           6
   number of lm-projection operators is LMMAX =          18
 
 POTCAR:    PAW_PBE O 08Apr2002                   
   VRHFIN =O: s2p4                                                                                  
   LEXCH  = PE                                                                                      
   EATOM  =   432.3788 eV,   31.7789 Ry                                                             
                                                                                                    
   TITEL  = PAW_PBE O 08Apr2002                                                                     
   LULTRA =        F    use ultrasoft PP ?                                                          
   IUNSCR =        1    unscreen: 0-lin 1-nonlin 2-no                                               
   RPACOR =    1.200    partial core radius                                                         
   POMASS =   16.000; ZVAL   =    6.000    mass and valenz                                          
   RCORE  =    1.520    outmost cutoff radius                                                       
   RWIGS  =    1.550; RWIGS  =    0.820    wigner-seitz radius (au A)                               
   ENMAX  =  400.000; ENMIN  =  300.000 eV                                                          
   ICORE  =        2    local potential                                                             
   LCOR   =        T    correct aug charges                                                         
   LPAW   =        T    paw PP                                                                      
   EAUG   =  605.392                                                                                
   DEXC   =    0.000                                                                                
   RMAX   =    1.553    core radius for proj-oper                                                   
   RAUG   =    1.300    factor for augmentation sphere                                              
   RDEP   =    1.550    radius for radial grids                                                     
   RDEPT  =    1.329    core radius for aug-charge                                                  
                                                                                                    
   Atomic configuration                                                                             
    4 entries                                                                                       
     n  l   j            E        occ.                                                              
     1  0  0.50      -514.6923   2.0000                                                             
     2  0  0.50       -23.9615   2.0000                                                             
     2  1  0.50        -9.0305   4.0000                                                             
     3  2  1.50        -9.5241   0.0000                                                             
   Description                                                                                      
     l       E           TYP  RCUT    TYP  RCUT                                                     
     0    -23.9615318     23  1.200                                                                 
     0     -9.5240782     23  1.200                                                                 
     1     -9.0304911     23  1.520                                                                 
     1      8.1634956     23  1.520                                                                 
     2     -9.5240782      7  1.500                                                                 
  local pseudopotential read in
  partial core-charges read in
  partial kinetic energy density read in
  kinetic energy density of atom read in
  atomic valenz-charges read in
  non local Contribution for L=           0  read in
    real space projection operators read in
  non local Contribution for L=           0  read in
    real space projection operators read in
  non local Contribution for L=           1  read in
    real space projection operators read in
  non local Contribution for L=           1  read in
    real space projection operators read in
    PAW grid and wavefunctions read in
 
   number of l-projection  operators is LMAX  =           4
   number of lm-projection operators is LMMAX =           8
 
 Optimization of the real space projectors (new method)

 maximal supplied QI-value         = 15.12
 optimisation between [QCUT,QGAM] = [ 11.34, 22.83] = [ 36.00,145.93] Ry 
 Optimized for a Real-space Cutoff    1.39 Angstroem

   l    n(q)    QCUT    max X(q) W(low)/X(q) W(high)/X(q)  e(spline) 
   2      9    11.338    60.898    0.39E-03    0.42E-03    0.21E-06
   2      9    11.338    58.894    0.40E-03    0.42E-03    0.22E-06
   0      9    11.338   109.617    0.13E-03    0.20E-04    0.13E-06
   0      9    11.338    75.026    0.13E-03    0.20E-04    0.13E-06
   1      9    11.338    16.344    0.33E-04    0.24E-03    0.18E-06
   1      9    11.338    10.160    0.26E-04    0.19E-03    0.15E-06
 Optimization of the real space projectors (new method)

 maximal supplied QI-value         = 16.25
 optimisation between [QCUT,QGAM] = [ 11.38, 22.75] = [ 36.24,144.96] Ry 
 Optimized for a Real-space Cutoff    1.39 Angstroem

   l    n(q)    QCUT    max X(q) W(low)/X(q) W(high)/X(q)  e(spline) 
   2      8    11.376   110.144    0.49E-03    0.27E-04    0.26E-06
   2      8    11.376   103.200    0.49E-03    0.28E-04    0.27E-06
   0      9    11.376    68.437    0.57E-04    0.92E-04    0.15E-06
   0      9    11.376    33.971    0.51E-04    0.83E-04    0.14E-06
   1      9    11.376    17.065    0.34E-03    0.68E-04    0.14E-06
   1      9    11.376    12.540    0.27E-03    0.59E-04    0.11E-06
 Optimization of the real space projectors (new method)

 maximal supplied QI-value         = 24.76
 optimisation between [QCUT,QGAM] = [ 11.39, 22.77] = [ 36.31,145.25] Ry 
 Optimized for a Real-space Cutoff    1.00 Angstroem

   l    n(q)    QCUT    max X(q) W(low)/X(q) W(high)/X(q)  e(spline) 
   0      7    11.387    20.381    0.39E-03    0.13E-02    0.15E-06
   0      7    11.387    15.268    0.42E-03    0.14E-02    0.17E-06
   1      6    11.387     5.964    0.41E-03    0.11E-02    0.17E-06
   1      6    11.387     5.382    0.39E-03    0.87E-03    0.15E-06
  PAW_PBE Au 04Oct2007                  :
 energy of atom  1       EATOM= -926.0867
 kinetic energy error for atom=    0.0042 (will be added to EATOM!!)
  PAW_PBE Mn 06Sep2000                  :
 energy of atom  2       EATOM= -416.7541
 kinetic energy error for atom=    0.0024 (will be added to EATOM!!)
  PAW_PBE O 08Apr2002                   :
 energy of atom  3       EATOM= -432.3788
 kinetic energy error for atom=    0.0224 (will be added to EATOM!!)
 
 
 POSCAR: Au-Mn-O2
  positions in direct lattice
  velocities in cartesian coordinates
 exchange correlation table for  LEXCH =        8
   RHO(1)=    0.500       N(1)  =     2000
   RHO(2)=  100.500       N(2)  =     4000

 VTST: version 3.2, (02/03/18)

 CHAIN: initializing optimizer
 
 OPT: Using VASP Conjugate-Gradient optimizer
 CHAIN: Read ICHAIN            0
 
 POSCAR: Au-Mn-O2
  positions in direct lattice
  velocities in cartesian coordinates
 


--------------------------------------------------------------------------------------------------------


 ion  position               nearest neighbor table
   1  0.000  0.000  0.217-  16 2.94  12 2.94   6 2.94   8 2.94   7 2.94   3 2.94  10 2.94   4 2.94
                             2 2.94
   2  0.333  0.000  0.217-   9 2.94  11 2.94  17 2.94  10 2.94   8 2.94   4 2.94   5 2.94   1 2.94
                             3 2.94
   3  0.667  0.000  0.217-   7 2.94  18 2.94  12 2.94   1 2.94  11 2.94   5 2.94   6 2.94   9 2.94
                             2 2.94
   4  0.000  0.333  0.217-  10 2.94   6 2.94   5 2.94  13 2.94   2 2.94  15 2.94   9 2.94   1 2.94
                             7 2.94
   5  0.333  0.333  0.217-  13 2.94   7 2.94  11 2.94   4 2.94   2 2.94  14 2.94   3 2.94   8 2.94
                             6 2.94
   6  0.667  0.333  0.217-  15 2.94  14 2.94   1 2.94  12 2.94   4 2.94   9 2.94   8 2.94   3 2.94
                             5 2.94
   7  0.000  0.667  0.217-  18 2.94   3 2.94  16 2.94   5 2.94   1 2.94  13 2.94   8 2.94   4 2.94
                             9 2.94
   8  0.333  0.667  0.217-   9 2.94  17 2.94   1 2.94   2 2.94  14 2.94  16 2.94   6 2.94   7 2.94
                             5 2.94
   9  0.667  0.667  0.217-   2 2.94   8 2.94  17 2.94   6 2.94  15 2.94   4 2.94   3 2.94  18 2.94
                             7 2.94
  10  0.111  0.111  0.316-  20 2.93  26 2.94  19 2.94  11 2.94  17 2.94   2 2.94   4 2.94   1 2.94
                            12 2.94  16 2.94  13 2.94  15 2.94
  11  0.444  0.111  0.316-  20 2.91  21 2.91  27 2.93  13 2.94   2 2.94  10 2.94  17 2.94   5 2.94
                             3 2.94  18 2.94  14 2.94  12 2.94
  12  0.778  0.111  0.316-  21 2.93  25 2.94  19 2.94  16 2.94  18 2.94   1 2.94  14 2.94  15 2.94
                             3 2.94   6 2.94  10 2.94  11 2.94
  13  0.111  0.444  0.316-  23 2.91  20 2.91  22 2.93   5 2.94  18 2.94  11 2.94   7 2.94   4 2.94
                            16 2.94  10 2.94  14 2.94  15 2.94
  14  0.444  0.444  0.316-  21 2.91  23 2.91  24 2.93  15 2.94   6 2.94  12 2.94   8 2.94  17 2.94
                             5 2.94  16 2.94  13 2.94  11 2.94
  15  0.778  0.444  0.316-  24 2.92  22 2.92  19 2.94  14 2.94   6 2.94  17 2.94  12 2.94   9 2.94
                             4 2.94  10 2.94  13 2.94  18 2.94
  16  0.111  0.778  0.316-  23 2.93  25 2.94  26 2.94  18 2.94  12 2.94   7 2.94   1 2.94   8 2.94
                            13 2.94  10 2.94  14 2.94  17 2.94
  17  0.444  0.778  0.316-  27 2.92  24 2.92  26 2.94   9 2.94  15 2.94   2 2.94  10 2.94  11 2.94
                             8 2.94  14 2.94  16 2.94  18 2.94
  18  0.778  0.778  0.316-  22 2.92  27 2.92  25 2.94  16 2.94   7 2.94  13 2.94  12 2.94   3 2.94
                            11 2.94   9 2.94  15 2.94  17 2.94
  19  0.889  0.222  0.414-  10 2.94  12 2.94  15 2.94  26 2.94  25 2.94  24 2.94  22 2.94  28 2.95
                            21 2.95  20 2.95  32 2.99  31 2.99
  20  0.223  0.223  0.413-  36 2.70  23 2.91  21 2.91  11 2.91  13 2.91  29 2.92  31 2.92  10 2.93
                            26 2.95  19 2.95  27 2.95  22 2.95
  21  0.553  0.223  0.413-  36 2.70  20 2.91  23 2.91  14 2.91  11 2.91  30 2.92  32 2.92  12 2.93
                            25 2.95  19 2.95  27 2.95  24 2.95
  22  0.886  0.557  0.414-  24 2.91  27 2.91  18 2.92  15 2.92  13 2.93  25 2.94  19 2.94  23 2.95
                            20 2.95  33 2.96  31 2.96  35 2.96
  23  0.223  0.553  0.413-  36 2.70  20 2.91  21 2.91  13 2.91  14 2.91  33 2.92  34 2.92  16 2.93
                            25 2.95  26 2.95  22 2.95  24 2.95
  24  0.557  0.557  0.414-  27 2.91  22 2.91  15 2.92  17 2.92  14 2.93  26 2.94  19 2.94  21 2.95
                            23 2.95  32 2.96  34 2.96  35 2.96
  25  0.889  0.889  0.414-  16 2.94  12 2.94  18 2.94  19 2.94  26 2.94  22 2.94  27 2.94  28 2.95
                            23 2.95  21 2.95  33 2.99  30 2.99
  26  0.222  0.889  0.414-  10 2.94  16 2.94  17 2.94  19 2.94  25 2.94  27 2.94  24 2.94  28 2.95
                            20 2.95  23 2.95  29 2.99  34 2.99
  27  0.557  0.886  0.414-  24 2.91  22 2.91  17 2.92  18 2.92  11 2.93  26 2.94  25 2.94  20 2.95
                            21 2.95  29 2.96  30 2.96  35 2.96
  28  0.000  0.000  0.514-  25 2.95  19 2.95  26 2.95  34 2.99  32 2.99  33 2.99  30 2.99  31 2.99
                            29 2.99
  29  0.334  0.010  0.513-  30 2.84  31 2.85  36 2.86  20 2.92  27 2.96  35 2.98  26 2.99  28 2.99
                            34 3.12
  30  0.656  0.010  0.513-  29 2.84  32 2.85  36 2.86  21 2.92  27 2.96  35 2.98  25 2.99  28 2.99
                            33 3.12
  31  0.010  0.334  0.513-  37 2.60  33 2.84  29 2.85  36 2.86  20 2.92  22 2.96  35 2.98  19 2.99
                            28 2.99  32 3.12
  32  0.656  0.334  0.513-  38 2.60  34 2.84  30 2.85  36 2.86  21 2.92  24 2.96  35 2.98  19 2.99
                            28 2.99  31 3.12
  33  0.010  0.656  0.513-  31 2.84  34 2.85  36 2.86  23 2.92  22 2.96  35 2.98  25 2.99  28 2.99
                            30 3.12
  34  0.334  0.656  0.513-  32 2.84  33 2.85  36 2.86  23 2.92  24 2.96  35 2.98  26 2.99  28 2.99
                            29 3.12
  35  0.667  0.667  0.514-  24 2.96  27 2.96  22 2.96  29 2.98  34 2.98  32 2.98  31 2.98  30 2.98
                            33 2.98
  36  0.333  0.333  0.500-  38 1.89  37 1.89  20 2.70  23 2.70  21 2.70  33 2.86  31 2.86  29 2.86
                            30 2.86  34 2.86  32 2.86
  37  0.255  0.333  0.573-  38 1.39  36 1.89  31 2.60
  38  0.412  0.333  0.573-  37 1.39  36 1.89  32 2.60
 
  LATTYP: Found a hexagonal cell.
 ALAT       =     8.8135128021
 C/A-ratio  =     2.7586513333
  
  Lattice vectors:
  
 A1 = (  -4.4067569092,  -7.6327256898,   0.0000000000)
 A2 = (   8.8135128021,   0.0000000000,   0.0000000000)
 A3 = (   0.0000000000,   0.0000000000,  24.3134088421)


Analysis of symmetry for initial positions (statically):
=====================================================================
 Subroutine PRICEL returns:
 Original cell was already a primitive cell.
 

 Routine SETGRP: Setting up the symmetry group for a 
 hexagonal supercell.


 Subroutine GETGRP returns: Found  2 space group operations
 (whereof  2 operations were pure point group operations)
 out of a pool of 24 trial point group operations.


The static configuration has the point symmetry C_1h.


Analysis of symmetry for dynamics (positions and initial velocities):
=====================================================================
 Subroutine PRICEL returns:
 Original cell was already a primitive cell.
 

 Routine SETGRP: Setting up the symmetry group for a 
 hexagonal supercell.


 Subroutine GETGRP returns: Found  2 space group operations
 (whereof  2 operations were pure point group operations)
 out of a pool of 24 trial point group operations.


The dynamic configuration has the point symmetry C_1h.


Analysis of constrained symmetry for selective dynamics:
=====================================================================
 Subroutine PRICEL returns:
 Original cell was already a primitive cell.
 

 Routine SETGRP: Setting up the symmetry group for a 
 hexagonal supercell.


 Subroutine GETGRP returns: Found  2 space group operations
 (whereof  2 operations were pure point group operations)
 out of a pool of 24 trial point group operations.


The constrained configuration has the point symmetry C_1h.


 Subroutine INISYM returns: Found  2 space group operations
 (whereof  2 operations are pure point group operations),
 and found     1 'primitive' translations


----------------------------------------------------------------------------------------

                                     Primitive cell                                     

  volume of cell :    1635.5904

  direct lattice vectors                    reciprocal lattice vectors
     8.813512802  0.000000000  0.000000000     0.113462137 -0.065507406  0.000000000
     4.406756909  7.632725690  0.000000000     0.000000000  0.131014796  0.000000000
     0.000000000  0.000000000 24.313408842     0.000000000  0.000000000  0.041129568

  length of vectors
     8.813512802  8.813512802 24.313408842     0.131014796  0.131014796  0.041129568

  position of ions in fractional coordinates (direct lattice)
     0.000000000  0.000000000  0.217179745
     0.333333343  0.000000000  0.217179745
     0.666666687  0.000000000  0.217179745
     0.000000000  0.333333343  0.217179745
     0.333333313  0.333333343  0.217179745
     0.666666687  0.333333343  0.217179745
     0.000000000  0.666666687  0.217179745
     0.333333343  0.666666687  0.217179745
     0.666666627  0.666666687  0.217179745
     0.111111119  0.111111112  0.315838643
     0.444444418  0.111111112  0.315838643
     0.777777791  0.111111112  0.315838643
     0.111111127  0.444444448  0.315838643
     0.444444478  0.444444448  0.315838643
     0.777777731  0.444444448  0.315838643
     0.111111090  0.777777791  0.315838643
     0.444444448  0.777777791  0.315838643
     0.777777851  0.777777791  0.315838643
     0.888897538  0.222204939  0.414371692
     0.223374012  0.223373997  0.413348036
     0.553252035  0.223373997  0.413348036
     0.886463792  0.556768134  0.413686049
     0.223373967  0.553252035  0.413348036
     0.556768134  0.556768134  0.413686049
     0.888897538  0.888897538  0.414371692
     0.222204969  0.888897538  0.414371692
     0.556768074  0.886463792  0.413686049
     0.000000000  0.000000000  0.513615335
     0.333521667  0.010275925  0.513068611
     0.656202438  0.010275925  0.513068611
     0.010275925  0.333521667  0.513068611
     0.656202438  0.333521667  0.513068611
     0.010275925  0.656202438  0.513068611
     0.333521667  0.656202438  0.513068611
     0.666666627  0.666666687  0.513930872
     0.333333313  0.333333343  0.500478487
     0.254939058  0.332859244  0.572945884
     0.412201667  0.332859244  0.572945884

  ion indices of the primitive-cell ions
   primitive index   ion index
                 1           1
                 2           2
                 3           3
                 4           4
                 5           5
                 6           6
                 7           7
                 8           8
                 9           9
                10          10
                11          11
                12          12
                13          13
                14          14
                15          15
                16          16
                17          17
                18          18
                19          19
                20          20
                21          21
                22          22
                23          23
                24          24
                25          25
                26          26
                27          27
                28          28
                29          29
                30          30
                31          31
                32          32
                33          33
                34          34
                35          35
                36          36
                37          37
                38          38

----------------------------------------------------------------------------------------

 
 
 KPOINTS: Automatic mesh                          

Automatic generation of k-mesh.
 Grid dimensions read from file:
 generate k-points for:    8    8    1

 Generating k-lattice:

  Cartesian coordinates                     Fractional coordinates (reciprocal lattice)
     0.014182767 -0.008188426  0.000000000     0.125000000  0.000000000  0.000000000
     0.000000000  0.016376850  0.000000000     0.000000000  0.125000000  0.000000000
     0.000000000  0.000000000  0.041129568     0.000000000  0.000000000  1.000000000

  Length of vectors
     0.016376850  0.016376850  0.041129568

  Shift w.r.t. Gamma in fractional coordinates (k-lattice)
     0.000000000  0.000000000  0.000000000

 TETIRR: Found    100 inequivalent tetrahedra from      384
 
 Subroutine IBZKPT returns following result:
 ===========================================
 
 Found     21 irreducible k-points:
 
 Following reciprocal coordinates:
            Coordinates               Weight
  0.000000  0.000000  0.000000      1.000000
  0.125000  0.000000  0.000000      4.000000
  0.000000  0.125000  0.000000      2.000000
  0.250000  0.000000  0.000000      4.000000
  0.000000  0.250000  0.000000      2.000000
  0.375000 -0.000000  0.000000      4.000000
  0.000000  0.375000  0.000000      2.000000
  0.500000  0.000000  0.000000      2.000000
  0.000000  0.500000  0.000000      1.000000
  0.250000  0.125000  0.000000      2.000000
  0.125000  0.250000  0.000000      4.000000
  0.375000  0.125000  0.000000      4.000000
  0.250000  0.375000  0.000000      4.000000
 -0.125000  0.250000  0.000000      4.000000
  0.500000  0.125000  0.000000      4.000000
  0.375000  0.500000  0.000000      4.000000
 -0.125000  0.375000  0.000000      4.000000
  0.500000  0.250000  0.000000      2.000000
  0.250000  0.500000  0.000000      4.000000
 -0.375000  0.250000  0.000000      4.000000
 -0.250000  0.375000  0.000000      2.000000
 
 Following cartesian coordinates:
            Coordinates               Weight
  0.000000  0.000000  0.000000      1.000000
  0.014183 -0.008188  0.000000      4.000000
  0.000000  0.016377  0.000000      2.000000
  0.028366 -0.016377  0.000000      4.000000
  0.000000  0.032754  0.000000      2.000000
  0.042548 -0.024565  0.000000      4.000000
  0.000000  0.049131  0.000000      2.000000
  0.056731 -0.032754  0.000000      2.000000
  0.000000  0.065507  0.000000      1.000000
  0.028366 -0.000000  0.000000      2.000000
  0.014183  0.024565  0.000000      4.000000
  0.042548 -0.008188  0.000000      4.000000
  0.028366  0.032754  0.000000      4.000000
 -0.014183  0.040942  0.000000      4.000000
  0.056731 -0.016377  0.000000      4.000000
  0.042548  0.040942  0.000000      4.000000
 -0.014183  0.057319  0.000000      4.000000
  0.056731 -0.000000  0.000000      2.000000
  0.028366  0.049131  0.000000      4.000000
 -0.042548  0.057319  0.000000      4.000000
 -0.028366  0.065507  0.000000      2.000000
 


--------------------------------------------------------------------------------------------------------




 Dimension of arrays:
   k-points           NKPTS =     21   k-points in BZ     NKDIM =     21   number of bands    NBANDS=    252
   number of dos      NEDOS =    301   number of ions     NIONS =     38
   non local maximal  LDIM  =      6   non local SUM 2l+1 LMDIM =     18
   total plane-waves  NPLWV = 322560
   max r-space proj   IRMAX =   2267   max aug-charges    IRDMAX=  12258
   dimension x,y,z NGX =    48 NGY =   48 NGZ =  140
   dimension x,y,z NGXF=    96 NGYF=   96 NGZF=  280
   support grid    NGXF=    96 NGYF=   96 NGZF=  280
   ions per type =              35   1   2
   NGX,Y,Z   is equivalent  to a cutoff of   9.05,  9.05,  9.57 a.u.
   NGXF,Y,Z  is equivalent  to a cutoff of  18.11, 18.11, 19.15 a.u.

 SYSTEM =  unknown system                          
 POSCAR =  Au-Mn-O2                                

 Startparameter for this run:
   NWRITE =      2    write-flag & timer
   PREC   = normal    normal or accurate (medium, high low for compatibility)
   ISTART =      0    job   : 0-new  1-cont  2-samecut
   ICHARG =     11    charge: 1-file 2-atom 10-const
   ISPIN  =      1    spin polarized calculation?
   LNONCOLLINEAR =      F non collinear calculations
   LSORBIT =      F    spin-orbit coupling
   INIWAV =      1    electr: 0-lowe 1-rand  2-diag
   LASPH  =      F    aspherical Exc in radial PAW
   METAGGA=      F    non-selfconsistent MetaGGA calc.

 Electronic Relaxation 1
   ENCUT  =  500.0 eV  36.75 Ry    6.06 a.u.  16.07 16.07 44.33*2*pi/ulx,y,z
   ENINI  =  500.0     initial cutoff
   ENAUG  =  605.4 eV  augmentation charge cutoff
   NELM   =    150;   NELMIN=  2; NELMDL= -5     # of ELM steps 
   EDIFF  = 0.1E-04   stopping-criterion for ELM
   LREAL  =      T    real-space projection
   NLSPLINE    = F    spline interpolate recip. space projectors
   LCOMPAT=      F    compatible to vasp.4.4
   GGA_COMPAT  = T    GGA compatible to vasp.4.4-vasp.4.6
   LMAXPAW     = -100 max onsite density
   LMAXMIX     =    2 max onsite mixed and CHGCAR
   VOSKOWN=      0    Vosko Wilk Nusair interpolation
   ROPT   =   -0.00050  -0.00050  -0.00050
 Ionic relaxation
   EDIFFG = -.1E-01   stopping-criterion for IOM
   NSW    =      0    number of steps for IOM
   NBLOCK =      1;   KBLOCK =      1    inner block; outer block 
   IBRION =     -1    ionic relax: 0-MD 1-quasi-New 2-CG
   NFREE  =      1    steps in history (QN), initial steepest desc. (CG)
   ISIF   =      2    stress and relaxation
   IWAVPR =     10    prediction:  0-non 1-charg 2-wave 3-comb
   ISYM   =      2    0-nonsym 1-usesym 2-fastsym
   LCORR  =      T    Harris-Foulkes like correction to forces

   POTIM  = 0.5000    time-step for ionic-motion
   TEIN   =    0.0    initial temperature
   TEBEG  =    0.0;   TEEND  =   0.0 temperature during run
   SMASS  =  -3.00    Nose mass-parameter (am)
   estimated Nose-frequenzy (Omega)   =  0.10E-29 period in steps = 0.13E+47 mass=  -0.178E-26a.u.
   SCALEE = 1.0000    scale energy and forces
   NPACO  =    256;   APACO  = 16.0  distance and # of slots for P.C.
   PSTRESS=    0.0 pullay stress

  Mass of Ions in am
   POMASS = 196.97 54.94 16.00
  Ionic Valenz
   ZVAL   =  11.00  7.00  6.00
  Atomic Wigner-Seitz radii
   RWIGS  =  -1.00 -1.00 -1.00
  virtual crystal weights 
   VCA    =   1.00  1.00  1.00
   NELECT =     404.0000    total number of electrons
   NUPDOWN=      -1.0000    fix difference up-down

 DOS related values:
   EMIN   =  10.00;   EMAX   =-10.00  energy-range for DOS
   EFERMI =   0.00
   ISMEAR =    -5;   SIGMA  =   0.10  broadening in eV -4-tet -1-fermi 0-gaus

 Electronic relaxation 2 (details)
   IALGO  =     68    algorithm
   LDIAG  =      T    sub-space diagonalisation (order eigenvalues)
   LSUBROT=      F    optimize rotation matrix (better conditioning)
   TURBO    =      0    0=normal 1=particle mesh
   IRESTART =      0    0=no restart 2=restart with 2 vectors
   NREBOOT  =      0    no. of reboots
   NMIN     =      0    reboot dimension
   EREF     =   0.00    reference energy to select bands
   IMIX   =      4    mixing-type and parameters
     AMIX     =   0.40;   BMIX     =  1.00
     AMIX_MAG =   1.60;   BMIX_MAG =  1.00
     AMIN     =   0.10
     WC   =   100.;   INIMIX=   1;  MIXPRE=   1;  MAXMIX= -45

 Intra band minimization:
   WEIMIN = 0.0000     energy-eigenvalue tresh-hold
   EBREAK =  0.99E-08  absolut break condition
   DEPER  =   0.30     relativ break condition  

   TIME   =   0.40     timestep for ELM

  volume/ion in A,a.u.               =      43.04       290.46
  Fermi-wavevector in a.u.,A,eV,Ry     =   1.027173  1.941076 14.355306  1.055085
  Thomas-Fermi vector in A             =   2.161105
 
 Write flags
   LWAVE        =      F    write WAVECAR
   LDOWNSAMPLE  =      F    k-point downsampling of WAVECAR
   LCHARG       =      F    write CHGCAR
   LVTOT        =      F    write LOCPOT, total local potential
   LVHAR        =      F    write LOCPOT, Hartree potential only
   LELF         =      F    write electronic localiz. function (ELF)
   LORBIT       =     10    0 simple, 1 ext, 2 COOP (PROOUT), +10 PAW based schemes


 Dipole corrections
   LMONO  =      F    monopole corrections only (constant potential shift)
   LDIPOL =      F    correct potential (dipole corrections)
   IDIPOL =      0    1-x, 2-y, 3-z, 4-all directions 
   EPSILON=  1.0000000 bulk dielectric constant

 Exchange correlation treatment:
   GGA     =    --    GGA type
   LEXCH   =     8    internal setting for exchange type
   VOSKOWN=      0    Vosko Wilk Nusair interpolation
   LHFCALC =     F    Hartree Fock is set to
   LHFONE  =     F    Hartree Fock one center treatment
   AEXX    =    0.0000 exact exchange contribution

 Linear response parameters
   LEPSILON=     F    determine dielectric tensor
   LRPA    =     F    only Hartree local field effects (RPA)
   LNABLA  =     F    use nabla operator in PAW spheres
   LVEL    =     F    velocity operator in full k-point grid
   LINTERFAST=   F  fast interpolation
   KINTER  =     0    interpolate to denser k-point grid
   CSHIFT  =0.1000    complex shift for real part using Kramers Kronig
   OMEGAMAX=  -1.0    maximum frequency
   DEG_THRESHOLD= 0.2000000E-02 threshold for treating states as degnerate
   RTIME   =   -0.100 relaxation time in fs
  (WPLASMAI=    0.000 imaginary part of plasma frequency in eV, 0.658/RTIME)
   DFIELD  = 0.0000000 0.0000000 0.0000000 field for delta impulse in time
 
 Orbital magnetization related:
   ORBITALMAG=     F  switch on orbital magnetization
   LCHIMAG   =     F  perturbation theory with respect to B field
   DQ        =  0.001000  dq finite difference perturbation B field
   LLRAUG    =     F  two centre corrections for induced B field



--------------------------------------------------------------------------------------------------------


 Static calculation
 charge density and potential remain constant during run
 non-spin polarized calculation
 RMM-DIIS sequential band-by-band and
  variant of blocked Davidson during initial phase
 perform sub-space diagonalisation
    before iterative eigenvector-optimisation
 no mixing
 using additional bands           50
 real space projection scheme for non local part
 use partial core corrections
 calculate Harris-corrections to forces 
   (improved forces if not selfconsistent)
 use gradient corrections 
 WARNING: stress and forces are not correct
  (second derivative of E(xc) not defined)
 use of overlap-Matrix (Vanderbilt PP)
 Fermi weights with tetrahedron method with Bloechl corrections


--------------------------------------------------------------------------------------------------------


  energy-cutoff  :      500.00
  volume of cell :     1635.59
      direct lattice vectors                 reciprocal lattice vectors
     8.813512802  0.000000000  0.000000000     0.113462137 -0.065507406  0.000000000
     4.406756909  7.632725690  0.000000000     0.000000000  0.131014796  0.000000000
     0.000000000  0.000000000 24.313408842     0.000000000  0.000000000  0.041129568

  length of vectors
     8.813512802  8.813512802 24.313408842     0.131014796  0.131014796  0.041129568


 
 k-points in units of 2pi/SCALE and weight: Automatic mesh                          
   0.00000000  0.00000000  0.00000000       0.016
   0.01418277 -0.00818843  0.00000000       0.062
   0.00000000  0.01637685  0.00000000       0.031
   0.02836553 -0.01637685  0.00000000       0.062
   0.00000000  0.03275370  0.00000000       0.031
   0.04254830 -0.02456528  0.00000000       0.062
   0.00000000  0.04913055  0.00000000       0.031
   0.05673107 -0.03275370  0.00000000       0.031
   0.00000000  0.06550740  0.00000000       0.016
   0.02836553 -0.00000000  0.00000000       0.031
   0.01418277  0.02456527  0.00000000       0.062
   0.04254830 -0.00818843  0.00000000       0.062
   0.02836553  0.03275370  0.00000000       0.062
  -0.01418277  0.04094212  0.00000000       0.062
   0.05673107 -0.01637685  0.00000000       0.062
   0.04254830  0.04094212  0.00000000       0.062
  -0.01418277  0.05731897  0.00000000       0.062
   0.05673107 -0.00000000  0.00000000       0.031
   0.02836553  0.04913055  0.00000000       0.062
  -0.04254830  0.05731898  0.00000000       0.062
  -0.02836553  0.06550740  0.00000000       0.031
 
 k-points in reciprocal lattice and weights: Automatic mesh                          
   0.00000000  0.00000000  0.00000000       0.016
   0.12500000  0.00000000  0.00000000       0.062
   0.00000000  0.12500000  0.00000000       0.031
   0.25000000  0.00000000  0.00000000       0.062
   0.00000000  0.25000000  0.00000000       0.031
   0.37500000 -0.00000000  0.00000000       0.062
   0.00000000  0.37500000  0.00000000       0.031
   0.50000000  0.00000000  0.00000000       0.031
   0.00000000  0.50000000  0.00000000       0.016
   0.25000000  0.12500000  0.00000000       0.031
   0.12500000  0.25000000  0.00000000       0.062
   0.37500000  0.12500000  0.00000000       0.062
   0.25000000  0.37500000  0.00000000       0.062
  -0.12500000  0.25000000  0.00000000       0.062
   0.50000000  0.12500000  0.00000000       0.062
   0.37500000  0.50000000  0.00000000       0.062
  -0.12500000  0.37500000  0.00000000       0.062
   0.50000000  0.25000000  0.00000000       0.031
   0.25000000  0.50000000  0.00000000       0.062
  -0.37500000  0.25000000  0.00000000       0.062
  -0.25000000  0.37500000  0.00000000       0.031
 
 position of ions in fractional coordinates (direct lattice) 
   0.00000000  0.00000000  0.21717974
   0.33333334  0.00000000  0.21717974
   0.66666669  0.00000000  0.21717974
   0.00000000  0.33333334  0.21717974
   0.33333331  0.33333334  0.21717974
   0.66666669  0.33333334  0.21717974
   0.00000000  0.66666669  0.21717974
   0.33333334  0.66666669  0.21717974
   0.66666663  0.66666669  0.21717974
   0.11111112  0.11111111  0.31583864
   0.44444442  0.11111111  0.31583864
   0.77777779  0.11111111  0.31583864
   0.11111113  0.44444445  0.31583864
   0.44444448  0.44444445  0.31583864
   0.77777773  0.44444445  0.31583864
   0.11111109  0.77777779  0.31583864
   0.44444445  0.77777779  0.31583864
   0.77777785  0.77777779  0.31583864
   0.88889754  0.22220494  0.41437169
   0.22337401  0.22337400  0.41334804
   0.55325204  0.22337400  0.41334804
   0.88646379  0.55676813  0.41368605
   0.22337397  0.55325204  0.41334804
   0.55676813  0.55676813  0.41368605
   0.88889754  0.88889754  0.41437169
   0.22220497  0.88889754  0.41437169
   0.55676807  0.88646379  0.41368605
   0.00000000  0.00000000  0.51361533
   0.33352167  0.01027593  0.51306861
   0.65620244  0.01027593  0.51306861
   0.01027593  0.33352167  0.51306861
   0.65620244  0.33352167  0.51306861
   0.01027593  0.65620244  0.51306861
   0.33352167  0.65620244  0.51306861
   0.66666663  0.66666669  0.51393087
   0.33333331  0.33333334  0.50047849
   0.25493906  0.33285924  0.57294588
   0.41220167  0.33285924  0.57294588
 
 position of ions in cartesian coordinates  (Angst):
   0.00000000  0.00000000  5.28037993
   2.93783769  0.00000000  5.28037993
   5.87567538  0.00000000  5.28037993
   1.46891901  2.54424197  5.28037993
   4.40675643  2.54424197  5.28037993
   7.34459439  2.54424197  5.28037993
   2.93783803  5.08848395  5.28037993
   5.87567571  5.08848395  5.28037993
   8.81351288  5.08848395  5.28037993
   1.46891893  0.84808064  7.67911405
   4.40675623  0.84808064  7.67911405
   7.34459418  0.84808064  7.67911405
   2.93783798  3.39232256  7.67911405
   5.87567574  3.39232256  7.67911405
   8.81351263  3.39232256  7.67911405
   4.40675667  5.93656453  7.67911405
   7.34459449  5.93656453  7.67911405
  10.28243270  5.93656453  7.67911405
   8.81351299  1.69602935 10.07478836
   2.95306462  1.70495245 10.04989979
   5.86044880  1.70495245 10.04989979
  10.26640180  4.24965844 10.05811804
   4.40675655  4.22282102 10.04989979
   7.36062490  4.24965844 10.05811804
  11.75146520  6.78471108 10.07478836
   5.87556171  6.78471108 10.07478836
   8.81351299  6.76613496 10.05811804
   0.00000000  0.00000000 12.48773962
   2.98478098  0.07843332 12.47444691
   5.82873209  0.07843332 12.47444691
   1.56031591  2.54567939 12.47444691
   7.25319750  2.54567939 12.47444691
   2.98229163  5.00861321 12.47444691
   5.83122211  5.00861321 12.47444691
   8.81351288  5.08848395 12.49541140
   4.40675643  2.54424197 12.16833808
   3.71373842  2.54062330 13.93026751
   5.09977444  2.54062330 13.93026751
 


--------------------------------------------------------------------------------------------------------


 k-point   1 :   0.0000 0.0000 0.0000  plane waves:   41363
 k-point   2 :   0.1250 0.0000 0.0000  plane waves:   41482
 k-point   3 :   0.0000 0.1250 0.0000  plane waves:   41482
 k-point   4 :   0.2500 0.0000 0.0000  plane waves:   41496
 k-point   5 :   0.0000 0.2500 0.0000  plane waves:   41496
 k-point   6 :   0.3750-0.0000 0.0000  plane waves:   41568
 k-point   7 :   0.0000 0.3750 0.0000  plane waves:   41568
 k-point   8 :   0.5000 0.0000 0.0000  plane waves:   41500
 k-point   9 :   0.0000 0.5000 0.0000  plane waves:   41500
 k-point  10 :   0.2500 0.1250 0.0000  plane waves:   41456
 k-point  11 :   0.1250 0.2500 0.0000  plane waves:   41456
 k-point  12 :   0.3750 0.1250 0.0000  plane waves:   41540
 k-point  13 :   0.2500 0.3750 0.0000  plane waves:   41540
 k-point  14 :  -0.1250 0.2500 0.0000  plane waves:   41540
 k-point  15 :   0.5000 0.1250 0.0000  plane waves:   41540
 k-point  16 :   0.3750 0.5000 0.0000  plane waves:   41540
 k-point  17 :  -0.1250 0.3750 0.0000  plane waves:   41540
 k-point  18 :   0.5000 0.2500 0.0000  plane waves:   41588
 k-point  19 :   0.2500 0.5000 0.0000  plane waves:   41588
 k-point  20 :  -0.3750 0.2500 0.0000  plane waves:   41554
 k-point  21 :  -0.2500 0.3750 0.0000  plane waves:   41554

 maximum and minimum number of plane-waves per node :     41588    41363

 maximum number of plane-waves:     41588
 maximum index in each direction: 
   IXMAX=   16   IYMAX=   16   IZMAX=   44
   IXMIN=  -16   IYMIN=  -16   IZMIN=  -44


 serial   3D FFT for wavefunctions
 parallel 3D FFT for charge:
    minimum data exchange during FFTs selected (reduces bandwidth)


 total amount of memory used by VASP MPI-rank0   196914. kBytes
=======================================================================

   base      :      30000. kBytes
   nonlr-proj:      13805. kBytes
   fftplans  :       4808. kBytes
   grid      :      19857. kBytes
   one-center:        590. kBytes
   wavefun   :     127854. kBytes
 
     INWAV:  cpu time    0.0000: real time    0.0001
 initial charge density was supplied:
 number of electron     404.0000092 magnetization 
 keeping initial charge density in first step


--------------------------------------------------------------------------------------------------------


 Maximum index for non-local projection operator         2176
 Maximum index for augmentation-charges          860 (set IRDMAX)


--------------------------------------------------------------------------------------------------------


 First call to EWALD:  gamma=   0.150
 Maximum number of real-space cells 4x 4x 2
 Maximum number of reciprocal cells 2x 2x 5

    FEWALD:  cpu time    0.0013: real time    0.0013


--------------------------------------- Iteration      1(   1)  ---------------------------------------


    POTLOK:  cpu time    0.0474: real time    0.0477
    SETDIJ:  cpu time    0.0050: real time    0.0051
     EDDAV:  cpu time   16.4381: real time   16.4396
 BZINTS: Fermi energy:   11.336868;  404.000000 electrons
         Band energy: 0.141522E+04;  BLOECHL correction:   -0.025676
       DOS:  cpu time    0.0305: real time    0.0306
    --------------------------------------------
      LOOP:  cpu time   16.5210: real time   16.5230

 eigenvalue-minimisations  : 10584
 total energy-change (2. order) : 0.2789828E+04  (-0.1807092E+05)
 number of electron     404.0000092 magnetization 
 augmentation part      404.0000092 magnetization 

 Free energy of the ion-electron system (eV)
  ---------------------------------------------------
  alpha Z        PSCENC =       946.36619708
  Ewald energy   TEWEN  =    129271.49653120
  -Hartree energ DENC   =   -163839.34488412
  -exchange      EXHF   =         0.00000000
  -V(xc)+E(xc)   XCENC  =       561.17962092
  PAW double counting   =     36584.83761485   -35844.27872906
  entropy T*S    EENTRO =         0.00000000
  eigenvalues    EBANDS =      1415.22111702
  atomic energy  EATOM  =     33694.35078280
  Solvation  Ediel_sol  =         0.00000000
  ---------------------------------------------------
  free energy    TOTEN  =      2789.82825068 eV

  energy without entropy =     2789.82825068  energy(sigma->0) =     2789.82825068


--------------------------------------------------------------------------------------------------------




--------------------------------------- Iteration      1(   2)  ---------------------------------------


     EDDAV:  cpu time   17.4383: real time   17.4384
 BZINTS: Fermi energy:    1.241602;  404.000000 electrons
         Band energy:-0.131948E+04;  BLOECHL correction:   -0.113438
       DOS:  cpu time    0.0277: real time    0.0277
    --------------------------------------------
      LOOP:  cpu time   17.4660: real time   17.4661

 eigenvalue-minimisations  : 11452
 total energy-change (2. order) :-0.2734698E+04  (-0.2530527E+04)
 number of electron     404.0000092 magnetization 
 augmentation part      404.0000092 magnetization 

 Free energy of the ion-electron system (eV)
  ---------------------------------------------------
  alpha Z        PSCENC =       946.36619708
  Ewald energy   TEWEN  =    129271.49653120
  -Hartree energ DENC   =   -163839.34488412
  -exchange      EXHF   =         0.00000000
  -V(xc)+E(xc)   XCENC  =       561.17962092
  PAW double counting   =     36584.83761485   -35844.27872906
  entropy T*S    EENTRO =         0.00000000
  eigenvalues    EBANDS =     -1319.47640026
  atomic energy  EATOM  =     33694.35078280
  Solvation  Ediel_sol  =         0.00000000
  ---------------------------------------------------
  free energy    TOTEN  =        55.13073340 eV

  energy without entropy =       55.13073340  energy(sigma->0) =       55.13073340


--------------------------------------------------------------------------------------------------------




--------------------------------------- Iteration      1(   3)  ---------------------------------------


     EDDAV:  cpu time   18.6446: real time   18.6446
 BZINTS: Fermi energy:    0.193576;  404.000000 electrons
         Band energy:-0.149356E+04;  BLOECHL correction:   -0.057546
       DOS:  cpu time    0.0286: real time    0.0286
    --------------------------------------------
      LOOP:  cpu time   18.6732: real time   18.6732

 eigenvalue-minimisations  : 12404
 total energy-change (2. order) :-0.1740875E+03  (-0.1661303E+03)
 number of electron     404.0000092 magnetization 
 augmentation part      404.0000092 magnetization 

 Free energy of the ion-electron system (eV)
  ---------------------------------------------------
  alpha Z        PSCENC =       946.36619708
  Ewald energy   TEWEN  =    129271.49653120
  -Hartree energ DENC   =   -163839.34488412
  -exchange      EXHF   =         0.00000000
  -V(xc)+E(xc)   XCENC  =       561.17962092
  PAW double counting   =     36584.83761485   -35844.27872906
  entropy T*S    EENTRO =         0.00000000
  eigenvalues    EBANDS =     -1493.56386228
  atomic energy  EATOM  =     33694.35078280
  Solvation  Ediel_sol  =         0.00000000
  ---------------------------------------------------
  free energy    TOTEN  =      -118.95672862 eV

  energy without entropy =     -118.95672862  energy(sigma->0) =     -118.95672862


--------------------------------------------------------------------------------------------------------




--------------------------------------- Iteration      1(   4)  ---------------------------------------


     EDDAV:  cpu time   18.6455: real time   18.6454
 BZINTS: Fermi energy:    0.153426;  404.000000 electrons
         Band energy:-0.149891E+04;  BLOECHL correction:   -0.050989
       DOS:  cpu time    0.0300: real time    0.0300
    --------------------------------------------
      LOOP:  cpu time   18.6755: real time   18.6755

 eigenvalue-minimisations  : 12404
 total energy-change (2. order) :-0.5347080E+01  (-0.5303524E+01)
 number of electron     404.0000092 magnetization 
 augmentation part      404.0000092 magnetization 

 Free energy of the ion-electron system (eV)
  ---------------------------------------------------
  alpha Z        PSCENC =       946.36619708
  Ewald energy   TEWEN  =    129271.49653120
  -Hartree energ DENC   =   -163839.34488412
  -exchange      EXHF   =         0.00000000
  -V(xc)+E(xc)   XCENC  =       561.17962092
  PAW double counting   =     36584.83761485   -35844.27872906
  entropy T*S    EENTRO =         0.00000000
  eigenvalues    EBANDS =     -1498.91094214
  atomic energy  EATOM  =     33694.35078280
  Solvation  Ediel_sol  =         0.00000000
  ---------------------------------------------------
  free energy    TOTEN  =      -124.30380848 eV

  energy without entropy =     -124.30380848  energy(sigma->0) =     -124.30380848


--------------------------------------------------------------------------------------------------------




--------------------------------------- Iteration      1(   5)  ---------------------------------------


     EDDAV:  cpu time   19.1221: real time   19.1222
 BZINTS: Fermi energy:    0.152265;  404.000000 electrons
         Band energy:-0.149906E+04;  BLOECHL correction:   -0.050902
       DOS:  cpu time    0.0300: real time    0.0300
    --------------------------------------------
      LOOP:  cpu time   19.1521: real time   19.1522

 eigenvalue-minimisations  : 12824
 total energy-change (2. order) :-0.1525499E+00  (-0.1524572E+00)
 number of electron     404.0000092 magnetization 
 augmentation part      404.0000092 magnetization 

 Free energy of the ion-electron system (eV)
  ---------------------------------------------------
  alpha Z        PSCENC =       946.36619708
  Ewald energy   TEWEN  =    129271.49653120
  -Hartree energ DENC   =   -163839.34488412
  -exchange      EXHF   =         0.00000000
  -V(xc)+E(xc)   XCENC  =       561.17962092
  PAW double counting   =     36584.83761485   -35844.27872906
  entropy T*S    EENTRO =         0.00000000
  eigenvalues    EBANDS =     -1499.06349200
  atomic energy  EATOM  =     33694.35078280
  Solvation  Ediel_sol  =         0.00000000
  ---------------------------------------------------
  free energy    TOTEN  =      -124.45635834 eV

  energy without entropy =     -124.45635834  energy(sigma->0) =     -124.45635834


--------------------------------------------------------------------------------------------------------




--------------------------------------- Iteration      1(   6)  ---------------------------------------


    EDDIAG:  cpu time    3.2214: real time    3.2216
  RMM-DIIS:  cpu time    9.7729: real time    9.7728
    ORTHCH:  cpu time    0.5929: real time    0.5929
 BZINTS: Fermi energy:    0.152258;  404.000000 electrons
         Band energy:-0.149907E+04;  BLOECHL correction:   -0.050901
       DOS:  cpu time    0.0300: real time    0.0300
    --------------------------------------------
      LOOP:  cpu time   13.6172: real time   13.6173

 eigenvalue-minimisations  : 11195
 total energy-change (2. order) :-0.5083231E-02  (-0.5083200E-02)
 number of electron     404.0000092 magnetization 
 augmentation part      404.0000092 magnetization 

 Free energy of the ion-electron system (eV)
  ---------------------------------------------------
  alpha Z        PSCENC =       946.36619708
  Ewald energy   TEWEN  =    129271.49653120
  -Hartree energ DENC   =   -163839.34488412
  -exchange      EXHF   =         0.00000000
  -V(xc)+E(xc)   XCENC  =       561.17962092
  PAW double counting   =     36584.83761485   -35844.27872906
  entropy T*S    EENTRO =         0.00000000
  eigenvalues    EBANDS =     -1499.06857523
  atomic energy  EATOM  =     33694.35078280
  Solvation  Ediel_sol  =         0.00000000
  ---------------------------------------------------
  free energy    TOTEN  =      -124.46144157 eV

  energy without entropy =     -124.46144157  energy(sigma->0) =     -124.46144157


--------------------------------------------------------------------------------------------------------




--------------------------------------- Iteration      1(   7)  ---------------------------------------


    EDDIAG:  cpu time    3.2223: real time    3.2225
  RMM-DIIS:  cpu time   13.6388: real time   13.6387
    ORTHCH:  cpu time    0.5935: real time    0.5935
 BZINTS: Fermi energy:    0.152255;  404.000000 electrons
         Band energy:-0.149907E+04;  BLOECHL correction:   -0.050900
       DOS:  cpu time    0.0300: real time    0.0300
    --------------------------------------------
      LOOP:  cpu time   17.4846: real time   17.4847

 eigenvalue-minimisations  : 15645
 total energy-change (2. order) :-0.3061082E-02  (-0.2982366E-02)
 number of electron     404.0000092 magnetization 
 augmentation part      404.0000092 magnetization 

 Free energy of the ion-electron system (eV)
  ---------------------------------------------------
  alpha Z        PSCENC =       946.36619708
  Ewald energy   TEWEN  =    129271.49653120
  -Hartree energ DENC   =   -163839.34488412
  -exchange      EXHF   =         0.00000000
  -V(xc)+E(xc)   XCENC  =       561.17962092
  PAW double counting   =     36584.83761485   -35844.27872906
  entropy T*S    EENTRO =         0.00000000
  eigenvalues    EBANDS =     -1499.07163631
  atomic energy  EATOM  =     33694.35078280
  Solvation  Ediel_sol  =         0.00000000
  ---------------------------------------------------
  free energy    TOTEN  =      -124.46450265 eV

  energy without entropy =     -124.46450265  energy(sigma->0) =     -124.46450265


--------------------------------------------------------------------------------------------------------




--------------------------------------- Iteration      1(   8)  ---------------------------------------


    EDDIAG:  cpu time    3.2237: real time    3.2238
  RMM-DIIS:  cpu time   13.1887: real time   13.1886
    ORTHCH:  cpu time    0.5932: real time    0.5932
 BZINTS: Fermi energy:    0.152255;  404.000000 electrons
         Band energy:-0.149907E+04;  BLOECHL correction:   -0.050900
       DOS:  cpu time    0.0281: real time    0.0281
    --------------------------------------------
      LOOP:  cpu time   17.0337: real time   17.0337

 eigenvalue-minimisations  : 14911
 total energy-change (2. order) :-0.3621782E-03  (-0.3574908E-03)
 number of electron     404.0000092 magnetization 
 augmentation part      404.0000092 magnetization 

 Free energy of the ion-electron system (eV)
  ---------------------------------------------------
  alpha Z        PSCENC =       946.36619708
  Ewald energy   TEWEN  =    129271.49653120
  -Hartree energ DENC   =   -163839.34488412
  -exchange      EXHF   =         0.00000000
  -V(xc)+E(xc)   XCENC  =       561.17962092
  PAW double counting   =     36584.83761485   -35844.27872906
  entropy T*S    EENTRO =         0.00000000
  eigenvalues    EBANDS =     -1499.07199849
  atomic energy  EATOM  =     33694.35078280
  Solvation  Ediel_sol  =         0.00000000
  ---------------------------------------------------
  free energy    TOTEN  =      -124.46486483 eV

  energy without entropy =     -124.46486483  energy(sigma->0) =     -124.46486483


--------------------------------------------------------------------------------------------------------




--------------------------------------- Iteration      1(   9)  ---------------------------------------


    EDDIAG:  cpu time    3.2198: real time    3.2199
  RMM-DIIS:  cpu time   12.4894: real time   12.4893
    ORTHCH:  cpu time    0.5926: real time    0.5926
 BZINTS: Fermi energy:    0.152255;  404.000000 electrons
         Band energy:-0.149907E+04;  BLOECHL correction:   -0.050900
       DOS:  cpu time    0.0301: real time    0.0301
    --------------------------------------------
      LOOP:  cpu time   16.3319: real time   16.3319

 eigenvalue-minimisations  : 13810
 total energy-change (2. order) :-0.5564146E-04  (-0.5513972E-04)
 number of electron     404.0000092 magnetization 
 augmentation part      404.0000092 magnetization 

 Free energy of the ion-electron system (eV)
  ---------------------------------------------------
  alpha Z        PSCENC =       946.36619708
  Ewald energy   TEWEN  =    129271.49653120
  -Hartree energ DENC   =   -163839.34488412
  -exchange      EXHF   =         0.00000000
  -V(xc)+E(xc)   XCENC  =       561.17962092
  PAW double counting   =     36584.83761485   -35844.27872906
  entropy T*S    EENTRO =         0.00000000
  eigenvalues    EBANDS =     -1499.07205413
  atomic energy  EATOM  =     33694.35078280
  Solvation  Ediel_sol  =         0.00000000
  ---------------------------------------------------
  free energy    TOTEN  =      -124.46492047 eV

  energy without entropy =     -124.46492047  energy(sigma->0) =     -124.46492047


--------------------------------------------------------------------------------------------------------




--------------------------------------- Iteration      1(  10)  ---------------------------------------


    EDDIAG:  cpu time    3.2197: real time    3.2227
  RMM-DIIS:  cpu time    8.9647: real time    8.9646
    ORTHCH:  cpu time    0.5934: real time    0.5934
 BZINTS: Fermi energy:    0.152255;  404.000000 electrons
         Band energy:-0.149907E+04;  BLOECHL correction:   -0.050900
       DOS:  cpu time    0.0300: real time    0.0300
    --------------------------------------------
      LOOP:  cpu time   12.8078: real time   12.8108

 eigenvalue-minimisations  :  9270
 total energy-change (2. order) :-0.7836672E-05  (-0.7865716E-05)
 number of electron     404.0000092 magnetization 
 augmentation part      404.0000092 magnetization 

 Free energy of the ion-electron system (eV)
  ---------------------------------------------------
  alpha Z        PSCENC =       946.36619708
  Ewald energy   TEWEN  =    129271.49653120
  -Hartree energ DENC   =   -163839.34488412
  -exchange      EXHF   =         0.00000000
  -V(xc)+E(xc)   XCENC  =       561.17962092
  PAW double counting   =     36584.83761485   -35844.27872906
  entropy T*S    EENTRO =         0.00000000
  eigenvalues    EBANDS =     -1499.07206197
  atomic energy  EATOM  =     33694.35078280
  Solvation  Ediel_sol  =         0.00000000
  ---------------------------------------------------
  free energy    TOTEN  =      -124.46492831 eV

  energy without entropy =     -124.46492831  energy(sigma->0) =     -124.46492831


--------------------------------------------------------------------------------------------------------




 average (electrostatic) potential at core
  the test charge radii are     1.2098  1.0210  0.7215
  (the norm of the test charge is              1.0000)
       1 -72.8808       2 -72.8543       3 -72.8543       4 -72.8568       5 -72.8658
       6 -72.8565       7 -72.8495       8 -72.8492       9 -72.8635      10 -73.2117
      11 -73.1785      12 -73.2114      13 -73.1837      14 -73.1834      15 -73.2108
      16 -73.2132      17 -73.2057      18 -73.2057      19 -73.1317      20 -73.3177
      21 -73.3173      22 -73.1847      23 -73.3251      24 -73.1845      25 -73.1311
      26 -73.1313      27 -73.1666      28 -72.7687      29 -72.8277      30 -72.8276
      31 -72.8364      32 -72.8362      33 -72.8270      34 -72.8269      35 -72.7432
      36 -49.8544      37 -77.2387      38 -77.2386
 
 
 
 E-fermi :   0.1523     XC(G=0):  -5.6335     alpha+bet : -5.2762

 Fermi energy:         0.1522551367

 k-point     1 :       0.0000    0.0000    0.0000
  band No.  band energies     occupation 
      1     -23.6559      2.00000
      2     -15.3523      2.00000
      3      -8.6719      2.00000
      4      -7.7341      2.00000
      5      -7.2487      2.00000
      6      -6.6502      2.00000
      7      -6.5174      2.00000
      8      -6.5100      2.00000
      9      -6.5067      2.00000
     10      -6.4833      2.00000
     11      -6.4630      2.00000
     12      -6.4593      2.00000
     13      -6.4132      2.00000
     14      -6.2067      2.00000
     15      -6.2012      2.00000
     16      -6.0259      2.00000
     17      -6.0183      2.00000
     18      -5.9956      2.00000
     19      -5.9682      2.00000
     20      -5.9587      2.00000
     21      -5.9383      2.00000
     22      -5.6389      2.00000
     23      -5.6269      2.00000
     24      -5.6156      2.00000
     25      -5.6042      2.00000
     26      -5.5820      2.00000
     27      -5.5738      2.00000
     28      -5.4438      2.00000
     29      -5.4423      2.00000
     30      -5.4230      2.00000
     31      -5.4178      2.00000
     32      -5.4108      2.00000
     33      -5.3870      2.00000
     34      -5.2900      2.00000
     35      -5.2869      2.00000
     36      -5.2744      2.00000
     37      -5.2719      2.00000
     38      -5.2691      2.00000
     39      -5.2466      2.00000
     40      -5.2458      2.00000
     41      -5.2335      2.00000
     42      -5.2116      2.00000
     43      -5.1236      2.00000
     44      -5.0955      2.00000
     45      -4.9952      2.00000
     46      -4.7766      2.00000
     47      -4.7710      2.00000
     48      -4.7485      2.00000
     49      -4.7301      2.00000
     50      -4.7162      2.00000
     51      -4.7055      2.00000
     52      -4.6984      2.00000
     53      -4.6565      2.00000
     54      -4.6548      2.00000
     55      -4.6255      2.00000
     56      -4.6101      2.00000
     57      -4.6059      2.00000
     58      -4.5523      2.00000
     59      -4.5394      2.00000
     60      -4.1913      2.00000
     61      -4.1803      2.00000
     62      -4.1742      2.00000
     63      -4.1611      2.00000
     64      -4.1591      2.00000
     65      -4.1509      2.00000
     66      -4.1201      2.00000
     67      -4.1179      2.00000
     68      -4.1001      2.00000
     69      -4.0655      2.00000
     70      -4.0622      2.00000
     71      -4.0225      2.00000
     72      -4.0116      2.00000
     73      -4.0066      2.00000
     74      -3.9724      2.00000
     75      -3.9678      2.00000
     76      -3.9453      2.00000
     77      -3.9232      2.00000
     78      -3.9215      2.00000
     79      -3.9145      2.00000
     80      -3.9111      2.00000
     81      -3.9097      2.00000
     82      -3.8999      2.00000
     83      -3.8985      2.00000
     84      -3.8845      2.00000
     85      -3.8563      2.00000
     86      -3.8487      2.00000
     87      -3.8464      2.00000
     88      -3.7995      2.00000
     89      -3.7949      2.00000
     90      -3.7829      2.00000
     91      -3.7825      2.00000
     92      -3.7681      2.00000
     93      -3.7299      2.00000
     94      -3.6877      2.00000
     95      -3.6876      2.00000
     96      -3.6235      2.00000
     97      -3.5617      2.00000
     98      -3.5412      2.00000
     99      -3.5000      2.00000
    100      -3.4997      2.00000
    101      -3.4919      2.00000
    102      -3.4915      2.00000
    103      -3.3545      2.00000
    104      -3.3236      2.00000
    105      -3.3166      2.00000
    106      -3.3004      2.00000
    107      -3.2763      2.00000
    108      -3.2736      2.00000
    109      -3.1920      2.00000
    110      -3.1899      2.00000
    111      -3.1340      2.00000
    112      -3.1119      2.00000
    113      -3.0951      2.00000
    114      -3.0922      2.00000
    115      -3.0895      2.00000
    116      -3.0581      2.00000
    117      -3.0448      2.00000
    118      -2.9944      2.00000
    119      -2.9888      2.00000
    120      -2.9845      2.00000
    121      -2.9185      2.00000
    122      -2.8558      2.00000
    123      -2.8069      2.00000
    124      -2.8031      2.00000
    125      -2.7766      2.00000
    126      -2.7648      2.00000
    127      -2.7584      2.00000
    128      -2.7349      2.00000
    129      -2.7223      2.00000
    130      -2.6973      2.00000
    131      -2.6875      2.00000
    132      -2.6800      2.00000
    133      -2.6638      2.00000
    134      -2.5599      2.00000
    135      -2.5574      2.00000
    136      -2.5569      2.00000
    137      -2.5419      2.00000
    138      -2.5408      2.00000
    139      -2.5336      2.00000
    140      -2.5335      2.00000
    141      -2.5088      2.00000
    142      -2.4923      2.00000
    143      -2.4515      2.00000
    144      -2.4208      2.00000
    145      -2.3710      2.00000
    146      -2.3575      2.00000
    147      -2.3027      2.00000
    148      -2.2950      2.00000
    149      -2.2853      2.00000
    150      -2.2805      2.00000
    151      -2.2771      2.00000
    152      -2.2709      2.00000
    153      -2.2500      2.00000
    154      -2.2415      2.00000
    155      -2.2300      2.00000
    156      -2.2265      2.00000
    157      -2.2121      2.00000
    158      -2.1972      2.00000
    159      -2.1766      2.00000
    160      -2.1242      2.00000
    161      -2.1014      2.00000
    162      -2.0895      2.00000
    163      -2.0859      2.00000
    164      -2.0850      2.00000
    165      -2.0790      2.00000
    166      -2.0669      2.00000
    167      -2.0592      2.00000
    168      -2.0488      2.00000
    169      -2.0426      2.00000
    170      -2.0224      2.00000
    171      -2.0209      2.00000
    172      -1.9915      2.00000
    173      -1.9900      2.00000
    174      -1.9706      2.00000
    175      -1.9703      2.00000
    176      -1.9689      2.00000
    177      -1.9629      2.00000
    178      -1.9609      2.00000
    179      -1.9481      2.00000
    180      -1.9302      2.00000
    181      -1.9127      2.00000
    182      -1.9038      2.00000
    183      -1.8916      2.00000
    184      -1.8701      2.00000
    185      -1.8668      2.00000
    186      -1.8521      2.00000
    187      -1.8376      2.00000
    188      -1.7778      2.00000
    189      -1.7673      2.00000
    190      -1.7286      2.00000
    191      -1.7001      2.00000
    192      -1.6885      2.00000
    193      -1.6585      2.00000
    194      -1.6573      2.00000
    195      -1.6481      2.00000
    196      -1.6257      2.00000
    197      -1.0036      2.00000
    198      -0.7303      2.00000
    199      -0.5723      2.00000
    200      -0.3900      2.00000
    201      -0.3678      2.00000
    202      -0.3448      2.00000
    203      -0.2836      2.00000
    204      -0.2762      2.00000
    205      -0.1243      2.00000
    206       0.0275      2.34955
    207       0.2821      0.00000
    208       0.5816      0.00000
    209       0.9926      0.00000
    210       1.4419      0.00000
    211       1.7436      0.00000
    212       1.8139      0.00000
    213       1.8160      0.00000
    214       1.8726      0.00000
    215       1.8797      0.00000
    216       2.5181      0.00000
    217       2.9474      0.00000
    218       2.9512      0.00000
    219       2.9847      0.00000
    220       3.0105      0.00000
    221       3.0717      0.00000
    222       3.1942      0.00000
    223       3.5658      0.00000
    224       4.2664      0.00000
    225       4.5449      0.00000
    226       4.7693      0.00000
    227       4.7975      0.00000
    228       4.8492      0.00000
    229       4.9093      0.00000
    230       4.9203      0.00000
    231       4.9218      0.00000
    232       4.9790      0.00000
    233       5.0347      0.00000
    234       5.0443      0.00000
    235       5.2479      0.00000
    236       5.3029      0.00000
    237       5.4836      0.00000
    238       5.9309      0.00000
    239       6.0626      0.00000
    240       6.1996      0.00000
    241       6.2851      0.00000
    242       6.4400      0.00000
    243       6.5392      0.00000
    244       6.5504      0.00000
    245       6.5537      0.00000
    246       6.6036      0.00000
    247       6.6139      0.00000
    248       6.7096      0.00000
    249       6.7607      0.00000
    250       6.7783      0.00000
    251       6.8912      0.00000
    252       6.9503      0.00000

 k-point     2 :       0.1250    0.0000    0.0000
  band No.  band energies     occupation 
      1     -23.6559      2.00000
      2     -15.3525      2.00000
      3      -8.6213      2.00000
      4      -7.7051      2.00000
      5      -7.2198      2.00000
      6      -6.7685      2.00000
      7      -6.6199      2.00000
      8      -6.5652      2.00000
      9      -6.5076      2.00000
     10      -6.4649      2.00000
     11      -6.3711      2.00000
     12      -6.3667      2.00000
     13      -6.3378      2.00000
     14      -6.2337      2.00000
     15      -6.1494      2.00000
     16      -6.0477      2.00000
     17      -5.9990      2.00000
     18      -5.9905      2.00000
     19      -5.9758      2.00000
     20      -5.9320      2.00000
     21      -5.9135      2.00000
     22      -5.6801      2.00000
     23      -5.6258      2.00000
     24      -5.6243      2.00000
     25      -5.5821      2.00000
     26      -5.5561      2.00000
     27      -5.5470      2.00000
     28      -5.5044      2.00000
     29      -5.4509      2.00000
     30      -5.4390      2.00000
     31      -5.4033      2.00000
     32      -5.3894      2.00000
     33      -5.3469      2.00000
     34      -5.3424      2.00000
     35      -5.3286      2.00000
     36      -5.3188      2.00000
     37      -5.3019      2.00000
     38      -5.2482      2.00000
[...]
  0.000   0.000   0.000   0.000   0.000   0.000   0.000   0.000   0.000   0.000   0.000   0.000   0.000   0.000   0.000   0.000
  0.000   0.000   0.000   0.000   0.000   0.000   0.000   0.000   0.000   0.000   0.000   0.000   0.000   0.000   0.000   0.000
  0.000   0.000   0.000   0.000   0.000   0.000   0.000   0.000   0.000   0.000   1.000   0.000   0.000   0.000   0.000   0.000
  0.000   0.000   0.000   0.000   0.000   0.000   0.000   0.000   0.000   0.000   0.000   0.000   0.000   0.000   0.000   0.000
  0.000   0.000   0.000   0.000   0.000   0.000   0.000   0.000   0.000   0.000   0.000   0.000   0.000   0.000   0.000   0.000
  0.000   0.000   0.000   0.000   0.000   0.000   0.000   0.000   0.000   0.000   0.000   0.000   0.000   0.000   0.000   0.000
  0.000   0.000   0.000   0.000   0.000   0.000   0.000   0.000   0.000   0.000   0.000   0.000   0.000   0.000   0.000   0.000
  0.000   0.000   0.000   0.000   0.000   0.000   0.000   0.000   0.000   0.000   0.000   0.000   0.000   0.000   0.000   0.000
  0.000   0.000   0.000   0.000   0.000   0.000   0.000   0.000   0.000   0.000   0.000   0.000   0.000   0.000   0.000   0.000
  0.000   0.000   0.000   0.000   0.000   0.000   0.000   0.000   0.000   0.000   0.000   0.000   0.000   0.000   0.000   0.000


------------------------ aborting loop because EDIFF is reached ----------------------------------------





 total charge

# of ion       s       p       d       tot
------------------------------------------
    1        0.546   0.238   8.767   9.552
    2        0.543   0.241   8.764   9.548
    3        0.543   0.241   8.764   9.548
    4        0.544   0.241   8.764   9.549
    5        0.544   0.241   8.761   9.546
    6        0.544   0.241   8.764   9.549
    7        0.544   0.241   8.765   9.549
    8        0.544   0.241   8.765   9.549
    9        0.541   0.240   8.766   9.548
   10        0.522   0.307   8.770   9.599
   11        0.520   0.308   8.779   9.607
   12        0.522   0.307   8.770   9.599
   13        0.519   0.309   8.776   9.605
   14        0.519   0.309   8.776   9.605
   15        0.516   0.309   8.775   9.600
   16        0.522   0.309   8.766   9.597
   17        0.514   0.310   8.775   9.599
   18        0.514   0.310   8.775   9.599
   19        0.512   0.299   8.777   9.588
   20        0.550   0.332   8.751   9.633
   21        0.550   0.332   8.751   9.633
   22        0.510   0.311   8.772   9.594
   23        0.549   0.340   8.745   9.633
   24        0.510   0.311   8.772   9.594
   25        0.515   0.300   8.774   9.589
   26        0.515   0.300   8.774   9.589
   27        0.511   0.309   8.777   9.597
   28        0.540   0.221   8.769   9.530
   29        0.551   0.234   8.766   9.551
   30        0.551   0.234   8.766   9.551
   31        0.540   0.238   8.775   9.553
   32        0.540   0.238   8.775   9.553
   33        0.549   0.234   8.769   9.552
   34        0.549   0.234   8.769   9.552
   35        0.536   0.221   8.768   9.526
   36        0.284   0.335   5.102   5.721
   37        1.613   3.252   0.000   4.865
   38        1.613   3.252   0.000   4.865
--------------------------------------------------
tot         22.148  16.471 311.997 350.616
 
    CHARGE:  cpu time    0.8011: real time    0.8013
    FORLOC:  cpu time    0.0114: real time    0.0114
    FORNL :  cpu time    3.3308: real time    3.3310
    STRESS:  cpu time    9.9896: real time    9.9896
    FORCOR:  cpu time    0.0586: real time    0.0587
    FORHAR:  cpu time    0.0184: real time    0.0185
    OFIELD:  cpu time    0.0003: real time    0.0003

  FORCE on cell =-STRESS in cart. coord.  units (eV):
  Direction    XX          YY          ZZ          XY          YZ          ZX
  --------------------------------------------------------------------------------------
  Alpha Z   946.36620   946.36620   946.36620
  Ewald  152196.94851151789.47368************    -0.00030     0.40972    -0.00009
  Hartree160664.56440160465.08729************     0.00001     0.39030    -0.00002
  E(xc)   -1818.58490 -1819.59647 -1826.22262    -0.00000    -0.06540     0.00000
  Local  ************************324815.86317     0.00262    -1.25206    -0.00003
  n-local  -121.41538  -126.19644  -101.54856     4.50028     0.23879     0.14162
  augment  2405.56587  2410.45736  2422.34957    -0.00134     0.19996     0.00003
  Kinetic  5654.22226  5698.95509  5726.36941     1.14547     0.33940     0.11672
  Fock        0.00000     0.00000     0.00000     0.00000     0.00000     0.00000
  -------------------------------------------------------------------------------------
  Total     -15.95873   -18.17454     1.52871    -0.00000     0.26071     0.00000
  in kB     -15.63271   -17.80326     1.49748    -0.00000     0.25538     0.00000
  external pressure =      -10.65 kB  Pullay stress =        0.00 kB


 VOLUME and BASIS-vectors are now :
 -----------------------------------------------------------------------------
  energy-cutoff  :      500.00
  volume of cell :     1635.59
      direct lattice vectors                 reciprocal lattice vectors
     8.813512802  0.000000000  0.000000000     0.113462137 -0.065507406  0.000000000
     4.406756909  7.632725690  0.000000000     0.000000000  0.131014796  0.000000000
     0.000000000  0.000000000 24.313408842     0.000000000  0.000000000  0.041129568

  length of vectors
     8.813512802  8.813512802 24.313408842     0.131014796  0.131014796  0.041129568


 FORCES acting on ions
    electron-ion (+dipol)            ewald-force                    non-local-force                 convergence-correction
 -----------------------------------------------------------------------------------------------
   -.199E-04 0.307E-01 0.268E+04   0.519E-04 -.303E-01 -.268E+04   0.118E-08 0.177E-01 -.800E+00   -.296E-03 -.216E-01 -.313E+00
   0.650E+00 0.424E+00 0.268E+04   -.709E+00 -.490E+00 -.268E+04   0.192E-01 0.599E-01 -.278E+00   0.405E-01 0.169E-01 -.340E+00
   -.650E+00 0.424E+00 0.268E+04   0.709E+00 -.490E+00 -.268E+04   -.192E-01 0.599E-01 -.278E+00   -.402E-01 0.188E-01 -.339E+00
   0.610E+00 0.354E+00 0.268E+04   -.754E+00 -.383E+00 -.268E+04   0.960E-01 -.245E-01 -.294E+00   0.454E-01 0.440E-01 -.326E+00
   0.823E-05 -.640E-01 0.268E+04   0.951E-04 0.125E-02 -.268E+04   0.279E-08 0.420E-01 -.234E+00   0.432E-02 0.270E-01 -.293E+00
   -.610E+00 0.354E+00 0.268E+04   0.754E+00 -.383E+00 -.268E+04   -.960E-01 -.245E-01 -.294E+00   -.469E-01 0.449E-01 -.325E+00
   0.412E-01 -.774E+00 0.268E+04   -.432E-01 0.874E+00 -.268E+04   0.178E-01 -.508E-01 -.303E+00   -.497E-03 -.463E-01 -.343E+00
   -.413E-01 -.774E+00 0.268E+04   0.431E-01 0.874E+00 -.268E+04   -.178E-01 -.508E-01 -.303E+00   0.231E-02 -.474E-01 -.343E+00
   0.196E-04 0.129E-01 0.268E+04   0.166E-03 0.291E-01 -.268E+04   -.128E-08 -.192E-01 -.506E+00   -.456E-02 -.267E-01 -.313E+00
   0.553E+01 0.336E+01 0.937E+03   -.522E+01 -.325E+01 -.936E+03   -.307E+00 -.119E+00 -.604E+00   0.748E-02 0.259E-01 -.129E+00
   0.180E-04 0.670E+01 0.947E+03   0.147E-03 -.672E+01 -.947E+03   0.151E-08 0.227E-01 -.337E+00   0.436E-02 -.768E-01 -.181E+00
   -.553E+01 0.336E+01 0.937E+03   0.522E+01 -.325E+01 -.936E+03   0.307E+00 -.119E+00 -.604E+00   -.929E-02 0.272E-01 -.128E+00
   0.552E+01 -.336E+01 0.948E+03   -.559E+01 0.341E+01 -.947E+03   0.909E-01 -.514E-01 -.338E+00   -.652E-01 0.279E-01 -.243E+00
   -.552E+01 -.336E+01 0.948E+03   0.559E+01 0.341E+01 -.947E+03   -.909E-01 -.514E-01 -.338E+00   0.729E-01 0.267E-01 -.244E+00
   0.311E-04 0.341E+01 0.941E+03   0.236E-03 -.352E+01 -.940E+03   0.105E-08 0.158E-01 -.580E+00   -.249E-02 0.640E-01 -.121E+00
   -.219E-04 -.655E+01 0.937E+03   0.163E-03 0.608E+01 -.936E+03   0.276E-07 0.415E+00 -.718E+00   -.179E-03 0.198E-01 -.180E+00
   0.313E+01 -.181E+01 0.940E+03   -.318E+01 0.192E+01 -.940E+03   -.217E-01 -.467E-01 -.458E+00   0.398E-01 -.415E-01 -.124E+00
   -.313E+01 -.181E+01 0.940E+03   0.318E+01 0.192E+01 -.940E+03   0.217E-01 -.467E-01 -.458E+00   -.392E-01 -.392E-01 -.123E+00
   -.406E-04 0.414E+01 -.841E+03   0.534E-04 -.444E+01 0.840E+03   0.100E-07 0.151E+00 0.792E+00   -.460E-02 0.106E+00 0.204E+00
   0.296E+02 0.187E+02 -.783E+03   -.285E+02 -.181E+02 0.784E+03   -.105E+01 -.594E+00 -.905E+00   -.138E+00 -.135E+00 0.283E+00
   -.296E+02 0.187E+02 -.783E+03   0.285E+02 -.181E+02 0.784E+03   0.105E+01 -.594E+00 -.905E+00   0.140E+00 -.135E+00 0.283E+00
   0.866E+01 -.648E+01 -.823E+03   -.876E+01 0.664E+01 0.822E+03   0.309E+00 -.232E+00 0.653E+00   -.127E+00 0.460E-01 0.275E+00
   -.491E-05 -.365E+02 -.786E+03   0.142E-03 0.351E+02 0.786E+03   0.839E-07 0.126E+01 -.808E+00   0.405E-03 0.118E+00 0.349E+00
   -.866E+01 -.648E+01 -.823E+03   0.876E+01 0.664E+01 0.822E+03   -.309E+00 -.232E+00 0.653E+00   0.127E+00 0.442E-01 0.275E+00
   -.295E+01 -.946E+00 -.843E+03   0.310E+01 0.108E+01 0.842E+03   -.744E-01 -.768E-01 0.705E+00   -.901E-01 -.311E-01 0.273E+00
   0.295E+01 -.946E+00 -.843E+03   -.310E+01 0.108E+01 0.842E+03   0.744E-01 -.768E-01 0.705E+00   0.838E-01 -.324E-01 0.273E+00
   0.137E-04 0.968E+01 -.825E+03   0.195E-03 -.102E+02 0.824E+03   0.396E-07 0.595E+00 0.757E+00   0.105E-02 -.391E-01 0.307E+00
   -.162E-04 0.574E+01 -.259E+04   0.315E-04 -.563E+01 0.259E+04   -.285E-08 -.428E-01 0.486E+00   -.315E-03 -.819E-01 0.528E+00
   0.520E+02 0.104E+03 -.255E+04   -.516E+02 -.104E+03 0.255E+04   -.672E+00 -.550E+00 0.793E+00   0.454E-01 -.370E-01 0.538E+00
   -.520E+02 0.104E+03 -.255E+04   0.516E+02 -.104E+03 0.255E+04   0.672E+00 -.550E+00 0.793E+00   -.447E-01 -.358E-01 0.537E+00
   0.131E+03 0.137E+01 -.253E+04   -.131E+03 -.127E+01 0.253E+04   -.327E+00 -.929E-01 0.115E+01   0.200E+00 0.109E-01 0.481E+00
   -.131E+03 0.137E+01 -.253E+04   0.131E+03 -.127E+01 0.253E+04   0.327E+00 -.929E-01 0.115E+01   -.201E+00 0.112E-01 0.480E+00
   0.489E+02 -.105E+03 -.255E+04   -.486E+02 0.105E+03 0.255E+04   -.516E+00 0.573E+00 0.799E+00   -.520E-01 -.309E-02 0.502E+00
   -.489E+02 -.105E+03 -.255E+04   0.486E+02 0.105E+03 0.255E+04   0.516E+00 0.573E+00 0.799E+00   0.534E-01 -.384E-02 0.502E+00
   0.349E-04 -.569E+01 -.260E+04   0.139E-03 0.546E+01 0.260E+04   0.718E-08 0.108E+00 0.535E+00   -.422E-02 0.121E+00 0.400E+00
   -.246E-04 -.704E+00 -.129E+04   0.740E-04 0.613E+00 0.129E+04   0.126E-07 0.189E+00 0.187E+01   0.283E-02 -.354E-02 0.561E+00
   0.214E+03 -.476E-01 -.174E+04   -.250E+03 0.737E-01 0.176E+04   0.364E+02 -.123E-01 -.167E+02   -.405E-01 -.196E-01 0.443E+00
   -.214E+03 -.477E-01 -.174E+04   0.250E+03 0.737E-01 0.176E+04   -.364E+02 -.123E-01 -.167E+02   0.410E-01 -.195E-01 0.442E+00
 -----------------------------------------------------------------------------------------------
   -.470E-03 -.256E+00 0.278E+02   0.000E+00 0.227E-12 0.659E-11   0.215E-07 0.322E+00 -.311E+02   0.110E-02 -.771E-01 0.353E+01
 
 
 POSITION                                       TOTAL-FORCE (eV/Angst)
 -----------------------------------------------------------------------------------
      0.00000      0.00000      5.28038        -0.000000     -0.003111     -0.094276
      2.93784      0.00000      5.28038         0.000167      0.011220     -0.012754
      5.87568      0.00000      5.28038        -0.000167      0.011220     -0.012754
      1.46892      2.54424      5.28038        -0.001787     -0.009429     -0.023475
      4.40676      2.54424      5.28038         0.000000      0.006548     -0.058268
      7.34459      2.54424      5.28038         0.001787     -0.009429     -0.023475
      2.93784      5.08848      5.28038         0.014487      0.002499     -0.023625
      5.87568      5.08848      5.28038        -0.014487      0.002499     -0.023625
      8.81351      5.08848      5.28038        -0.000000     -0.003609     -0.046549
      1.46892      0.84808      7.67911         0.012261      0.015107      0.074183
      4.40676      0.84808      7.67911        -0.000000     -0.073169     -0.036211
      7.34459      0.84808      7.67911        -0.012261      0.015107      0.074183
      2.93784      3.39232      7.67911        -0.049816      0.021046     -0.004049
      5.87568      3.39232      7.67911         0.049816      0.021046     -0.004049
      8.81351      3.39232      7.67911        -0.000000     -0.035018      0.051966
      4.40676      5.93656      7.67911        -0.000000     -0.027449      0.108117
      7.34459      5.93656      7.67911        -0.030714      0.019858      0.050483
     10.28243      5.93656      7.67911         0.030714      0.019858      0.050483
      8.81351      1.69603     10.07479        -0.000000     -0.050042      0.030730
      2.95306      1.70495     10.04990        -0.070530     -0.044360     -0.074500
      5.86045      1.70495     10.04990         0.070530     -0.044360     -0.074500
     10.26640      4.24966     10.05812         0.080498     -0.024632      0.069673
      4.40676      4.22282     10.04990         0.000000      0.017107     -0.014407
      7.36062      4.24966     10.05812        -0.080498     -0.024632      0.069673
     11.75147      6.78471     10.07479        -0.011183      0.020915      0.048854
      5.87556      6.78471     10.07479         0.011183      0.020915      0.048854
      8.81351      6.76613     10.05812         0.000000      0.069879      0.076988
      0.00000      0.00000     12.48774        -0.000000     -0.016588     -0.066298
      2.98478      0.07843     12.47445        -0.195216     -0.452495     -0.277934
      5.82873      0.07843     12.47445         0.195216     -0.452495     -0.277934
      1.56032      2.54568     12.47445        -0.984349      0.017223     -0.561203
      7.25320      2.54568     12.47445         0.984349      0.017223     -0.561203
      2.98229      5.00861     12.47445        -0.221107      0.438770     -0.253130
      5.83122      5.00861     12.47445         0.221107      0.438770     -0.253130
      8.81351      5.08848     12.49541        -0.000000     -0.000328      0.002318
      4.40676      2.54424     12.16834         0.000000      0.095443      2.038915
      3.71374      2.54062     13.93027         0.144413     -0.005553     -0.009037
      5.09977      2.54062     13.93027        -0.144413     -0.005553     -0.009037
 -----------------------------------------------------------------------------------
    total drift:                                0.000626     -0.011011      0.183964


--------------------------------------------------------------------------------------------------------



  FREE ENERGIE OF THE ION-ELECTRON SYSTEM (eV)
  ---------------------------------------------------
  free  energy   TOTEN  =      -124.46492831 eV

  energy  without entropy=     -124.46492831  energy(sigma->0) =     -124.46492831
 


--------------------------------------------------------------------------------------------------------


    POTLOK:  cpu time    0.0463: real time    0.0463


--------------------------------------------------------------------------------------------------------


 stress matrix after NEB project (eV)
    -15.95873     -0.00000      0.00000
     -0.00000    -18.17454      0.26071
      0.00000      0.26071      1.52871
  FORCES: max atom, RMS     0.144802    0.033220
  FORCE total and by dimension    0.204781    0.144413
  Stress total and by dimension   24.237735   18.174540
     LOOP+:  cpu time  182.1033: real time  182.1136
 -----------------------------------------------------------------------------
|                                                                             |
|           W    W    AA    RRRRR   N    N  II  N    N   GGGG   !!!           |
|           W    W   A  A   R    R  NN   N  II  NN   N  G    G  !!!           |
|           W    W  A    A  R    R  N N  N  II  N N  N  G       !!!           |
|           W WW W  AAAAAA  RRRRR   N  N N  II  N  N N  G  GGG   !            |
|           WW  WW  A    A  R   R   N   NN  II  N   NN  G    G                |
|           W    W  A    A  R    R  N    N  II  N    N   GGGG   !!!           |
|                                                                             |
|     Tetrahedron method does not include variations of the Fermi             |
|     occupations, so forces and stress will be inaccurate. We suggest        |
|     using a different smearing scheme ISMEAR = 1 or 2 for metals in         |
|     relaxations.                                                            |
|                                                                             |
 -----------------------------------------------------------------------------

    4ORBIT:  cpu time    0.0000: real time    0.0000



 total charge

# of ion       s       p       d       tot
------------------------------------------
    1        0.546   0.238   8.767   9.552
    2        0.543   0.241   8.764   9.548
    3        0.543   0.241   8.764   9.548
    4        0.544   0.241   8.764   9.549
    5        0.544   0.241   8.761   9.546
    6        0.544   0.241   8.764   9.549
    7        0.544   0.241   8.765   9.549
    8        0.544   0.241   8.765   9.549
    9        0.541   0.240   8.766   9.548
   10        0.522   0.307   8.770   9.599
   11        0.520   0.308   8.779   9.607
   12        0.522   0.307   8.770   9.599
   13        0.519   0.309   8.776   9.605
   14        0.519   0.309   8.776   9.605
   15        0.516   0.309   8.775   9.600
   16        0.522   0.309   8.766   9.597
   17        0.514   0.310   8.775   9.599
   18        0.514   0.310   8.775   9.599
   19        0.512   0.299   8.777   9.588
   20        0.550   0.332   8.751   9.633
   21        0.550   0.332   8.751   9.633
   22        0.510   0.311   8.772   9.594
   23        0.549   0.340   8.745   9.633
   24        0.510   0.311   8.772   9.594
   25        0.515   0.300   8.774   9.589
   26        0.515   0.300   8.774   9.589
   27        0.511   0.309   8.777   9.597
   28        0.540   0.221   8.769   9.530
   29        0.551   0.234   8.766   9.551
   30        0.551   0.234   8.766   9.551
   31        0.540   0.238   8.775   9.553
   32        0.540   0.238   8.775   9.553
   33        0.549   0.234   8.769   9.552
   34        0.549   0.234   8.769   9.552
   35        0.536   0.221   8.768   9.526
   36        0.284   0.335   5.102   5.721
   37        1.613   3.252   0.000   4.865
   38        1.613   3.252   0.000   4.865
--------------------------------------------------
tot         22.148  16.471 311.997 350.616
 
 BZINTS: Fermi energy:    0.152255;  404.000000 electrons
         Band energy:-0.149907E+04;  BLOECHL correction:   -0.050900

 total amount of memory used by VASP MPI-rank0   196914. kBytes
=======================================================================

   base      :      30000. kBytes
   nonlr-proj:      13805. kBytes
   fftplans  :       4808. kBytes
   grid      :      19857. kBytes
   one-center:        590. kBytes
   wavefun   :     127854. kBytes
 
  
  
 General timing and accounting informations for this job:
 ========================================================
  
                  Total CPU time used (sec):      196.844
                            User time (sec):      190.364
                          System time (sec):        6.479
                         Elapsed time (sec):      197.295
  
                   Maximum memory used (kb):      478592.
                   Average memory used (kb):          N/A
  
                          Minor page faults:       101722
                          Major page faults:            0
                 Voluntary context switches:         6497
