 vasp.6.2.0 18Jan21 (build Jun 12 2021 23:27:24) complex                        
  
 executed on             LinuxIFC date 2022.05.27  05:29:05
 running on   28 total cores
 distrk:  each k-point on   28 cores,    1 groups
 distr:  one band on NCORE=   1 cores,   28 groups


--------------------------------------------------------------------------------------------------------


 INCAR:
   ISMEAR = -5
   SIGMA = 0.1
   ISPIN = 1
   EDIFF = 1.d-5
   EDIFFG = -0.01
   NSW = 0
   NELM = 150
   ENCUT = 500
   ISIF = 2
   IBRION = 2
   LREAL = Auto
   ALGO = Fast
   ICHARG = 11
   LORBIT = 10
   LCHARG = .F.
   LWAVE = .F.

 POTCAR:    PAW_PBE Ag 02Apr2005                  
 POTCAR:    PAW_PBE Mn 06Sep2000                  
 POTCAR:    PAW_PBE C 08Apr2002                   
 POTCAR:    PAW_PBE O 08Apr2002                   
 -----------------------------------------------------------------------------
|                                                                             |
|           W    W    AA    RRRRR   N    N  II  N    N   GGGG   !!!           |
|           W    W   A  A   R    R  NN   N  II  NN   N  G    G  !!!           |
|           W    W  A    A  R    R  N N  N  II  N N  N  G       !!!           |
|           W WW W  AAAAAA  RRRRR   N  N N  II  N  N N  G  GGG   !            |
|           WW  WW  A    A  R   R   N   NN  II  N   NN  G    G                |
|           W    W  A    A  R    R  N    N  II  N    N   GGGG   !!!           |
|                                                                             |
|     For optimal performance we recommend to set                             |
|       NCORE = 2 up to number-of-cores-per-socket                            |
|     NCORE specifies how many cores store one orbital (NPAR=cpu/NCORE).      |
|     This setting can greatly improve the performance of VASP for DFT.       |
|     The default, NCORE=1 might be grossly inefficient on modern             |
|     multi-core architectures or massively parallel machines. Do your        |
|     own testing! More info at https://www.vasp.at/wiki/index.php/NCORE      |
|     Unfortunately you need to use the default for GW and RPA                |
|     calculations (for HF NCORE is supported but not extensively tested      |
|     yet).                                                                   |
|                                                                             |
 -----------------------------------------------------------------------------

 POTCAR:    PAW_PBE Ag 02Apr2005                  
   VRHFIN =Ag : s1 d10                                                                              
   LEXCH  = PE                                                                                      
   EATOM  =  1037.2675 eV,   76.2370 Ry                                                             
                                                                                                    
   TITEL  = PAW_PBE Ag 02Apr2005                                                                    
   LULTRA =        F    use ultrasoft PP ?                                                          
   IUNSCR =        1    unscreen: 0-lin 1-nonlin 2-no                                               
   RPACOR =    2.000    partial core radius                                                         
   POMASS =  107.868; ZVAL   =   11.000    mass and valenz                                          
   RCORE  =    2.500    outmost cutoff radius                                                       
   RWIGS  =    2.840; RWIGS  =    1.503    wigner-seitz radius (au A)                               
   ENMAX  =  249.844; ENMIN  =  187.383 eV                                                          
   ICORE  =        3    local potential                                                             
   LCOR   =        T    correct aug charges                                                         
   LPAW   =        T    paw PP                                                                      
   EAUG   =  412.496                                                                                
   DEXC   =    0.000                                                                                
   RMAX   =    2.560    core radius for proj-oper                                                   
   RAUG   =    1.300    factor for augmentation sphere                                              
   RDEP   =    2.576    radius for radial grids                                                     
   RDEPT  =    2.072    core radius for aug-charge                                                  
                                                                                                    
   Atomic configuration                                                                             
   12 entries                                                                                       
     n  l   j            E        occ.                                                              
     1  0  0.50    -25324.9161   2.0000                                                             
     2  0  0.50     -3728.5341   2.0000                                                             
     2  1  1.50     -3344.0404   6.0000                                                             
     3  0  0.50      -683.5581   2.0000                                                             
     3  1  1.50      -557.3225   6.0000                                                             
     3  2  2.50      -358.3853  10.0000                                                             
     4  0  0.50       -95.0341   2.0000                                                             
     4  1  1.50       -58.5511   6.0000                                                             
     4  2  2.50        -7.4440  10.0000                                                             
     5  0  0.50        -4.4045   1.0000                                                             
     5  1  0.50        -1.3606   0.0000                                                             
     4  3  2.50        -1.3606   0.0000                                                             
   Description                                                                                      
     l       E           TYP  RCUT    TYP  RCUT                                                     
     2     -7.4439781     23  2.400                                                                 
     2     -8.8045607     23  2.400                                                                 
     0     -4.4044681     23  2.400                                                                 
     0      1.9520038     23  2.400                                                                 
     1     -1.3605826     23  2.500                                                                 
     1     27.2116520     23  2.500                                                                 
     3     -4.0817478     23  2.400                                                                 
  local pseudopotential read in
  partial core-charges read in
  partial kinetic energy density read in
  atomic valenz-charges read in
  non local Contribution for L=           2  read in
    real space projection operators read in
  non local Contribution for L=           2  read in
    real space projection operators read in
  non local Contribution for L=           0  read in
    real space projection operators read in
  non local Contribution for L=           0  read in
    real space projection operators read in
  non local Contribution for L=           1  read in
    real space projection operators read in
  non local Contribution for L=           1  read in
    real space projection operators read in
    PAW grid and wavefunctions read in
 
   number of l-projection  operators is LMAX  =           6
   number of lm-projection operators is LMMAX =          18
 
 POTCAR:    PAW_PBE Mn 06Sep2000                  
   VRHFIN =Mn: d6 s1                                                                                
   LEXCH  = PE                                                                                      
   EATOM  =   416.7541 eV,   30.6306 Ry                                                             
                                                                                                    
   TITEL  = PAW_PBE Mn 06Sep2000                                                                    
   LULTRA =        F    use ultrasoft PP ?                                                          
   IUNSCR =        1    unscreen: 0-lin 1-nonlin 2-no                                               
   RPACOR =    2.000    partial core radius                                                         
   POMASS =   54.938; ZVAL   =    7.000    mass and valenz                                          
   RCORE  =    2.300    outmost cutoff radius                                                       
   RWIGS  =    2.500; RWIGS  =    1.323    wigner-seitz radius (au A)                               
   ENMAX  =  269.864; ENMIN  =  202.398 eV                                                          
   RCLOC  =    1.725    cutoff for local pot                                                        
   LCOR   =        T    correct aug charges                                                         
   LPAW   =        T    paw PP                                                                      
   EAUG   =  500.711                                                                                
   DEXC   =    0.000                                                                                
   RMAX   =    2.343    core radius for proj-oper                                                   
   RAUG   =    1.300    factor for augmentation sphere                                              
   RDEP   =    2.338    radius for radial grids                                                     
   RDEPT  =    1.911    core radius for aug-charge                                                  
                                                                                                    
   Atomic configuration                                                                             
    9 entries                                                                                       
     n  l   j            E        occ.                                                              
     1  0  0.50     -6424.8288   2.0000                                                             
     2  0  0.50      -739.1154   2.0000                                                             
     2  1  1.50      -625.3949   6.0000                                                             
     3  0  0.50       -81.6100   2.0000                                                             
     3  1  1.50       -50.4667   6.0000                                                             
     3  2  2.50        -3.3745   6.0000                                                             
     4  0  0.50        -4.1331   1.0000                                                             
     4  1  0.50        -4.0817   0.0000                                                             
     4  3  2.50        -1.3606   0.0000                                                             
   Description                                                                                      
     l       E           TYP  RCUT    TYP  RCUT                                                     
     2     -3.3744664     23  2.300                                                                 
     2     -4.7350490     23  2.300                                                                 
     0     -4.1331408     23  2.300                                                                 
     0      7.6656614     23  2.300                                                                 
     1     -2.7211652     23  2.300                                                                 
     1     20.4087390     23  2.300                                                                 
  local pseudopotential read in
  partial core-charges read in
  partial kinetic energy density read in
  atomic valenz-charges read in
  non local Contribution for L=           2  read in
    real space projection operators read in
  non local Contribution for L=           2  read in
    real space projection operators read in
  non local Contribution for L=           0  read in
    real space projection operators read in
  non local Contribution for L=           0  read in
    real space projection operators read in
  non local Contribution for L=           1  read in
    real space projection operators read in
  non local Contribution for L=           1  read in
    real space projection operators read in
    PAW grid and wavefunctions read in
 
   number of l-projection  operators is LMAX  =           6
   number of lm-projection operators is LMMAX =          18
 
 POTCAR:    PAW_PBE C 08Apr2002                   
   VRHFIN =C: s2p2                                                                                  
   LEXCH  = PE                                                                                      
   EATOM  =   147.1560 eV,   10.8157 Ry                                                             
                                                                                                    
   TITEL  = PAW_PBE C 08Apr2002                                                                     
   LULTRA =        F    use ultrasoft PP ?                                                          
   IUNSCR =        1    unscreen: 0-lin 1-nonlin 2-no                                               
   RPACOR =    1.200    partial core radius                                                         
   POMASS =   12.011; ZVAL   =    4.000    mass and valenz                                          
   RCORE  =    1.500    outmost cutoff radius                                                       
   RWIGS  =    1.630; RWIGS  =    0.863    wigner-seitz radius (au A)                               
   ENMAX  =  400.000; ENMIN  =  300.000 eV                                                          
   ICORE  =        2    local potential                                                             
   LCOR   =        T    correct aug charges                                                         
   LPAW   =        T    paw PP                                                                      
   EAUG   =  644.873                                                                                
   DEXC   =    0.000                                                                                
   RMAX   =    1.529    core radius for proj-oper                                                   
   RAUG   =    1.300    factor for augmentation sphere                                              
   RDEP   =    1.501    radius for radial grids                                                     
   RDEPT  =    1.300    core radius for aug-charge                                                  
                                                                                                    
   Atomic configuration                                                                             
    4 entries                                                                                       
     n  l   j            E        occ.                                                              
     1  0  0.50      -273.3789   2.0000                                                             
     2  0  0.50       -13.7508   2.0000                                                             
     2  1  0.50        -5.2854   2.0000                                                             
     3  2  1.50        -5.4423   0.0000                                                             
   Description                                                                                      
     l       E           TYP  RCUT    TYP  RCUT                                                     
     0    -13.7508458     23  1.200                                                                 
     0     -8.2022199     23  1.200                                                                 
     1     -5.2854383     23  1.500                                                                 
     1     34.0145650     23  1.500                                                                 
     2     -5.4423304      7  1.500                                                                 
  local pseudopotential read in
  partial core-charges read in
  partial kinetic energy density read in
  atomic valenz-charges read in
  non local Contribution for L=           0  read in
    real space projection operators read in
  non local Contribution for L=           0  read in
    real space projection operators read in
  non local Contribution for L=           1  read in
    real space projection operators read in
  non local Contribution for L=           1  read in
    real space projection operators read in
    PAW grid and wavefunctions read in
 
   number of l-projection  operators is LMAX  =           4
   number of lm-projection operators is LMMAX =           8
 
 POTCAR:    PAW_PBE O 08Apr2002                   
   VRHFIN =O: s2p4                                                                                  
   LEXCH  = PE                                                                                      
   EATOM  =   432.3788 eV,   31.7789 Ry                                                             
                                                                                                    
   TITEL  = PAW_PBE O 08Apr2002                                                                     
   LULTRA =        F    use ultrasoft PP ?                                                          
   IUNSCR =        1    unscreen: 0-lin 1-nonlin 2-no                                               
   RPACOR =    1.200    partial core radius                                                         
   POMASS =   16.000; ZVAL   =    6.000    mass and valenz                                          
   RCORE  =    1.520    outmost cutoff radius                                                       
   RWIGS  =    1.550; RWIGS  =    0.820    wigner-seitz radius (au A)                               
   ENMAX  =  400.000; ENMIN  =  300.000 eV                                                          
   ICORE  =        2    local potential                                                             
   LCOR   =        T    correct aug charges                                                         
   LPAW   =        T    paw PP                                                                      
   EAUG   =  605.392                                                                                
   DEXC   =    0.000                                                                                
   RMAX   =    1.553    core radius for proj-oper                                                   
   RAUG   =    1.300    factor for augmentation sphere                                              
   RDEP   =    1.550    radius for radial grids                                                     
   RDEPT  =    1.329    core radius for aug-charge                                                  
                                                                                                    
   Atomic configuration                                                                             
    4 entries                                                                                       
     n  l   j            E        occ.                                                              
     1  0  0.50      -514.6923   2.0000                                                             
     2  0  0.50       -23.9615   2.0000                                                             
     2  1  0.50        -9.0305   4.0000                                                             
     3  2  1.50        -9.5241   0.0000                                                             
   Description                                                                                      
     l       E           TYP  RCUT    TYP  RCUT                                                     
     0    -23.9615318     23  1.200                                                                 
     0     -9.5240782     23  1.200                                                                 
     1     -9.0304911     23  1.520                                                                 
     1      8.1634956     23  1.520                                                                 
     2     -9.5240782      7  1.500                                                                 
  local pseudopotential read in
  partial core-charges read in
  partial kinetic energy density read in
  kinetic energy density of atom read in
  atomic valenz-charges read in
  non local Contribution for L=           0  read in
    real space projection operators read in
  non local Contribution for L=           0  read in
    real space projection operators read in
  non local Contribution for L=           1  read in
    real space projection operators read in
  non local Contribution for L=           1  read in
    real space projection operators read in
    PAW grid and wavefunctions read in
 
   number of l-projection  operators is LMAX  =           4
   number of lm-projection operators is LMMAX =           8
 
 Optimization of the real space projectors (new method)

 maximal supplied QI-value         = 15.12
 optimisation between [QCUT,QGAM] = [ 11.34, 22.83] = [ 36.00,145.93] Ry 
 Optimized for a Real-space Cutoff    1.43 Angstroem

   l    n(q)    QCUT    max X(q) W(low)/X(q) W(high)/X(q)  e(spline) 
   2      9    11.338    53.897    0.16E-03    0.20E-03    0.28E-06
   2      9    11.338    52.416    0.16E-03    0.20E-03    0.29E-06
   0     10    11.338   122.045    0.31E-04    0.76E-04    0.15E-06
   0     10    11.338    73.629    0.30E-04    0.72E-04    0.15E-06
   1      9    11.338    15.255    0.20E-03    0.19E-04    0.17E-06
   1      9    11.338     9.562    0.16E-03    0.15E-04    0.14E-06
 Optimization of the real space projectors (new method)

 maximal supplied QI-value         = 16.25
 optimisation between [QCUT,QGAM] = [ 11.38, 22.75] = [ 36.24,144.96] Ry 
 Optimized for a Real-space Cutoff    1.39 Angstroem

   l    n(q)    QCUT    max X(q) W(low)/X(q) W(high)/X(q)  e(spline) 
   2      8    11.376   110.144    0.49E-03    0.27E-04    0.26E-06
   2      8    11.376   103.200    0.49E-03    0.28E-04    0.27E-06
   0      9    11.376    68.437    0.57E-04    0.92E-04    0.15E-06
   0      9    11.376    33.971    0.51E-04    0.83E-04    0.14E-06
   1      9    11.376    17.065    0.34E-03    0.68E-04    0.14E-06
   1      9    11.376    12.540    0.27E-03    0.59E-04    0.11E-06
 Optimization of the real space projectors (new method)

 maximal supplied QI-value         = 25.13
 optimisation between [QCUT,QGAM] = [ 11.31, 22.87] = [ 35.82,146.48] Ry 
 Optimized for a Real-space Cutoff    1.00 Angstroem

   l    n(q)    QCUT    max X(q) W(low)/X(q) W(high)/X(q)  e(spline) 
   0      7    11.310   115.676    0.43E-03    0.13E-02    0.19E-06
   0      7    11.310    87.132    0.43E-03    0.13E-02    0.18E-06
   1      6    11.310     4.429    0.42E-03    0.74E-03    0.11E-06
   1      6    11.310     2.733    0.34E-03    0.55E-03    0.92E-07
 Optimization of the real space projectors (new method)

 maximal supplied QI-value         = 24.76
 optimisation between [QCUT,QGAM] = [ 11.39, 22.77] = [ 36.31,145.25] Ry 
 Optimized for a Real-space Cutoff    1.00 Angstroem

   l    n(q)    QCUT    max X(q) W(low)/X(q) W(high)/X(q)  e(spline) 
   0      7    11.387    20.381    0.39E-03    0.13E-02    0.15E-06
   0      7    11.387    15.268    0.42E-03    0.14E-02    0.17E-06
   1      6    11.387     5.964    0.41E-03    0.11E-02    0.17E-06
   1      6    11.387     5.382    0.39E-03    0.87E-03    0.15E-06
  PAW_PBE Ag 02Apr2005                  :
 energy of atom  1       EATOM=-1037.2675
 kinetic energy error for atom=    0.0052 (will be added to EATOM!!)
  PAW_PBE Mn 06Sep2000                  :
 energy of atom  2       EATOM= -416.7541
 kinetic energy error for atom=    0.0024 (will be added to EATOM!!)
  PAW_PBE C 08Apr2002                   :
 energy of atom  3       EATOM= -147.1560
 kinetic energy error for atom=    0.0076 (will be added to EATOM!!)
  PAW_PBE O 08Apr2002                   :
 energy of atom  4       EATOM= -432.3788
 kinetic energy error for atom=    0.0224 (will be added to EATOM!!)
 
 
 POSCAR: Ag-Mn-CO
  positions in direct lattice
  velocities in cartesian coordinates
 exchange correlation table for  LEXCH =        8
   RHO(1)=    0.500       N(1)  =     2000
   RHO(2)=  100.500       N(2)  =     4000

 VTST: version 3.2, (02/03/18)

 CHAIN: initializing optimizer
 
 OPT: Using VASP Conjugate-Gradient optimizer
 CHAIN: Read ICHAIN            0
 
 POSCAR: Ag-Mn-CO
  positions in direct lattice
  velocities in cartesian coordinates
 


--------------------------------------------------------------------------------------------------------


 ion  position               nearest neighbor table
   1  0.000  0.000  0.238-   2 2.93   8 2.93   7 2.93   6 2.93   4 2.93  12 2.93  16 2.93  10 2.93
                             3 2.93
   2  0.333  0.000  0.238-   1 2.93   8 2.93   9 2.93   3 2.93   4 2.93   5 2.93  10 2.93  17 2.93
                            11 2.93
   3  0.667  0.000  0.238-   9 2.93   2 2.93   5 2.93  11 2.93   7 2.93  18 2.93   1 2.93   6 2.93
                            12 2.93
   4  0.000  0.333  0.238-   5 2.93   6 2.93   2 2.93   1 2.93   7 2.93  13 2.93  15 2.93   9 2.93
                            10 2.93
   5  0.333  0.333  0.238-   4 2.93   3 2.93   7 2.93   2 2.93   8 2.93  14 2.93  13 2.93  11 2.93
                             6 2.93
   6  0.667  0.333  0.238-   4 2.93   9 2.93   1 2.93  15 2.93   8 2.93  12 2.93   3 2.93   5 2.93
                            14 2.93
   7  0.000  0.667  0.238-   8 2.93   1 2.93   5 2.93   3 2.93   4 2.93  16 2.93  18 2.93  13 2.93
                             9 2.93
   8  0.333  0.667  0.238-   7 2.93   1 2.93   2 2.93   9 2.93   5 2.93  16 2.93   6 2.93  17 2.93
                            14 2.93
   9  0.667  0.667  0.238-   3 2.93   2 2.93   8 2.93   6 2.93  17 2.93   4 2.93  15 2.93   7 2.93
                            18 2.93
  10  0.111  0.111  0.346-  20 2.92  19 2.93  26 2.93  12 2.93  16 2.93  15 2.93  17 2.93  13 2.93
                            11 2.93   2 2.93   1 2.93   4 2.93
  11  0.444  0.111  0.346-  21 2.90  20 2.90  27 2.92  14 2.93  17 2.93  18 2.93   3 2.93  12 2.93
                            13 2.93  10 2.93   5 2.93   2 2.93
  12  0.778  0.111  0.346-  21 2.92  25 2.93  19 2.93  10 2.93  16 2.93  18 2.93  15 2.93  11 2.93
                             1 2.93  14 2.93   6 2.93   3 2.93
  13  0.111  0.444  0.346-  20 2.90  23 2.90  22 2.92  15 2.93  14 2.93  18 2.93  10 2.93  11 2.93
                            16 2.93   4 2.93   5 2.93   7 2.93
  14  0.444  0.444  0.346-  23 2.90  21 2.90  24 2.92  13 2.93  11 2.93  16 2.93   5 2.93  12 2.93
                            17 2.93   8 2.93  15 2.93   6 2.93
  15  0.778  0.444  0.346-  24 2.92  22 2.92  19 2.92  13 2.93  10 2.93  12 2.93  17 2.93  18 2.93
                             4 2.93   6 2.93   9 2.93  14 2.93
  16  0.111  0.778  0.346-  23 2.92  26 2.93  25 2.93  18 2.93  12 2.93  10 2.93  14 2.93  17 2.93
                            13 2.93   7 2.93   8 2.93   1 2.93
  17  0.444  0.778  0.346-  27 2.92  24 2.92  26 2.92  11 2.93  10 2.93   9 2.93  18 2.93  15 2.93
                            16 2.93   2 2.93  14 2.93   8 2.93
  18  0.778  0.778  0.346-  22 2.92  27 2.92  25 2.92  16 2.93  12 2.93  13 2.93  11 2.93  17 2.93
                            15 2.93   7 2.93   3 2.93   9 2.93
  19  0.889  0.223  0.454-  28 2.91  15 2.92  10 2.93  12 2.93  24 2.93  22 2.93  26 2.94  25 2.94
                            20 2.94  21 2.94  32 2.95  31 2.95
  20  0.223  0.223  0.453-  36 2.71  31 2.90  29 2.90  13 2.90  11 2.90  21 2.91  23 2.91  10 2.92
                            27 2.93  22 2.93  19 2.94  26 2.94
  21  0.554  0.223  0.453-  36 2.71  30 2.90  32 2.90  11 2.90  14 2.90  20 2.91  23 2.91  12 2.92
                            27 2.93  24 2.93  25 2.94  19 2.94
  22  0.888  0.556  0.453-  35 2.91  18 2.92  15 2.92  13 2.92  24 2.93  27 2.93  33 2.93  31 2.93
                            25 2.93  19 2.93  23 2.93  20 2.93
  23  0.223  0.554  0.453-  36 2.71  34 2.90  33 2.90  14 2.90  13 2.90  21 2.91  20 2.91  16 2.92
                            22 2.93  24 2.93  26 2.94  25 2.94
  24  0.556  0.556  0.453-  35 2.91  15 2.92  17 2.92  14 2.92  27 2.93  22 2.93  32 2.93  34 2.93
                            19 2.93  26 2.93  23 2.93  21 2.93
  25  0.889  0.889  0.454-  28 2.91  18 2.92  16 2.93  12 2.93  22 2.93  27 2.93  26 2.94  19 2.94
                            23 2.94  21 2.94  33 2.95  30 2.95
  26  0.223  0.889  0.454-  28 2.91  17 2.92  16 2.93  10 2.93  27 2.93  24 2.93  25 2.94  19 2.94
                            23 2.94  20 2.94  34 2.95  29 2.95
  27  0.556  0.888  0.453-  35 2.91  17 2.92  18 2.92  11 2.92  24 2.93  22 2.93  29 2.93  30 2.93
                            26 2.93  25 2.93  20 2.93  21 2.93
  28  0.000  0.000  0.560-  26 2.91  25 2.91  19 2.91  29 2.97  34 2.97  33 2.97  32 2.97  31 2.97
                            30 2.97
  29  0.333  0.008  0.561-  31 2.86  30 2.86  36 2.87  20 2.90  27 2.93  26 2.95  28 2.97  35 2.97
                            34 3.07
  30  0.659  0.008  0.561-  32 2.86  29 2.86  36 2.87  21 2.90  27 2.93  25 2.95  28 2.97  35 2.97
                            33 3.07
  31  0.008  0.333  0.561-  29 2.86  33 2.86  36 2.87  20 2.90  22 2.93  19 2.95  28 2.97  35 2.97
                            32 3.07
  32  0.659  0.333  0.561-  30 2.86  34 2.86  36 2.87  21 2.90  24 2.93  19 2.95  28 2.97  35 2.97
                            31 3.07
  33  0.008  0.659  0.561-  34 2.86  31 2.86  36 2.87  23 2.90  22 2.93  25 2.95  28 2.97  35 2.97
                            30 3.07
  34  0.333  0.659  0.561-  33 2.86  32 2.86  36 2.87  23 2.90  24 2.93  26 2.95  28 2.97  35 2.97
                            29 3.07
  35  0.667  0.667  0.560-  24 2.91  27 2.91  22 2.91  32 2.97  30 2.97  29 2.97  34 2.97  31 2.97
                            33 2.97
  36  0.333  0.333  0.549-  37 1.78  21 2.71  20 2.71  23 2.71  31 2.87  30 2.87  33 2.87  29 2.87
                            34 2.87  32 2.87
  37  0.333  0.333  0.629-  38 1.18  36 1.78
  38  0.333  0.333  0.682-  37 1.18
 
  LATTYP: Found a hexagonal cell.
 ALAT       =     8.7913665772
 C/A-ratio  =     2.5227160501
  
  Lattice vectors:
  
 A1 = (  -4.3956832886,  -7.6135467898,   0.0000000000)
 A2 = (   8.7913665771,   0.0000000000,   0.0000000000)
 A3 = (   0.0000000000,   0.0000000000,  22.1781215668)


Analysis of symmetry for initial positions (statically):
=====================================================================
 Subroutine PRICEL returns:
 Original cell was already a primitive cell.
 

 Routine SETGRP: Setting up the symmetry group for a 
 hexagonal supercell.


 Subroutine GETGRP returns: Found  6 space group operations
 (whereof  6 operations were pure point group operations)
 out of a pool of 24 trial point group operations.


The static configuration has the point symmetry C_3v.


Analysis of symmetry for dynamics (positions and initial velocities):
=====================================================================
 Subroutine PRICEL returns:
 Original cell was already a primitive cell.
 

 Routine SETGRP: Setting up the symmetry group for a 
 hexagonal supercell.


 Subroutine GETGRP returns: Found  6 space group operations
 (whereof  6 operations were pure point group operations)
 out of a pool of 24 trial point group operations.


The dynamic configuration has the point symmetry C_3v.


Analysis of constrained symmetry for selective dynamics:
=====================================================================
 Subroutine PRICEL returns:
 Original cell was already a primitive cell.
 

 Routine SETGRP: Setting up the symmetry group for a 
 hexagonal supercell.


 Subroutine GETGRP returns: Found  6 space group operations
 (whereof  6 operations were pure point group operations)
 out of a pool of 24 trial point group operations.


The constrained configuration has the point symmetry C_3v.


 Subroutine INISYM returns: Found  6 space group operations
 (whereof  6 operations are pure point group operations),
 and found     1 'primitive' translations


----------------------------------------------------------------------------------------

                                     Primitive cell                                     

  volume of cell :    1484.4589

  direct lattice vectors                    reciprocal lattice vectors
     8.791366577  0.000000000  0.000000000     0.113747958 -0.065672414  0.000000000
     4.395683289  7.613546790  0.000000000     0.000000000  0.131344829  0.000000000
     0.000000000  0.000000000 22.178121567     0.000000000  0.000000000  0.045089481

  length of vectors
     8.791366577  8.791366577 22.178121567     0.131344829  0.131344829  0.045089481

  position of ions in fractional coordinates (direct lattice)
     0.000000000  0.000000000  0.238171124
     0.333333313  0.000000000  0.238171124
     0.666666627  0.000000000  0.238171124
     0.000000000  0.333333343  0.238171124
     0.333333313  0.333333343  0.238171124
     0.666666687  0.333333343  0.238171124
     0.000000000  0.666666687  0.238171124
     0.333333313  0.666666687  0.238171124
     0.666666627  0.666666687  0.238171124
     0.111111104  0.111111112  0.346057051
     0.444444448  0.111111112  0.346057051
     0.777777791  0.111111112  0.346057051
     0.111111097  0.444444448  0.346057051
     0.444444418  0.444444448  0.346057051
     0.777777791  0.444444448  0.346057051
     0.111111104  0.777777791  0.346057051
     0.444444448  0.777777791  0.346057051
     0.777777791  0.777777791  0.346057051
     0.888714883  0.222570249  0.453663014
     0.223066128  0.223066143  0.452714222
     0.553867683  0.223066143  0.452714222
     0.888483964  0.555758048  0.453313683
     0.223066143  0.553867743  0.452714222
     0.555758048  0.555758048  0.453313683
     0.888714883  0.888714883  0.453663014
     0.222570219  0.888714883  0.453663014
     0.555757988  0.888483964  0.453313683
     0.000000000  0.000000000  0.560253222
     0.333276683  0.007879607  0.560847750
     0.658843650  0.007879607  0.560847750
     0.007879607  0.333276713  0.560847750
     0.658843710  0.333276713  0.560847750
     0.007879607  0.658843710  0.560847750
     0.333276683  0.658843710  0.560847750
     0.666666627  0.666666687  0.560223949
     0.333333313  0.333333343  0.548724862
     0.333333313  0.333333343  0.628780020
     0.333333313  0.333333343  0.682010017

  ion indices of the primitive-cell ions
   primitive index   ion index
                 1           1
                 2           2
                 3           3
                 4           4
                 5           5
                 6           6
                 7           7
                 8           8
                 9           9
                10          10
                11          11
                12          12
                13          13
                14          14
                15          15
                16          16
                17          17
                18          18
                19          19
                20          20
                21          21
                22          22
                23          23
                24          24
                25          25
                26          26
                27          27
                28          28
                29          29
                30          30
                31          31
                32          32
                33          33
                34          34
                35          35
                36          36
                37          37
                38          38

----------------------------------------------------------------------------------------

 
 
 KPOINTS: Automatic mesh                          

Automatic generation of k-mesh.
 Grid dimensions read from file:
 generate k-points for:    8    8    1

 Generating k-lattice:

  Cartesian coordinates                     Fractional coordinates (reciprocal lattice)
     0.014218495 -0.008209052  0.000000000     0.125000000  0.000000000  0.000000000
     0.000000000  0.016418104  0.000000000     0.000000000  0.125000000  0.000000000
     0.000000000  0.000000000  0.045089481     0.000000000  0.000000000  1.000000000

  Length of vectors
     0.016418104  0.016418104  0.045089481

  Shift w.r.t. Gamma in fractional coordinates (k-lattice)
     0.000000000  0.000000000  0.000000000

 TETIRR: Found     36 inequivalent tetrahedra from      384
 
 Subroutine IBZKPT returns following result:
 ===========================================
 
 Found     10 irreducible k-points:
 
 Following reciprocal coordinates:
            Coordinates               Weight
  0.000000  0.000000  0.000000      1.000000
  0.125000 -0.000000  0.000000      6.000000
  0.250000 -0.000000  0.000000      6.000000
  0.375000 -0.000000  0.000000      6.000000
  0.500000 -0.000000  0.000000      3.000000
  0.250000  0.125000  0.000000      6.000000
  0.375000  0.125000  0.000000     12.000000
  0.500000  0.125000  0.000000     12.000000
  0.500000  0.250000  0.000000      6.000000
 -0.375000  0.250000  0.000000      6.000000
 
 Following cartesian coordinates:
            Coordinates               Weight
  0.000000  0.000000  0.000000      1.000000
  0.014218 -0.008209  0.000000      6.000000
  0.028437 -0.016418  0.000000      6.000000
  0.042655 -0.024627  0.000000      6.000000
  0.056874 -0.032836  0.000000      3.000000
  0.028437 -0.000000  0.000000      6.000000
  0.042655 -0.008209  0.000000     12.000000
  0.056874 -0.016418  0.000000     12.000000
  0.056874 -0.000000  0.000000      6.000000
 -0.042655  0.057463  0.000000      6.000000
 


--------------------------------------------------------------------------------------------------------




 Dimension of arrays:
   k-points           NKPTS =     10   k-points in BZ     NKDIM =     10   number of bands    NBANDS=    252
   number of dos      NEDOS =    301   number of ions     NIONS =     38
   non local maximal  LDIM  =      6   non local SUM 2l+1 LMDIM =     18
   total plane-waves  NPLWV = 290304
   max r-space proj   IRMAX =   2452   max aug-charges    IRDMAX=   9814
   dimension x,y,z NGX =    48 NGY =   48 NGZ =  126
   dimension x,y,z NGXF=    96 NGYF=   96 NGZF=  252
   support grid    NGXF=    96 NGYF=   96 NGZF=  252
   ions per type =              35   1   1   1
   NGX,Y,Z   is equivalent  to a cutoff of   9.08,  9.08,  9.44 a.u.
   NGXF,Y,Z  is equivalent  to a cutoff of  18.15, 18.15, 18.89 a.u.

 SYSTEM =  unknown system                          
 POSCAR =  Ag-Mn-CO                                

 Startparameter for this run:
   NWRITE =      2    write-flag & timer
   PREC   = normal    normal or accurate (medium, high low for compatibility)
   ISTART =      0    job   : 0-new  1-cont  2-samecut
   ICHARG =     11    charge: 1-file 2-atom 10-const
   ISPIN  =      1    spin polarized calculation?
   LNONCOLLINEAR =      F non collinear calculations
   LSORBIT =      F    spin-orbit coupling
   INIWAV =      1    electr: 0-lowe 1-rand  2-diag
   LASPH  =      F    aspherical Exc in radial PAW
   METAGGA=      F    non-selfconsistent MetaGGA calc.

 Electronic Relaxation 1
   ENCUT  =  500.0 eV  36.75 Ry    6.06 a.u.  16.03 16.03 40.44*2*pi/ulx,y,z
   ENINI  =  500.0     initial cutoff
   ENAUG  =  644.9 eV  augmentation charge cutoff
   NELM   =    150;   NELMIN=  2; NELMDL= -5     # of ELM steps 
   EDIFF  = 0.1E-04   stopping-criterion for ELM
   LREAL  =      T    real-space projection
   NLSPLINE    = F    spline interpolate recip. space projectors
   LCOMPAT=      F    compatible to vasp.4.4
   GGA_COMPAT  = T    GGA compatible to vasp.4.4-vasp.4.6
   LMAXPAW     = -100 max onsite density
   LMAXMIX     =    2 max onsite mixed and CHGCAR
   VOSKOWN=      0    Vosko Wilk Nusair interpolation
   ROPT   =   -0.00050  -0.00050  -0.00050  -0.00050
 Ionic relaxation
   EDIFFG = -.1E-01   stopping-criterion for IOM
   NSW    =      0    number of steps for IOM
   NBLOCK =      1;   KBLOCK =      1    inner block; outer block 
   IBRION =     -1    ionic relax: 0-MD 1-quasi-New 2-CG
   NFREE  =      1    steps in history (QN), initial steepest desc. (CG)
   ISIF   =      2    stress and relaxation
   IWAVPR =     10    prediction:  0-non 1-charg 2-wave 3-comb
   ISYM   =      2    0-nonsym 1-usesym 2-fastsym
   LCORR  =      T    Harris-Foulkes like correction to forces

   POTIM  = 0.5000    time-step for ionic-motion
   TEIN   =    0.0    initial temperature
   TEBEG  =    0.0;   TEEND  =   0.0 temperature during run
   SMASS  =  -3.00    Nose mass-parameter (am)
   estimated Nose-frequenzy (Omega)   =  0.10E-29 period in steps = 0.13E+47 mass=  -0.177E-26a.u.
   SCALEE = 1.0000    scale energy and forces
   NPACO  =    256;   APACO  = 16.0  distance and # of slots for P.C.
   PSTRESS=    0.0 pullay stress

  Mass of Ions in am
   POMASS = 107.87 54.94 12.01 16.00
  Ionic Valenz
   ZVAL   =  11.00  7.00  4.00  6.00
  Atomic Wigner-Seitz radii
   RWIGS  =  -1.00 -1.00 -1.00 -1.00
  virtual crystal weights 
   VCA    =   1.00  1.00  1.00  1.00
   NELECT =     402.0000    total number of electrons
   NUPDOWN=      -1.0000    fix difference up-down

 DOS related values:
   EMIN   =  10.00;   EMAX   =-10.00  energy-range for DOS
   EFERMI =   0.00
   ISMEAR =    -5;   SIGMA  =   0.10  broadening in eV -4-tet -1-fermi 0-gaus

 Electronic relaxation 2 (details)
   IALGO  =     68    algorithm
   LDIAG  =      T    sub-space diagonalisation (order eigenvalues)
   LSUBROT=      F    optimize rotation matrix (better conditioning)
   TURBO    =      0    0=normal 1=particle mesh
   IRESTART =      0    0=no restart 2=restart with 2 vectors
   NREBOOT  =      0    no. of reboots
   NMIN     =      0    reboot dimension
   EREF     =   0.00    reference energy to select bands
   IMIX   =      4    mixing-type and parameters
     AMIX     =   0.40;   BMIX     =  1.00
     AMIX_MAG =   1.60;   BMIX_MAG =  1.00
     AMIN     =   0.10
     WC   =   100.;   INIMIX=   1;  MIXPRE=   1;  MAXMIX= -45

 Intra band minimization:
   WEIMIN = 0.0000     energy-eigenvalue tresh-hold
   EBREAK =  0.99E-08  absolut break condition
   DEPER  =   0.30     relativ break condition  

   TIME   =   0.40     timestep for ELM

  volume/ion in A,a.u.               =      39.06       263.62
  Fermi-wavevector in a.u.,A,eV,Ry     =   1.059158  2.001519 15.263232  1.121816
  Thomas-Fermi vector in A             =   2.194493
 
 Write flags
   LWAVE        =      F    write WAVECAR
   LDOWNSAMPLE  =      F    k-point downsampling of WAVECAR
   LCHARG       =      F    write CHGCAR
   LVTOT        =      F    write LOCPOT, total local potential
   LVHAR        =      F    write LOCPOT, Hartree potential only
   LELF         =      F    write electronic localiz. function (ELF)
   LORBIT       =     10    0 simple, 1 ext, 2 COOP (PROOUT), +10 PAW based schemes


 Dipole corrections
   LMONO  =      F    monopole corrections only (constant potential shift)
   LDIPOL =      F    correct potential (dipole corrections)
   IDIPOL =      0    1-x, 2-y, 3-z, 4-all directions 
   EPSILON=  1.0000000 bulk dielectric constant

 Exchange correlation treatment:
   GGA     =    --    GGA type
   LEXCH   =     8    internal setting for exchange type
   VOSKOWN=      0    Vosko Wilk Nusair interpolation
   LHFCALC =     F    Hartree Fock is set to
   LHFONE  =     F    Hartree Fock one center treatment
   AEXX    =    0.0000 exact exchange contribution

 Linear response parameters
   LEPSILON=     F    determine dielectric tensor
   LRPA    =     F    only Hartree local field effects (RPA)
   LNABLA  =     F    use nabla operator in PAW spheres
   LVEL    =     F    velocity operator in full k-point grid
   LINTERFAST=   F  fast interpolation
   KINTER  =     0    interpolate to denser k-point grid
   CSHIFT  =0.1000    complex shift for real part using Kramers Kronig
   OMEGAMAX=  -1.0    maximum frequency
   DEG_THRESHOLD= 0.2000000E-02 threshold for treating states as degnerate
   RTIME   =   -0.100 relaxation time in fs
  (WPLASMAI=    0.000 imaginary part of plasma frequency in eV, 0.658/RTIME)
   DFIELD  = 0.0000000 0.0000000 0.0000000 field for delta impulse in time
 
 Orbital magnetization related:
   ORBITALMAG=     F  switch on orbital magnetization
   LCHIMAG   =     F  perturbation theory with respect to B field
   DQ        =  0.001000  dq finite difference perturbation B field
   LLRAUG    =     F  two centre corrections for induced B field



--------------------------------------------------------------------------------------------------------


 Static calculation
 charge density and potential remain constant during run
 non-spin polarized calculation
 RMM-DIIS sequential band-by-band and
  variant of blocked Davidson during initial phase
 perform sub-space diagonalisation
    before iterative eigenvector-optimisation
 no mixing
 using additional bands           51
 real space projection scheme for non local part
 use partial core corrections
 calculate Harris-corrections to forces 
   (improved forces if not selfconsistent)
 use gradient corrections 
 WARNING: stress and forces are not correct
  (second derivative of E(xc) not defined)
 use of overlap-Matrix (Vanderbilt PP)
 Fermi weights with tetrahedron method with Bloechl corrections


--------------------------------------------------------------------------------------------------------


  energy-cutoff  :      500.00
  volume of cell :     1484.46
      direct lattice vectors                 reciprocal lattice vectors
     8.791366577  0.000000000  0.000000000     0.113747958 -0.065672414  0.000000000
     4.395683289  7.613546790  0.000000000     0.000000000  0.131344829  0.000000000
     0.000000000  0.000000000 22.178121567     0.000000000  0.000000000  0.045089481

  length of vectors
     8.791366577  8.791366577 22.178121567     0.131344829  0.131344829  0.045089481


 
 k-points in units of 2pi/SCALE and weight: Automatic mesh                          
   0.00000000  0.00000000  0.00000000       0.016
   0.01421849 -0.00820905  0.00000000       0.094
   0.02843699 -0.01641810  0.00000000       0.094
   0.04265548 -0.02462716  0.00000000       0.094
   0.05687398 -0.03283621  0.00000000       0.047
   0.02843699 -0.00000000  0.00000000       0.094
   0.04265548 -0.00820905  0.00000000       0.188
   0.05687398 -0.01641810  0.00000000       0.188
   0.05687398 -0.00000000  0.00000000       0.094
  -0.04265548  0.05746336  0.00000000       0.094
 
 k-points in reciprocal lattice and weights: Automatic mesh                          
   0.00000000  0.00000000  0.00000000       0.016
   0.12500000 -0.00000000  0.00000000       0.094
   0.25000000 -0.00000000  0.00000000       0.094
   0.37500000 -0.00000000  0.00000000       0.094
   0.50000000 -0.00000000  0.00000000       0.047
   0.25000000  0.12500000  0.00000000       0.094
   0.37500000  0.12500000  0.00000000       0.188
   0.50000000  0.12500000  0.00000000       0.188
   0.50000000  0.25000000  0.00000000       0.094
  -0.37500000  0.25000000  0.00000000       0.094
 
 position of ions in fractional coordinates (direct lattice) 
   0.00000000  0.00000000  0.23817112
   0.33333331  0.00000000  0.23817112
   0.66666663  0.00000000  0.23817112
   0.00000000  0.33333334  0.23817112
   0.33333331  0.33333334  0.23817112
   0.66666669  0.33333334  0.23817112
   0.00000000  0.66666669  0.23817112
   0.33333331  0.66666669  0.23817112
   0.66666663  0.66666669  0.23817112
   0.11111110  0.11111111  0.34605705
   0.44444445  0.11111111  0.34605705
   0.77777779  0.11111111  0.34605705
   0.11111110  0.44444445  0.34605705
   0.44444442  0.44444445  0.34605705
   0.77777779  0.44444445  0.34605705
   0.11111110  0.77777779  0.34605705
   0.44444445  0.77777779  0.34605705
   0.77777779  0.77777779  0.34605705
   0.88871488  0.22257025  0.45366301
   0.22306613  0.22306614  0.45271422
   0.55386768  0.22306614  0.45271422
   0.88848396  0.55575805  0.45331368
   0.22306614  0.55386774  0.45271422
   0.55575805  0.55575805  0.45331368
   0.88871488  0.88871488  0.45366301
   0.22257022  0.88871488  0.45366301
   0.55575799  0.88848396  0.45331368
   0.00000000  0.00000000  0.56025322
   0.33327668  0.00787961  0.56084775
   0.65884365  0.00787961  0.56084775
   0.00787961  0.33327671  0.56084775
   0.65884371  0.33327671  0.56084775
   0.00787961  0.65884371  0.56084775
   0.33327668  0.65884371  0.56084775
   0.66666663  0.66666669  0.56022395
   0.33333331  0.33333334  0.54872486
   0.33333331  0.33333334  0.62878002
   0.33333331  0.33333334  0.68201002
 
 position of ions in cartesian coordinates  (Angst):
   0.00000000  0.00000000  5.28218814
   2.93045535  0.00000000  5.28218814
   5.86091070  0.00000000  5.28218814
   1.46522781  2.53784900  5.28218814
   4.39568315  2.53784900  5.28218814
   7.32613904  2.53784900  5.28218814
   2.93045562  5.07569801  5.28218814
   5.86091096  5.07569801  5.28218814
   8.79136632  5.07569801  5.28218814
   1.46522770  0.84594965  7.67489535
   4.39568332  0.84594965  7.67489535
   7.32613893  0.84594965  7.67489535
   2.93045542  3.38379860  7.67489535
   5.86091083  3.38379860  7.67489535
   8.79136671  3.38379860  7.67489535
   4.39568328  5.92164760  7.67489535
   7.32613890  5.92164760  7.67489535
  10.25659451  5.92164760  7.67489535
   8.79136665  1.69454901 10.06139347
   2.94158422  1.69832452 10.04035105
   5.84978196  1.69832452 10.04035105
  10.25392459  4.23128990 10.05364597
   4.39568342  4.21689798 10.04035105
   7.32880909  4.23128990 10.05364597
  11.71952748  6.76627235 10.06139347
   5.86320555  6.76627235 10.06139347
   8.79136631  6.76451423 10.05364597
   0.00000000  0.00000000 12.42536406
   2.96459375  0.05999176 12.43854957
   5.82677230  0.05999176 12.43854957
   1.53425139  2.53741785 12.43854957
   7.25711545  2.53741785 12.43854957
   2.96534080  5.01613741 12.43854957
   5.82602577  5.01613741 12.43854957
   8.79136632  5.07569801 12.42471485
   4.39568315  2.53784900 12.16968670
   4.39568315  2.53784900 13.94515973
   4.39568315  2.53784900 15.12570107
 


--------------------------------------------------------------------------------------------------------


 k-point   1 :   0.0000 0.0000 0.0000  plane waves:   37683
 k-point   2 :   0.1250-0.0000 0.0000  plane waves:   37658
 k-point   3 :   0.2500-0.0000 0.0000  plane waves:   37682
 k-point   4 :   0.3750-0.0000 0.0000  plane waves:   37686
 k-point   5 :   0.5000-0.0000 0.0000  plane waves:   37668
 k-point   6 :   0.2500 0.1250 0.0000  plane waves:   37666
 k-point   7 :   0.3750 0.1250 0.0000  plane waves:   37708
 k-point   8 :   0.5000 0.1250 0.0000  plane waves:   37726
 k-point   9 :   0.5000 0.2500 0.0000  plane waves:   37706
 k-point  10 :  -0.3750 0.2500 0.0000  plane waves:   37686

 maximum and minimum number of plane-waves per node :     37726    37658

 maximum number of plane-waves:     37726
 maximum index in each direction: 
   IXMAX=   16   IYMAX=   16   IZMAX=   40
   IXMIN=  -16   IYMIN=  -16   IZMIN=  -40


 serial   3D FFT for wavefunctions
 parallel 3D FFT for charge:
    minimum data exchange during FFTs selected (reduces bandwidth)


 total amount of memory used by VASP MPI-rank0   123795. kBytes
=======================================================================

   base      :      30000. kBytes
   nonlr-proj:      14897. kBytes
   fftplans  :       4330. kBytes
   grid      :      18659. kBytes
   one-center:        590. kBytes
   wavefun   :      55319. kBytes
 
     INWAV:  cpu time    0.0000: real time    0.0000
 initial charge density was supplied:
 number of electron     402.0000013 magnetization 
 keeping initial charge density in first step


--------------------------------------------------------------------------------------------------------


 Maximum index for non-local projection operator         2350
 Maximum index for augmentation-charges          703 (set IRDMAX)


--------------------------------------------------------------------------------------------------------


 First call to EWALD:  gamma=   0.155
 Maximum number of real-space cells 4x 4x 2
 Maximum number of reciprocal cells 2x 2x 5

    FEWALD:  cpu time    0.0013: real time    0.0013


--------------------------------------- Iteration      1(   1)  ---------------------------------------


    POTLOK:  cpu time    0.0438: real time    0.0442
    SETDIJ:  cpu time    0.0047: real time    0.0047
     EDDAV:  cpu time    7.1852: real time    7.1867
 BZINTS: Fermi energy:    9.969634;  402.000000 electrons
         Band energy: 0.123915E+04;  BLOECHL correction:   -0.022484
       DOS:  cpu time    0.0101: real time    0.0101
    --------------------------------------------
      LOOP:  cpu time    7.2437: real time    7.2459

 eigenvalue-minimisations  :  5040
 total energy-change (2. order) : 0.2507672E+04  (-0.1859258E+05)
 number of electron     402.0000013 magnetization 
 augmentation part      402.0000013 magnetization 

 Free energy of the ion-electron system (eV)
  ---------------------------------------------------
  alpha Z        PSCENC =       766.09543784
  Ewald energy   TEWEN  =     96425.80393877
  -Hartree energ DENC   =   -134411.90945900
  -exchange      EXHF   =         0.00000000
  -V(xc)+E(xc)   XCENC  =      -360.57472464
  PAW double counting   =     39659.76291471   -38111.09495044
  entropy T*S    EENTRO =         0.00000000
  eigenvalues    EBANDS =      1239.15175720
  atomic energy  EATOM  =     37300.43739133
  Solvation  Ediel_sol  =         0.00000000
  ---------------------------------------------------
  free energy    TOTEN  =      2507.67230578 eV

  energy without entropy =     2507.67230578  energy(sigma->0) =     2507.67230578


--------------------------------------------------------------------------------------------------------




--------------------------------------- Iteration      1(   2)  ---------------------------------------


     EDDAV:  cpu time    7.1696: real time    7.1698
 BZINTS: Fermi energy:    1.482658;  402.000000 electrons
         Band energy:-0.127002E+04;  BLOECHL correction:   -0.026349
       DOS:  cpu time    0.0103: real time    0.0103
    --------------------------------------------
      LOOP:  cpu time    7.1799: real time    7.1801

 eigenvalue-minimisations  :  5040
 total energy-change (2. order) :-0.2509167E+04  (-0.2401362E+04)
 number of electron     402.0000013 magnetization 
 augmentation part      402.0000013 magnetization 

 Free energy of the ion-electron system (eV)
  ---------------------------------------------------
  alpha Z        PSCENC =       766.09543784
  Ewald energy   TEWEN  =     96425.80393877
  -Hartree energ DENC   =   -134411.90945900
  -exchange      EXHF   =         0.00000000
  -V(xc)+E(xc)   XCENC  =      -360.57472464
  PAW double counting   =     39659.76291471   -38111.09495044
  entropy T*S    EENTRO =         0.00000000
  eigenvalues    EBANDS =     -1270.01555457
  atomic energy  EATOM  =     37300.43739133
  Solvation  Ediel_sol  =         0.00000000
  ---------------------------------------------------
  free energy    TOTEN  =        -1.49500598 eV

  energy without entropy =       -1.49500598  energy(sigma->0) =       -1.49500598


--------------------------------------------------------------------------------------------------------




--------------------------------------- Iteration      1(   3)  ---------------------------------------


     EDDAV:  cpu time    8.2535: real time    8.2539
 BZINTS: Fermi energy:    0.741647;  402.000000 electrons
         Band energy:-0.137769E+04;  BLOECHL correction:   -0.019405
       DOS:  cpu time    0.0102: real time    0.0101
    --------------------------------------------
      LOOP:  cpu time    8.2637: real time    8.2640

 eigenvalue-minimisations  :  5992
 total energy-change (2. order) :-0.1076749E+03  (-0.1046822E+03)
 number of electron     402.0000013 magnetization 
 augmentation part      402.0000013 magnetization 

 Free energy of the ion-electron system (eV)
  ---------------------------------------------------
  alpha Z        PSCENC =       766.09543784
  Ewald energy   TEWEN  =     96425.80393877
  -Hartree energ DENC   =   -134411.90945900
  -exchange      EXHF   =         0.00000000
  -V(xc)+E(xc)   XCENC  =      -360.57472464
  PAW double counting   =     39659.76291471   -38111.09495044
  entropy T*S    EENTRO =         0.00000000
  eigenvalues    EBANDS =     -1377.69044258
  atomic energy  EATOM  =     37300.43739133
  Solvation  Ediel_sol  =         0.00000000
  ---------------------------------------------------
  free energy    TOTEN  =      -109.16989400 eV

  energy without entropy =     -109.16989400  energy(sigma->0) =     -109.16989400


--------------------------------------------------------------------------------------------------------




--------------------------------------- Iteration      1(   4)  ---------------------------------------


     EDDAV:  cpu time    8.1547: real time    8.1549
 BZINTS: Fermi energy:    0.717894;  402.000000 electrons
         Band energy:-0.138045E+04;  BLOECHL correction:   -0.017530
       DOS:  cpu time    0.0104: real time    0.0104
    --------------------------------------------
      LOOP:  cpu time    8.1650: real time    8.1653

 eigenvalue-minimisations  :  5908
 total energy-change (2. order) :-0.2759670E+01  (-0.2727660E+01)
 number of electron     402.0000013 magnetization 
 augmentation part      402.0000013 magnetization 

 Free energy of the ion-electron system (eV)
  ---------------------------------------------------
  alpha Z        PSCENC =       766.09543784
  Ewald energy   TEWEN  =     96425.80393877
  -Hartree energ DENC   =   -134411.90945900
  -exchange      EXHF   =         0.00000000
  -V(xc)+E(xc)   XCENC  =      -360.57472464
  PAW double counting   =     39659.76291471   -38111.09495044
  entropy T*S    EENTRO =         0.00000000
  eigenvalues    EBANDS =     -1380.45011228
  atomic energy  EATOM  =     37300.43739133
  Solvation  Ediel_sol  =         0.00000000
  ---------------------------------------------------
  free energy    TOTEN  =      -111.92956370 eV

  energy without entropy =     -111.92956370  energy(sigma->0) =     -111.92956370


--------------------------------------------------------------------------------------------------------




--------------------------------------- Iteration      1(   5)  ---------------------------------------


     EDDAV:  cpu time    8.0794: real time    8.0797
 BZINTS: Fermi energy:    0.717619;  402.000000 electrons
         Band energy:-0.138051E+04;  BLOECHL correction:   -0.017520
       DOS:  cpu time    0.0094: real time    0.0094
    --------------------------------------------
      LOOP:  cpu time    8.0887: real time    8.0890

 eigenvalue-minimisations  :  5852
 total energy-change (2. order) :-0.6433870E-01  (-0.6432322E-01)
 number of electron     402.0000013 magnetization 
 augmentation part      402.0000013 magnetization 

 Free energy of the ion-electron system (eV)
  ---------------------------------------------------
  alpha Z        PSCENC =       766.09543784
  Ewald energy   TEWEN  =     96425.80393877
  -Hartree energ DENC   =   -134411.90945900
  -exchange      EXHF   =         0.00000000
  -V(xc)+E(xc)   XCENC  =      -360.57472464
  PAW double counting   =     39659.76291471   -38111.09495044
  entropy T*S    EENTRO =         0.00000000
  eigenvalues    EBANDS =     -1380.51445099
  atomic energy  EATOM  =     37300.43739133
  Solvation  Ediel_sol  =         0.00000000
  ---------------------------------------------------
  free energy    TOTEN  =      -111.99390240 eV

  energy without entropy =     -111.99390240  energy(sigma->0) =     -111.99390240


--------------------------------------------------------------------------------------------------------




--------------------------------------- Iteration      1(   6)  ---------------------------------------


    EDDIAG:  cpu time    1.4032: real time    1.4035
  RMM-DIIS:  cpu time    4.1542: real time    4.1542
    ORTHCH:  cpu time    0.2590: real time    0.2590
 BZINTS: Fermi energy:    0.717615;  402.000000 electrons
         Band energy:-0.138052E+04;  BLOECHL correction:   -0.017520
       DOS:  cpu time    0.0104: real time    0.0104
    --------------------------------------------
      LOOP:  cpu time    5.8268: real time    5.8271

 eigenvalue-minimisations  :  5231
 total energy-change (2. order) :-0.1580903E-02  (-0.1581026E-02)
 number of electron     402.0000013 magnetization 
 augmentation part      402.0000013 magnetization 

 Free energy of the ion-electron system (eV)
  ---------------------------------------------------
  alpha Z        PSCENC =       766.09543784
  Ewald energy   TEWEN  =     96425.80393877
  -Hartree energ DENC   =   -134411.90945900
  -exchange      EXHF   =         0.00000000
  -V(xc)+E(xc)   XCENC  =      -360.57472464
  PAW double counting   =     39659.76291471   -38111.09495044
  entropy T*S    EENTRO =         0.00000000
  eigenvalues    EBANDS =     -1380.51603189
  atomic energy  EATOM  =     37300.43739133
  Solvation  Ediel_sol  =         0.00000000
  ---------------------------------------------------
  free energy    TOTEN  =      -111.99548330 eV

  energy without entropy =     -111.99548330  energy(sigma->0) =     -111.99548330


--------------------------------------------------------------------------------------------------------




--------------------------------------- Iteration      1(   7)  ---------------------------------------


    EDDIAG:  cpu time    1.4042: real time    1.4043
  RMM-DIIS:  cpu time    6.0241: real time    6.0242
    ORTHCH:  cpu time    0.2590: real time    0.2591
 BZINTS: Fermi energy:    0.717612;  402.000000 electrons
         Band energy:-0.138052E+04;  BLOECHL correction:   -0.017520
       DOS:  cpu time    0.0095: real time    0.0095
    --------------------------------------------
      LOOP:  cpu time    7.6969: real time    7.6971

 eigenvalue-minimisations  :  7692
 total energy-change (2. order) :-0.8852155E-03  (-0.8575790E-03)
 number of electron     402.0000013 magnetization 
 augmentation part      402.0000013 magnetization 

 Free energy of the ion-electron system (eV)
  ---------------------------------------------------
  alpha Z        PSCENC =       766.09543784
  Ewald energy   TEWEN  =     96425.80393877
  -Hartree energ DENC   =   -134411.90945900
  -exchange      EXHF   =         0.00000000
  -V(xc)+E(xc)   XCENC  =      -360.57472464
  PAW double counting   =     39659.76291471   -38111.09495044
  entropy T*S    EENTRO =         0.00000000
  eigenvalues    EBANDS =     -1380.51691710
  atomic energy  EATOM  =     37300.43739133
  Solvation  Ediel_sol  =         0.00000000
  ---------------------------------------------------
  free energy    TOTEN  =      -111.99636852 eV

  energy without entropy =     -111.99636852  energy(sigma->0) =     -111.99636852


--------------------------------------------------------------------------------------------------------




--------------------------------------- Iteration      1(   8)  ---------------------------------------


    EDDIAG:  cpu time    1.4044: real time    1.4046
  RMM-DIIS:  cpu time    5.6787: real time    5.6787
    ORTHCH:  cpu time    0.2594: real time    0.2594
 BZINTS: Fermi energy:    0.717612;  402.000000 electrons
         Band energy:-0.138052E+04;  BLOECHL correction:   -0.017520
       DOS:  cpu time    0.0098: real time    0.0098
    --------------------------------------------
      LOOP:  cpu time    7.3522: real time    7.3524

 eigenvalue-minimisations  :  7245
 total energy-change (2. order) :-0.1167946E-03  (-0.1173998E-03)
 number of electron     402.0000013 magnetization 
 augmentation part      402.0000013 magnetization 

 Free energy of the ion-electron system (eV)
  ---------------------------------------------------
  alpha Z        PSCENC =       766.09543784
  Ewald energy   TEWEN  =     96425.80393877
  -Hartree energ DENC   =   -134411.90945900
  -exchange      EXHF   =         0.00000000
  -V(xc)+E(xc)   XCENC  =      -360.57472464
  PAW double counting   =     39659.76291471   -38111.09495044
  entropy T*S    EENTRO =         0.00000000
  eigenvalues    EBANDS =     -1380.51703390
  atomic energy  EATOM  =     37300.43739133
  Solvation  Ediel_sol  =         0.00000000
  ---------------------------------------------------
  free energy    TOTEN  =      -111.99648531 eV

  energy without entropy =     -111.99648531  energy(sigma->0) =     -111.99648531


--------------------------------------------------------------------------------------------------------




--------------------------------------- Iteration      1(   9)  ---------------------------------------


    EDDIAG:  cpu time    1.4061: real time    1.4091
  RMM-DIIS:  cpu time    4.8082: real time    4.8083
    ORTHCH:  cpu time    0.2594: real time    0.2594
 BZINTS: Fermi energy:    0.717612;  402.000000 electrons
         Band energy:-0.138052E+04;  BLOECHL correction:   -0.017520
       DOS:  cpu time    0.0100: real time    0.0100
    --------------------------------------------
      LOOP:  cpu time    6.4837: real time    6.4868

 eigenvalue-minimisations  :  5699
 total energy-change (2. order) :-0.1404292E-04  (-0.1447582E-04)
 number of electron     402.0000013 magnetization 
 augmentation part      402.0000013 magnetization 

 Free energy of the ion-electron system (eV)
  ---------------------------------------------------
  alpha Z        PSCENC =       766.09543784
  Ewald energy   TEWEN  =     96425.80393877
  -Hartree energ DENC   =   -134411.90945900
  -exchange      EXHF   =         0.00000000
  -V(xc)+E(xc)   XCENC  =      -360.57472464
  PAW double counting   =     39659.76291471   -38111.09495044
  entropy T*S    EENTRO =         0.00000000
  eigenvalues    EBANDS =     -1380.51704794
  atomic energy  EATOM  =     37300.43739133
  Solvation  Ediel_sol  =         0.00000000
  ---------------------------------------------------
  free energy    TOTEN  =      -111.99649936 eV

  energy without entropy =     -111.99649936  energy(sigma->0) =     -111.99649936


--------------------------------------------------------------------------------------------------------




--------------------------------------- Iteration      1(  10)  ---------------------------------------


    EDDIAG:  cpu time    1.4064: real time    1.4065
  RMM-DIIS:  cpu time    3.3414: real time    3.3414
    ORTHCH:  cpu time    0.2593: real time    0.2593
 BZINTS: Fermi energy:    0.717612;  402.000000 electrons
         Band energy:-0.138052E+04;  BLOECHL correction:   -0.017520
       DOS:  cpu time    0.0099: real time    0.0099
    --------------------------------------------
      LOOP:  cpu time    5.0170: real time    5.0172

 eigenvalue-minimisations  :  3603
 total energy-change (2. order) :-0.2501009E-05  (-0.2590344E-05)
 number of electron     402.0000013 magnetization 
 augmentation part      402.0000013 magnetization 

 Free energy of the ion-electron system (eV)
  ---------------------------------------------------
  alpha Z        PSCENC =       766.09543784
  Ewald energy   TEWEN  =     96425.80393877
  -Hartree energ DENC   =   -134411.90945900
  -exchange      EXHF   =         0.00000000
  -V(xc)+E(xc)   XCENC  =      -360.57472464
  PAW double counting   =     39659.76291471   -38111.09495044
  entropy T*S    EENTRO =         0.00000000
  eigenvalues    EBANDS =     -1380.51705044
  atomic energy  EATOM  =     37300.43739133
  Solvation  Ediel_sol  =         0.00000000
  ---------------------------------------------------
  free energy    TOTEN  =      -111.99650186 eV

  energy without entropy =     -111.99650186  energy(sigma->0) =     -111.99650186


--------------------------------------------------------------------------------------------------------




 average (electrostatic) potential at core
  the test charge radii are     1.1249  1.0210  0.6991  0.7215
  (the norm of the test charge is              1.0000)
       1 -78.1764       2 -78.1490       3 -78.1489       4 -78.1490       5 -78.1367
       6 -78.1487       7 -78.1489       8 -78.1487       9 -78.1713      10 -78.3981
      11 -78.3659      12 -78.3979      13 -78.3659      14 -78.3656      15 -78.3838
      16 -78.3979      17 -78.3838      18 -78.3838      19 -78.3720      20 -78.4490
      21 -78.4488      22 -78.3668      23 -78.4488      24 -78.3666      25 -78.3721
      26 -78.3720      27 -78.3668      28 -78.1374      29 -78.0811      30 -78.0811
      31 -78.0811      32 -78.0809      33 -78.0811      34 -78.0809      35 -78.1181
      36 -48.5093      37 -55.3014      38 -76.0253
 
 
 
 E-fermi :   0.7176     XC(G=0):  -6.0216     alpha+bet : -5.6438

 Fermi energy:         0.7176120477

 k-point     1 :       0.0000    0.0000    0.0000
  band No.  band energies     occupation 
      1     -21.7250      2.00000
      2      -7.7947      2.00000
      3      -6.3827      2.00000
      4      -5.5555      2.00000
      5      -5.3105      2.00000
      6      -5.1883      2.00000
      7      -5.1054      2.00000
      8      -5.1048      2.00000
      9      -5.1048      2.00000
     10      -5.1014      2.00000
     11      -5.1014      2.00000
     12      -5.0921      2.00000
     13      -5.0807      2.00000
     14      -5.0642      2.00000
     15      -5.0642      2.00000
     16      -5.0488      2.00000
     17      -5.0487      2.00000
     18      -5.0487      2.00000
     19      -4.9138      2.00000
     20      -4.8970      2.00000
     21      -4.8970      2.00000
     22      -4.8940      2.00000
     23      -4.8911      2.00000
     24      -4.8911      2.00000
     25      -4.8526      2.00000
     26      -4.8525      2.00000
     27      -4.8463      2.00000
     28      -4.6995      2.00000
     29      -4.6953      2.00000
     30      -4.6952      2.00000
     31      -4.6728      2.00000
     32      -4.6727      2.00000
     33      -4.6650      2.00000
     34      -4.6650      2.00000
     35      -4.6580      2.00000
     36      -4.6451      2.00000
     37      -4.6451      2.00000
     38      -4.6386      2.00000
     39      -4.6386      2.00000
     40      -4.5329      2.00000
     41      -4.5181      2.00000
     42      -4.5181      2.00000
     43      -4.3859      2.00000
     44      -4.3858      2.00000
     45      -4.3584      2.00000
     46      -4.3170      2.00000
     47      -4.3170      2.00000
     48      -4.3006      2.00000
     49      -4.3006      2.00000
     50      -4.2960      2.00000
     51      -4.2772      2.00000
     52      -4.2771      2.00000
     53      -4.2340      2.00000
     54      -4.2339      2.00000
     55      -4.2279      2.00000
     56      -4.1547      2.00000
     57      -4.1508      2.00000
     58      -4.1196      2.00000
     59      -4.1127      2.00000
     60      -3.9161      2.00000
     61      -3.9128      2.00000
     62      -3.9128      2.00000
     63      -3.9089      2.00000
     64      -3.9084      2.00000
     65      -3.9084      2.00000
     66      -3.8793      2.00000
     67      -3.8792      2.00000
     68      -3.8568      2.00000
     69      -3.8568      2.00000
     70      -3.8432      2.00000
     71      -3.7604      2.00000
     72      -3.7604      2.00000
     73      -3.7355      2.00000
     74      -3.7354      2.00000
     75      -3.7275      2.00000
     76      -3.7247      2.00000
     77      -3.7247      2.00000
     78      -3.7231      2.00000
     79      -3.7010      2.00000
     80      -3.7009      2.00000
     81      -3.6938      2.00000
     82      -3.6652      2.00000
     83      -3.6652      2.00000
     84      -3.6602      2.00000
     85      -3.6524      2.00000
     86      -3.6522      2.00000
     87      -3.6522      2.00000
     88      -3.6035      2.00000
     89      -3.6035      2.00000
     90      -3.5235      2.00000
     91      -3.5235      2.00000
     92      -3.5203      2.00000
     93      -3.4936      2.00000
     94      -3.4936      2.00000
     95      -3.4578      2.00000
     96      -3.4578      2.00000
     97      -3.4484      2.00000
     98      -3.4484      2.00000
     99      -3.4275      2.00000
    100      -3.4275      2.00000
    101      -3.4241      2.00000
    102      -3.3202      2.00000
    103      -3.3202      2.00000
    104      -3.2028      2.00000
    105      -3.2014      2.00000
    106      -3.2014      2.00000
    107      -3.1760      2.00000
    108      -3.1760      2.00000
    109      -3.1718      2.00000
    110      -3.1368      2.00000
    111      -3.1304      2.00000
    112      -3.1304      2.00000
    113      -3.1126      2.00000
    114      -3.1126      2.00000
    115      -3.0825      2.00000
    116      -3.0816      2.00000
    117      -2.9991      2.00000
    118      -2.9991      2.00000
    119      -2.9709      2.00000
    120      -2.9365      2.00000
    121      -2.9365      2.00000
    122      -2.9135      2.00000
    123      -2.9135      2.00000
    124      -2.8673      2.00000
    125      -2.8673      2.00000
    126      -2.8399      2.00000
    127      -2.8311      2.00000
    128      -2.8311      2.00000
    129      -2.8300      2.00000
    130      -2.8300      2.00000
    131      -2.8119      2.00000
    132      -2.8118      2.00000
    133      -2.8061      2.00000
    134      -2.7924      2.00000
    135      -2.7912      2.00000
    136      -2.7896      2.00000
    137      -2.7896      2.00000
    138      -2.6819      2.00000
    139      -2.6819      2.00000
    140      -2.6241      2.00000
    141      -2.6181      2.00000
    142      -2.6181      2.00000
    143      -2.6060      2.00000
    144      -2.6012      2.00000
    145      -2.6012      2.00000
    146      -2.5955      2.00000
    147      -2.5954      2.00000
    148      -2.5860      2.00000
    149      -2.5804      2.00000
    150      -2.5600      2.00000
    151      -2.5600      2.00000
    152      -2.5124      2.00000
    153      -2.5045      2.00000
    154      -2.5045      2.00000
    155      -2.5032      2.00000
    156      -2.4975      2.00000
    157      -2.4896      2.00000
    158      -2.4896      2.00000
    159      -2.4559      2.00000
    160      -2.4510      2.00000
    161      -2.4510      2.00000
    162      -2.4333      2.00000
    163      -2.4333      2.00000
    164      -2.4067      2.00000
    165      -2.4057      2.00000
    166      -2.4055      2.00000
    167      -2.4055      2.00000
    168      -2.4041      2.00000
    169      -2.3748      2.00000
    170      -2.3668      2.00000
    171      -2.3668      2.00000
    172      -2.3437      2.00000
    173      -2.3437      2.00000
    174      -2.3434      2.00000
    175      -2.3084      2.00000
    176      -2.3000      2.00000
    177      -2.3000      2.00000
    178      -2.2444      2.00000
    179      -2.2444      2.00000
    180      -2.2115      2.00000
    181      -2.2115      2.00000
    182      -2.1996      2.00000
    183      -2.1792      2.00000
    184      -2.1297      2.00000
    185      -2.1032      2.00000
    186      -2.1032      2.00000
    187      -2.0969      2.00000
    188      -2.0969      2.00000
    189      -2.0440      2.00000
    190      -1.3556      2.00000
    191      -1.3556      2.00000
    192      -1.3292      2.00000
    193      -1.3267      2.00000
    194      -1.3266      2.00000
    195      -1.0891      2.00000
    196      -0.0696      2.00000
    197       0.0100      2.00000
    198       0.0100      2.00000
    199       0.2127      2.00000
    200       0.3458      2.00000
    201       0.3458      2.00000
    202       0.4120      2.00000
    203       0.6113      2.00000
    204       0.6113      2.08283
    205       0.7775      0.00000
    206       0.7775      0.00000
    207       1.1354      0.00000
    208       1.9865      0.00000
    209       2.6225      0.00000
    210       2.6691      0.00000
    211       2.6691      0.00000
    212       2.7878      0.00000
    213       2.7878      0.00000
    214       3.9075      0.00000
    215       3.9075      0.00000
    216       4.0018      0.00000
    217       4.0132      0.00000
    218       4.1797      0.00000
    219       4.1797      0.00000
    220       4.2588      0.00000
    221       4.4955      0.00000
    222       4.4956      0.00000
    223       4.9799      0.00000
    224       4.9876      0.00000
    225       4.9876      0.00000
    226       4.9988      0.00000
    227       5.0222      0.00000
    228       5.0223      0.00000
    229       5.0601      0.00000
    230       5.0601      0.00000
    231       5.2439      0.00000
    232       5.2905      0.00000
    233       5.3005      0.00000
    234       5.5876      0.00000
    235       5.5876      0.00000
    236       5.9514      0.00000
[...]
  0.000   0.000   0.000   0.000   0.000   0.000   0.000   0.000   0.000   0.000   0.000   0.000   0.000   0.000   0.000   0.000
  0.000   0.000   0.000   0.000   0.000   0.000   0.000   0.000   0.000   0.000   0.000   0.000   0.000   0.000   0.000   0.000
  0.000   0.000   0.000   0.000   0.000   0.000   0.000   0.000   0.000   0.000   1.000   0.000   0.000   0.000   0.000   0.000
  0.000   0.000   0.000   0.000   0.000   0.000   0.000   0.000   0.000   0.000   0.000   0.000   0.000   0.000   0.000   0.000
  0.000   0.000   0.000   0.000   0.000   0.000   0.000   0.000   0.000   0.000   0.000   0.000   0.000   0.000   0.000   0.000
  0.000   0.000   0.000   0.000   0.000   0.000   0.000   0.000   0.000   0.000   0.000   0.000   0.000   0.000   0.000   0.000
  0.000   0.000   0.000   0.000   0.000   0.000   0.000   0.000   0.000   0.000   0.000   0.000   0.000   0.000   0.000   0.000
  0.000   0.000   0.000   0.000   0.000   0.000   0.000   0.000   0.000   0.000   0.000   0.000   0.000   0.000   0.000   0.000
  0.000   0.000   0.000   0.000   0.000   0.000   0.000   0.000   0.000   0.000   0.000   0.000   0.000   0.000   0.000   0.000
  0.000   0.000   0.000   0.000   0.000   0.000   0.000   0.000   0.000   0.000   0.000   0.000   0.000   0.000   0.000   0.000


------------------------ aborting loop because EDIFF is reached ----------------------------------------





 total charge

# of ion       s       p       d       tot
------------------------------------------
    1        0.418   0.202   9.179   9.799
    2        0.418   0.203   9.178   9.799
    3        0.418   0.203   9.178   9.799
    4        0.418   0.203   9.178   9.799
    5        0.418   0.203   9.175   9.796
    6        0.418   0.203   9.178   9.799
    7        0.418   0.203   9.178   9.799
    8        0.418   0.203   9.178   9.799
    9        0.415   0.202   9.180   9.797
   10        0.407   0.269   9.164   9.840
   11        0.410   0.267   9.168   9.845
   12        0.407   0.269   9.164   9.840
   13        0.410   0.267   9.168   9.845
   14        0.410   0.267   9.168   9.845
   15        0.403   0.270   9.165   9.839
   16        0.407   0.269   9.164   9.840
   17        0.403   0.270   9.165   9.839
   18        0.403   0.270   9.165   9.839
   19        0.401   0.265   9.167   9.833
   20        0.431   0.293   9.146   9.869
   21        0.431   0.293   9.146   9.869
   22        0.396   0.274   9.166   9.836
   23        0.431   0.293   9.146   9.869
   24        0.396   0.274   9.166   9.836
   25        0.401   0.265   9.167   9.833
   26        0.401   0.265   9.167   9.833
   27        0.396   0.274   9.166   9.836
   28        0.413   0.194   9.181   9.788
   29        0.419   0.206   9.172   9.797
   30        0.419   0.206   9.172   9.797
   31        0.419   0.206   9.172   9.797
   32        0.419   0.206   9.172   9.797
   33        0.419   0.206   9.172   9.797
   34        0.419   0.206   9.172   9.797
   35        0.408   0.196   9.180   9.784
   36        0.322   0.320   5.151   5.793
   37        0.960   1.550   0.000   2.510
   38        1.608   3.530   0.000   5.137
--------------------------------------------------
tot         17.323  13.772 326.070 357.165
 
    CHARGE:  cpu time    0.3321: real time    0.3322
    FORLOC:  cpu time    0.0110: real time    0.0110
    FORNL :  cpu time    1.4747: real time    1.4748
    STRESS:  cpu time    4.4091: real time    4.4093
    FORCOR:  cpu time    0.0488: real time    0.0489
    FORHAR:  cpu time    0.0176: real time    0.0176
    OFIELD:  cpu time    0.0002: real time    0.0002

  FORCE on cell =-STRESS in cart. coord.  units (eV):
  Direction    XX          YY          ZZ          XY          YZ          ZX
  --------------------------------------------------------------------------------------
  Alpha Z   766.09544   766.09544   766.09544
  Ewald  118958.95139118958.95143************     0.00004    -0.00000     0.00005
  Hartree129333.12362129333.12364************     0.00002    -0.00000     0.00002
  E(xc)   -2105.90730 -2105.90739 -2111.13203     0.00008    -0.00001    -0.00001
  Local  ************************259170.39718     0.00052    -0.00006    -0.00018
  n-local  -376.68379  -358.38121  -376.20387    10.37647    -0.52998     0.62279
  augment  3254.11989  3254.12001  3264.82598    -0.00010     0.00000     0.00005
  Kinetic  5028.39320  5034.60030  5033.73437     5.00954     0.77839    -0.11957
  Fock        0.00000     0.00000     0.00000     0.00000     0.00000     0.00000
  -------------------------------------------------------------------------------------
  Total     -10.65044   -10.65044    -1.02893    -0.00000     0.00000    -0.00000
  in kB     -11.49502   -11.49502    -1.11053    -0.00000     0.00000    -0.00000
  external pressure =       -8.03 kB  Pullay stress =        0.00 kB


 VOLUME and BASIS-vectors are now :
 -----------------------------------------------------------------------------
  energy-cutoff  :      500.00
  volume of cell :     1484.46
      direct lattice vectors                 reciprocal lattice vectors
     8.791366577  0.000000000  0.000000000     0.113747958 -0.065672414  0.000000000
     4.395683289  7.613546790  0.000000000     0.000000000  0.131344829  0.000000000
     0.000000000  0.000000000 22.178121567     0.000000000  0.000000000  0.045089481

  length of vectors
     8.791366577  8.791366577 22.178121567     0.131344829  0.131344829  0.045089481


 FORCES acting on ions
    electron-ion (+dipol)            ewald-force                    non-local-force                 convergence-correction
 -----------------------------------------------------------------------------------------------
   0.458E-04 -.283E-04 0.251E+04   -.954E-04 0.593E-04 -.251E+04   0.325E-18 -.236E-17 -.207E+01   -.105E-03 -.168E-03 0.176E+00
   0.210E+00 0.481E+00 0.251E+04   -.426E+00 -.404E+00 -.251E+04   0.803E-01 0.464E-01 -.155E+01   0.136E+00 -.104E+00 0.253E+00
   -.210E+00 0.481E+00 0.251E+04   0.426E+00 -.404E+00 -.251E+04   -.803E-01 0.464E-01 -.155E+01   -.137E+00 -.102E+00 0.254E+00
   0.522E+00 -.589E-01 0.251E+04   -.563E+00 -.167E+00 -.251E+04   0.804E-01 0.464E-01 -.155E+01   -.212E-01 0.170E+00 0.253E+00
   -.580E-05 -.188E-04 0.251E+04   0.981E-04 -.200E-05 -.251E+04   0.107E-17 -.158E-18 -.124E+01   0.624E-02 0.381E-02 0.399E+00
   -.522E+00 -.588E-01 0.251E+04   0.563E+00 -.167E+00 -.251E+04   -.804E-01 0.464E-01 -.155E+01   0.198E-01 0.171E+00 0.254E+00
   0.312E+00 -.423E+00 0.251E+04   -.137E+00 0.571E+00 -.251E+04   0.461E-04 -.928E-01 -.155E+01   -.156E+00 -.673E-01 0.254E+00
   -.312E+00 -.422E+00 0.251E+04   0.137E+00 0.570E+00 -.251E+04   -.461E-04 -.928E-01 -.155E+01   0.158E+00 -.683E-01 0.254E+00
   0.368E-04 -.128E-04 0.251E+04   0.792E-04 -.643E-04 -.251E+04   -.224E-18 -.862E-18 -.194E+01   -.666E-02 -.344E-02 0.123E+00
   0.377E+01 0.218E+01 0.863E+03   -.357E+01 -.206E+01 -.863E+03   -.306E+00 -.177E+00 -.738E+00   0.104E+00 0.602E-01 0.836E+00
   -.291E-04 0.422E+01 0.869E+03   0.415E-04 -.453E+01 -.870E+03   0.124E-11 0.189E+00 -.377E+00   0.629E-02 0.786E-01 0.832E+00
   -.377E+01 0.218E+01 0.863E+03   0.357E+01 -.206E+01 -.863E+03   0.306E+00 -.177E+00 -.738E+00   -.106E+00 0.613E-01 0.836E+00
   0.366E+01 -.211E+01 0.869E+03   -.392E+01 0.226E+01 -.870E+03   0.164E+00 -.945E-01 -.377E+00   0.711E-01 -.338E-01 0.832E+00
   -.366E+01 -.211E+01 0.869E+03   0.392E+01 0.226E+01 -.870E+03   -.164E+00 -.945E-01 -.377E+00   -.604E-01 -.347E-01 0.831E+00
   0.161E-04 0.992E+00 0.864E+03   -.108E-03 -.115E+01 -.864E+03   0.516E-12 0.786E-01 -.756E+00   -.163E-02 0.627E-01 0.799E+00
   -.777E-05 -.435E+01 0.863E+03   0.207E-04 0.412E+01 -.863E+03   0.232E-11 0.353E+00 -.738E+00   0.124E-03 -.122E+00 0.836E+00
   0.859E+00 -.496E+00 0.864E+03   -.998E+00 0.576E+00 -.864E+03   0.681E-01 -.393E-01 -.756E+00   0.534E-01 -.328E-01 0.799E+00
   -.860E+00 -.496E+00 0.864E+03   0.998E+00 0.576E+00 -.864E+03   -.681E-01 -.393E-01 -.756E+00   -.535E-01 -.309E-01 0.799E+00
   0.397E-04 0.470E+00 -.811E+03   -.128E-03 -.726E+00 0.809E+03   0.583E-12 0.887E-01 0.777E+00   -.164E-03 0.168E+00 0.105E+01
   0.134E+02 0.771E+01 -.784E+03   -.126E+02 -.728E+01 0.783E+03   -.123E+01 -.709E+00 -.972E+00   0.426E+00 0.246E+00 0.163E+01
   -.134E+02 0.771E+01 -.784E+03   0.126E+02 -.728E+01 0.783E+03   0.123E+01 -.709E+00 -.972E+00   -.426E+00 0.247E+00 0.163E+01
   0.504E+01 -.291E+01 -.800E+03   -.547E+01 0.316E+01 0.799E+03   0.248E+00 -.143E+00 0.450E+00   0.205E+00 -.118E+00 0.103E+01
   -.576E-04 -.154E+02 -.784E+03   0.429E-04 0.146E+02 0.783E+03   0.931E-11 0.142E+01 -.972E+00   0.796E-03 -.492E+00 0.163E+01
   -.504E+01 -.291E+01 -.800E+03   0.547E+01 0.316E+01 0.799E+03   -.248E+00 -.143E+00 0.450E+00   -.205E+00 -.118E+00 0.103E+01
   -.407E+00 -.235E+00 -.811E+03   0.629E+00 0.363E+00 0.809E+03   -.769E-01 -.444E-01 0.777E+00   -.145E+00 -.841E-01 0.105E+01
   0.407E+00 -.235E+00 -.811E+03   -.629E+00 0.363E+00 0.809E+03   0.769E-01 -.444E-01 0.777E+00   0.145E+00 -.844E-01 0.105E+01
   0.208E-04 0.582E+01 -.800E+03   0.110E-03 -.632E+01 0.799E+03   0.188E-11 0.287E+00 0.450E+00   -.238E-03 0.237E+00 0.103E+01
   0.545E-04 -.365E-04 -.245E+04   -.115E-03 0.779E-04 0.244E+04   -.496E-17 0.460E-18 0.209E+01   0.125E-02 0.585E-03 0.253E+00
   0.270E+02 0.456E+02 -.242E+04   -.268E+02 -.453E+02 0.242E+04   -.693E+00 -.107E+01 0.200E+01   0.430E+00 0.708E+00 0.172E+00
   -.270E+02 0.456E+02 -.242E+04   0.268E+02 -.453E+02 0.242E+04   0.693E+00 -.107E+01 0.200E+01   -.440E+00 0.709E+00 0.172E+00
   0.530E+02 0.599E+00 -.242E+04   -.526E+02 -.554E+00 0.242E+04   -.127E+01 -.649E-01 0.200E+01   0.828E+00 0.183E-01 0.172E+00
   -.530E+02 0.599E+00 -.242E+04   0.526E+02 -.554E+00 0.242E+04   0.127E+01 -.649E-01 0.200E+01   -.839E+00 0.192E-01 0.172E+00
   0.260E+02 -.462E+02 -.242E+04   -.258E+02 0.458E+02 0.242E+04   -.581E+00 0.114E+01 0.200E+01   0.395E+00 -.735E+00 0.172E+00
   -.260E+02 -.462E+02 -.242E+04   0.258E+02 0.458E+02 0.242E+04   0.581E+00 0.114E+01 0.200E+01   -.403E+00 -.736E+00 0.172E+00
   0.216E-04 -.124E-04 -.245E+04   0.106E-03 -.661E-04 0.244E+04   -.356E-17 0.430E-18 0.213E+01   -.537E-02 -.267E-02 0.223E+00
   -.303E-04 -.173E-04 -.133E+04   0.674E-04 0.931E-05 0.133E+04   -.182E-17 -.601E-18 -.252E+01   0.373E-02 0.225E-02 0.369E+00
   0.321E-05 -.766E-04 -.864E+03   0.194E-04 0.287E-06 0.848E+03   -.204E-18 -.252E-18 0.160E+02   0.140E-02 0.852E-03 -.618E+00
   0.233E-03 -.931E-04 -.154E+04   0.102E-04 0.236E-07 0.160E+04   0.370E-18 0.475E-18 -.569E+02   0.379E-02 0.232E-02 -.553E+00
 -----------------------------------------------------------------------------------------------
   0.577E-03 -.872E-03 0.251E+02   -.542E-13 0.306E-12 0.227E-11   -.449E-15 0.515E-19 -.465E+02   -.130E-01 -.411E-02 0.214E+02
 
 
 POSITION                                       TOTAL-FORCE (eV/Angst)
 -----------------------------------------------------------------------------------
      0.00000      0.00000      5.28219        -0.000000      0.000000     -0.022777
      2.93046      0.00000      5.28219         0.001840      0.021272      0.022356
      5.86091      0.00000      5.28219        -0.001840      0.021272      0.022356
      1.46523      2.53785      5.28219         0.019342     -0.009042      0.022356
      4.39568      2.53785      5.28219        -0.000000     -0.000000     -0.022590
      7.32614      2.53785      5.28219        -0.019342     -0.009042      0.022356
      2.93046      5.07570      5.28219         0.017502     -0.012230      0.022356
      5.86091      5.07570      5.28219        -0.017502     -0.012230      0.022356
      8.79137      5.07570      5.28219         0.000000      0.000000      0.013540
      1.46523      0.84595      7.67490         0.000861      0.000497     -0.003937
      4.39568      0.84595      7.67490        -0.000000     -0.040920     -0.040358
      7.32614      0.84595      7.67490        -0.000861      0.000497     -0.003937
      2.93046      3.38380      7.67490        -0.035438      0.020460     -0.040358
      5.86091      3.38380      7.67490         0.035438      0.020460     -0.040358
      8.79137      3.38380      7.67490        -0.000000     -0.018481      0.005057
      4.39568      5.92165      7.67490        -0.000000     -0.000994     -0.003937
      7.32614      5.92165      7.67490        -0.016005      0.009241      0.005057
     10.25659      5.92165      7.67490         0.016005      0.009241      0.005057
      8.79137      1.69455     10.06139         0.000000      0.000565      0.025724
      2.94158      1.69832     10.04035        -0.054802     -0.031640     -0.123059
      5.84978      1.69832     10.04035         0.054802     -0.031640     -0.123059
     10.25392      4.23129     10.05365         0.019159     -0.011062      0.002244
      4.39568      4.21690     10.04035         0.000000      0.063280     -0.123059
      7.32881      4.23129     10.05365        -0.019159     -0.011062      0.002244
     11.71953      6.76627     10.06139        -0.000489     -0.000282      0.025724
      5.86321      6.76627     10.06139         0.000489     -0.000282      0.025724
      8.79137      6.76451     10.05365         0.000000      0.022123      0.002244
      0.00000      0.00000     12.42536        -0.000000      0.000000     -0.025511
      2.96459      0.05999     12.43855        -0.010563     -0.020069     -0.018745
      5.82677      0.05999     12.43855         0.010563     -0.020069     -0.018745
      1.53425      2.53742     12.43855        -0.022661      0.000886     -0.018745
      7.25712      2.53742     12.43855         0.022661      0.000886     -0.018745
      2.96534      5.01614     12.43855        -0.012098      0.019182     -0.018745
      5.82603      5.01614     12.43855         0.012098      0.019182     -0.018745
      8.79137      5.07570     12.42471        -0.000000      0.000000     -0.023864
      4.39568      2.53785     12.16969         0.000000      0.000000      0.422254
      4.39568      2.53785     13.94516        -0.000000      0.000000      0.091147
      4.39568      2.53785     15.12570        -0.000000      0.000000     -0.050877
 -----------------------------------------------------------------------------------
    total drift:                               -0.012471     -0.004978      0.012526


--------------------------------------------------------------------------------------------------------



  FREE ENERGIE OF THE ION-ELECTRON SYSTEM (eV)
  ---------------------------------------------------
  free  energy   TOTEN  =      -111.99650186 eV

  energy  without entropy=     -111.99650186  energy(sigma->0) =     -111.99650186
 


--------------------------------------------------------------------------------------------------------


    POTLOK:  cpu time    0.0436: real time    0.0436


--------------------------------------------------------------------------------------------------------


 stress matrix after NEB project (eV)
    -10.65044     -0.00000     -0.00000
     -0.00000    -10.65044      0.00000
      0.00000      0.00000     -1.02893
  FORCES: max atom, RMS     0.091147    0.016934
  FORCE total and by dimension    0.104386    0.091147
  Stress total and by dimension   15.097094   10.650435
     LOOP+:  cpu time   77.7026: real time   77.7144
 -----------------------------------------------------------------------------
|                                                                             |
|           W    W    AA    RRRRR   N    N  II  N    N   GGGG   !!!           |
|           W    W   A  A   R    R  NN   N  II  NN   N  G    G  !!!           |
|           W    W  A    A  R    R  N N  N  II  N N  N  G       !!!           |
|           W WW W  AAAAAA  RRRRR   N  N N  II  N  N N  G  GGG   !            |
|           WW  WW  A    A  R   R   N   NN  II  N   NN  G    G                |
|           W    W  A    A  R    R  N    N  II  N    N   GGGG   !!!           |
|                                                                             |
|     Tetrahedron method does not include variations of the Fermi             |
|     occupations, so forces and stress will be inaccurate. We suggest        |
|     using a different smearing scheme ISMEAR = 1 or 2 for metals in         |
|     relaxations.                                                            |
|                                                                             |
 -----------------------------------------------------------------------------

    4ORBIT:  cpu time    0.0000: real time    0.0000



 total charge

# of ion       s       p       d       tot
------------------------------------------
    1        0.418   0.202   9.179   9.799
    2        0.418   0.203   9.178   9.799
    3        0.418   0.203   9.178   9.799
    4        0.418   0.203   9.178   9.799
    5        0.418   0.203   9.175   9.796
    6        0.418   0.203   9.178   9.799
    7        0.418   0.203   9.178   9.799
    8        0.418   0.203   9.178   9.799
    9        0.415   0.202   9.180   9.797
   10        0.407   0.269   9.164   9.840
   11        0.410   0.267   9.168   9.845
   12        0.407   0.269   9.164   9.840
   13        0.410   0.267   9.168   9.845
   14        0.410   0.267   9.168   9.845
   15        0.403   0.270   9.165   9.839
   16        0.407   0.269   9.164   9.840
   17        0.403   0.270   9.165   9.839
   18        0.403   0.270   9.165   9.839
   19        0.401   0.265   9.167   9.833
   20        0.431   0.293   9.146   9.869
   21        0.431   0.293   9.146   9.869
   22        0.396   0.274   9.166   9.836
   23        0.431   0.293   9.146   9.869
   24        0.396   0.274   9.166   9.836
   25        0.401   0.265   9.167   9.833
   26        0.401   0.265   9.167   9.833
   27        0.396   0.274   9.166   9.836
   28        0.413   0.194   9.181   9.788
   29        0.419   0.206   9.172   9.797
   30        0.419   0.206   9.172   9.797
   31        0.419   0.206   9.172   9.797
   32        0.419   0.206   9.172   9.797
   33        0.419   0.206   9.172   9.797
   34        0.419   0.206   9.172   9.797
   35        0.408   0.196   9.180   9.784
   36        0.322   0.320   5.151   5.793
   37        0.960   1.550   0.000   2.510
   38        1.608   3.530   0.000   5.137
--------------------------------------------------
tot         17.323  13.772 326.070 357.165
 
 BZINTS: Fermi energy:    0.717612;  402.000000 electrons
         Band energy:-0.138052E+04;  BLOECHL correction:   -0.017520

 total amount of memory used by VASP MPI-rank0   123795. kBytes
=======================================================================

   base      :      30000. kBytes
   nonlr-proj:      14897. kBytes
   fftplans  :       4330. kBytes
   grid      :      18659. kBytes
   one-center:        590. kBytes
   wavefun   :      55319. kBytes
 
  
  
 General timing and accounting informations for this job:
 ========================================================
  
                  Total CPU time used (sec):       85.069
                            User time (sec):       82.053
                          System time (sec):        3.016
                         Elapsed time (sec):       85.491
  
                   Maximum memory used (kb):      381448.
                   Average memory used (kb):          N/A
  
                          Minor page faults:        75078
                          Major page faults:            0
                 Voluntary context switches:         4936
