PROCAR new format
# of k-points:   10         # of bands:  252         # of ions:   38

 k-point     1 :    0.00000000 0.00000000 0.00000000     weight = 0.01562500

band     1 # energy  -21.72495864 # occ.  2.00000000
 
ion      s      p      d    tot
    1  0.000  0.000  0.000  0.000
    2  0.000  0.000  0.000  0.000
    3  0.000  0.000  0.000  0.000
    4  0.000  0.000  0.000  0.000
    5  0.000  0.000  0.000  0.000
    6  0.000  0.000  0.000  0.000
    7  0.000  0.000  0.000  0.000
    8  0.000  0.000  0.000  0.000
    9  0.000  0.000  0.000  0.000
   10  0.000  0.000  0.000  0.000
   11  0.000  0.000  0.000  0.000
   12  0.000  0.000  0.000  0.000
   13  0.000  0.000  0.000  0.000
   14  0.000  0.000  0.000  0.000
   15  0.000  0.000  0.000  0.000
   16  0.000  0.000  0.000  0.000
   17  0.000  0.000  0.000  0.000
   18  0.000  0.000  0.000  0.000
   19  0.000  0.000  0.000  0.000
   20  0.000  0.000  0.000  0.000
   21  0.000  0.000  0.000  0.000
   22  0.000  0.000  0.000  0.000
   23  0.000  0.000  0.000  0.000
   24  0.000  0.000  0.000  0.000
   25  0.000  0.000  0.000  0.000
   26  0.000  0.000  0.000  0.000
   27  0.000  0.000  0.000  0.000
   28  0.000  0.000  0.000  0.000
   29  0.000  0.000  0.000  0.000
   30  0.000  0.000  0.000  0.000
   31  0.000  0.000  0.000  0.000
   32  0.000  0.000  0.000  0.000
   33  0.000  0.000  0.000  0.000
   34  0.000  0.000  0.000  0.000
   35  0.000  0.000  0.000  0.000
   36  0.000  0.000  0.000  0.000
   37  0.153  0.109  0.000  0.262
   38  0.637  0.090  0.000  0.727
tot    0.790  0.199  0.000  0.989
 
band     2 # energy   -7.79469762 # occ.  2.00000000
 
ion      s      p      d    tot
    1  0.000  0.000  0.000  0.000
    2  0.000  0.000  0.000  0.000
    3  0.000  0.000  0.000  0.000
    4  0.000  0.000  0.000  0.000
    5  0.000  0.000  0.000  0.000
    6  0.000  0.000  0.000  0.000
    7  0.000  0.000  0.000  0.000
    8  0.000  0.000  0.000  0.000
    9  0.000  0.000  0.000  0.000
   10  0.000  0.000  0.000  0.000
   11  0.000  0.000  0.000  0.000
   12  0.000  0.000  0.000  0.000
   13  0.000  0.000  0.000  0.000
   14  0.000  0.000  0.000  0.000
   15  0.000  0.000  0.000  0.000
   16  0.000  0.000  0.000  0.000
   17  0.000  0.000  0.000  0.000
   18  0.000  0.000  0.000  0.000
   19  0.000  0.000  0.000  0.000
   20  0.001  0.000  0.001  0.002
   21  0.001  0.000  0.001  0.002
   22  0.000  0.000  0.000  0.000
   23  0.001  0.000  0.001  0.002
   24  0.000  0.000  0.000  0.000
   25  0.000  0.000  0.000  0.000
   26  0.000  0.000  0.000  0.000
   27  0.000  0.000  0.000  0.000
   28  0.000  0.000  0.000  0.000
   29  0.001  0.000  0.001  0.003
   30  0.001  0.000  0.001  0.003
   31  0.001  0.000  0.001  0.003
   32  0.001  0.000  0.001  0.003
   33  0.001  0.000  0.001  0.003
   34  0.001  0.000  0.001  0.003
   35  0.000  0.000  0.000  0.000
   36  0.041  0.020  0.038  0.099
   37  0.281  0.007  0.000  0.287
   38  0.136  0.198  0.000  0.334
tot    0.469  0.227  0.047  0.743
 
band     3 # energy   -6.38267197 # occ.  2.00000000
 
ion      s      p      d    tot
    1  0.006  0.001  0.000  0.007
    2  0.006  0.001  0.000  0.007
    3  0.006  0.001  0.000  0.007
    4  0.006  0.001  0.000  0.007
    5  0.006  0.001  0.000  0.007
    6  0.006  0.001  0.000  0.007
    7  0.006  0.001  0.000  0.007
    8  0.006  0.001  0.000  0.007
    9  0.006  0.001  0.000  0.007
   10  0.023  0.000  0.000  0.024
   11  0.024  0.000  0.000  0.024
   12  0.023  0.000  0.000  0.024
   13  0.024  0.000  0.000  0.024
   14  0.024  0.000  0.000  0.024
   15  0.023  0.000  0.000  0.023
   16  0.023  0.000  0.000  0.024
   17  0.023  0.000  0.000  0.023
   18  0.023  0.000  0.000  0.023
   19  0.022  0.000  0.000  0.022
   20  0.024  0.000  0.000  0.024
   21  0.024  0.000  0.000  0.024
   22  0.022  0.000  0.000  0.023
   23  0.024  0.000  0.000  0.024
   24  0.022  0.000  0.000  0.023
   25  0.022  0.000  0.000  0.022
   26  0.022  0.000  0.000  0.022
   27  0.022  0.000  0.000  0.023
   28  0.005  0.001  0.000  0.006
   29  0.005  0.001  0.000  0.005
   30  0.005  0.001  0.000  0.005
   31  0.005  0.001  0.000  0.005
   32  0.005  0.001  0.000  0.005
   33  0.005  0.001  0.000  0.005
   34  0.005  0.001  0.000  0.005
   35  0.005  0.001  0.000  0.006
   36  0.004  0.001  0.000  0.005
   37  0.002  0.002  0.000  0.004
   38  0.003  0.012  0.000  0.015
tot    0.516  0.027  0.007  0.549
 
band     4 # energy   -5.55547123 # occ.  2.00000000
 
ion      s      p      d    tot
    1  0.007  0.000  0.001  0.008
    2  0.008  0.000  0.000  0.009
    3  0.008  0.000  0.000  0.009
    4  0.008  0.000  0.000  0.009
    5  0.008  0.000  0.000  0.009
    6  0.008  0.000  0.000  0.009
    7  0.008  0.000  0.000  0.009
    8  0.008  0.000  0.000  0.009
    9  0.008  0.000  0.000  0.009
   10  0.010  0.001  0.013  0.024
   11  0.011  0.001  0.010  0.022
   12  0.010  0.001  0.013  0.024
   13  0.011  0.001  0.010  0.022
   14  0.011  0.001  0.010  0.022
   15  0.012  0.001  0.010  0.022
   16  0.010  0.001  0.013  0.024
   17  0.012  0.001  0.010  0.022
   18  0.012  0.001  0.010  0.022
   19  0.008  0.001  0.011  0.020
   20  0.012  0.001  0.014  0.028
   21  0.012  0.001  0.014  0.028
   22  0.007  0.001  0.010  0.018
   23  0.012  0.001  0.014  0.028
   24  0.007  0.001  0.010  0.018
   25  0.008  0.001  0.011  0.020
   26  0.008  0.001  0.011  0.020
   27  0.007  0.001  0.010  0.018
   28  0.006  0.000  0.000  0.007
   29  0.007  0.000  0.001  0.008
   30  0.007  0.000  0.001  0.008
   31  0.007  0.000  0.001  0.008
   32  0.007  0.000  0.001  0.008
   33  0.007  0.000  0.001  0.008
   34  0.007  0.000  0.001  0.008
   35  0.005  0.000  0.000  0.006
   36  0.020  0.000  0.006  0.026
   37  0.000  0.028  0.000  0.028
   38  0.007  0.059  0.000  0.066
tot    0.330  0.111  0.222  0.662
 
band     5 # energy   -5.31052395 # occ.  2.00000000
 
ion      s      p      d    tot
    1  0.000  0.000  0.006  0.006
    2  0.001  0.000  0.003  0.004
    3  0.001  0.000  0.003  0.004
    4  0.001  0.000  0.003  0.004
    5  0.002  0.000  0.002  0.004
    6  0.001  0.000  0.003  0.004
    7  0.001  0.000  0.003  0.004
    8  0.001  0.000  0.003  0.004
    9  0.002  0.000  0.002  0.005
   10  0.003  0.000  0.011  0.014
   11  0.001  0.000  0.018  0.019
   12  0.003  0.000  0.011  0.014
   13  0.001  0.000  0.018  0.019
   14  0.001  0.000  0.018  0.019
   15  0.000  0.000  0.015  0.015
   16  0.003  0.000  0.011  0.014
   17  0.000  0.000  0.015  0.015
   18  0.000  0.000  0.015  0.015
   19  0.004  0.000  0.022  0.026
   20  0.000  0.000  0.047  0.047
   21  0.000  0.000  0.047  0.047
   22  0.009  0.000  0.017  0.027
   23  0.000  0.000  0.047  0.047
   24  0.009  0.000  0.017  0.027
   25  0.004  0.000  0.022  0.026
   26  0.004  0.000  0.022  0.026
   27  0.009  0.000  0.017  0.027
   28  0.000  0.000  0.010  0.010
   29  0.002  0.000  0.011  0.013
   30  0.002  0.000  0.011  0.013
   31  0.002  0.000  0.011  0.013
   32  0.002  0.000  0.011  0.013
   33  0.002  0.000  0.011  0.013
   34  0.002  0.000  0.011  0.013
   35  0.000  0.000  0.008  0.008
   36  0.034  0.003  0.014  0.051
   37  0.001  0.064  0.000  0.065
   38  0.011  0.108  0.000  0.119
tot    0.123  0.180  0.514  0.817
 
band     6 # energy   -5.18834215 # occ.  2.00000000
 
ion      s      p      d    tot
    1  0.026  0.000  0.018  0.044
    2  0.015  0.000  0.026  0.042
    3  0.015  0.000  0.026  0.042
    4  0.015  0.000  0.026  0.042
    5  0.011  0.000  0.029  0.041
    6  0.015  0.000  0.026  0.042
    7  0.015  0.000  0.026  0.042
    8  0.015  0.000  0.026  0.042
    9  0.011  0.000  0.028  0.039
   10  0.000  0.000  0.031  0.032
   11  0.001  0.001  0.015  0.017
   12  0.000  0.000  0.031  0.032
   13  0.001  0.001  0.015  0.017
   14  0.001  0.001  0.015  0.017
   15  0.004  0.001  0.011  0.016
   16  0.000  0.000  0.031  0.032
   17  0.004  0.001  0.011  0.016
   18  0.004  0.001  0.011  0.016
   19  0.001  0.000  0.009  0.010
   20  0.000  0.000  0.020  0.021
   21  0.000  0.000  0.020  0.021
   22  0.006  0.000  0.001  0.008
   23  0.000  0.000  0.020  0.021
   24  0.006  0.000  0.001  0.008
   25  0.001  0.000  0.009  0.010
   26  0.001  0.000  0.009  0.010
   27  0.006  0.000  0.001  0.008
   28  0.003  0.000  0.000  0.003
   29  0.001  0.000  0.003  0.005
   30  0.001  0.000  0.003  0.005
   31  0.001  0.000  0.003  0.005
   32  0.001  0.000  0.003  0.005
   33  0.001  0.000  0.003  0.005
   34  0.001  0.000  0.003  0.005
   35  0.005  0.000  0.000  0.006
   36  0.005  0.000  0.007  0.013
   37  0.001  0.012  0.000  0.013
   38  0.002  0.017  0.000  0.019
tot    0.197  0.040  0.524  0.762
 
band     7 # energy   -5.10542897 # occ.  2.00000000
 
ion      s      p      d    tot
    1  0.000  0.000  0.000  0.000
    2  0.000  0.000  0.006  0.006
    3  0.000  0.000  0.006  0.006
    4  0.000  0.000  0.006  0.006
    5  0.003  0.001  0.004  0.009
    6  0.000  0.000  0.005  0.006
    7  0.000  0.000  0.006  0.006
    8  0.000  0.000  0.005  0.006
    9  0.002  0.000  0.004  0.007
   10  0.005  0.001  0.010  0.016
   11  0.015  0.001  0.032  0.048
   12  0.005  0.001  0.009  0.015
   13  0.015  0.001  0.032  0.048
   14  0.015  0.001  0.032  0.047
   15  0.002  0.000  0.060  0.062
   16  0.005  0.001  0.009  0.015
   17  0.002  0.000  0.060  0.062
   18  0.002  0.000  0.061  0.063
   19  0.009  0.000  0.038  0.047
   20  0.008  0.001  0.013  0.023
   21  0.008  0.001  0.013  0.023
   22  0.000  0.000  0.040  0.041
   23  0.008  0.001  0.013  0.023
   24  0.000  0.000  0.041  0.041
   25  0.009  0.000  0.038  0.047
   26  0.009  0.000  0.038  0.047
   27  0.000  0.000  0.040  0.041
   28  0.004  0.001  0.004  0.009
   29  0.000  0.000  0.004  0.004
   30  0.000  0.000  0.004  0.004
   31  0.000  0.000  0.004  0.004
   32  0.000  0.000  0.004  0.004
   33  0.000  0.000  0.004  0.004
   34  0.000  0.000  0.004  0.004
   35  0.001  0.000  0.004  0.005
   36  0.000  0.000  0.000  0.000
   37  0.000  0.000  0.000  0.000
   38  0.000  0.001  0.000  0.001
tot    0.130  0.018  0.652  0.800
 
band     8 # energy   -5.10476751 # occ.  2.00000000
 
ion      s      p      d    tot
    1  0.000  0.000  0.003  0.003
    2  0.001  0.000  0.004  0.006
    3  0.001  0.000  0.004  0.005
    4  0.001  0.000  0.004  0.006
    5  0.000  0.000  0.002  0.002
    6  0.000  0.000  0.002  0.002
    7  0.001  0.000  0.004  0.005
    8  0.000  0.000  0.002  0.002
    9  0.000  0.000  0.008  0.008
   10  0.008  0.000  0.035  0.043
   11  0.001  0.000  0.058  0.059
   12  0.002  0.001  0.019  0.022
   13  0.001  0.000  0.057  0.058
   14  0.004  0.000  0.015  0.020
   15  0.006  0.001  0.045  0.051
   16  0.002  0.001  0.019  0.022
   17  0.006  0.001  0.044  0.051
   18  0.024  0.001  0.012  0.036
   19  0.005  0.000  0.047  0.052
   20  0.003  0.000  0.021  0.024
   21  0.001  0.000  0.057  0.058
   22  0.002  0.001  0.019  0.023
   23  0.001  0.000  0.058  0.059
   24  0.009  0.000  0.031  0.041
   25  0.022  0.001  0.011  0.033
   26  0.005  0.000  0.046  0.052
   27  0.002  0.001  0.019  0.022
   28  0.000  0.000  0.007  0.007
   29  0.000  0.000  0.002  0.002
   30  0.000  0.000  0.003  0.004
   31  0.000  0.000  0.002  0.002
   32  0.001  0.000  0.004  0.005
   33  0.000  0.000  0.003  0.004
   34  0.001  0.000  0.004  0.005
   35  0.000  0.000  0.003  0.004
   36  0.000  0.000  0.001  0.001
   37  0.000  0.002  0.000  0.002
   38  0.000  0.004  0.000  0.004
tot    0.110  0.021  0.676  0.807
 
band     9 # energy   -5.10476014 # occ.  2.00000000
 
ion      s      p      d    tot
    1  0.000  0.000  0.003  0.003
    2  0.000  0.000  0.003  0.003
    3  0.000  0.000  0.003  0.004
    4  0.000  0.000  0.003  0.003
    5  0.000  0.000  0.002  0.002
    6  0.001  0.000  0.005  0.006
    7  0.000  0.000  0.003  0.004
    8  0.001  0.000  0.005  0.006
    9  0.000  0.000  0.008  0.008
   10  0.000  0.001  0.013  0.014
   11  0.003  0.000  0.029  0.032
   12  0.006  0.001  0.030  0.036
   13  0.003  0.000  0.029  0.033
   14  0.000  0.000  0.072  0.072
   15  0.018  0.001  0.023  0.041
   16  0.006  0.001  0.030  0.037
   17  0.017  0.001  0.023  0.041
   18  0.000  0.000  0.055  0.055
   19  0.016  0.001  0.023  0.040
   20  0.000  0.000  0.070  0.070
   21  0.002  0.000  0.033  0.036
   22  0.007  0.001  0.028  0.035
   23  0.002  0.000  0.033  0.035
   24  0.000  0.001  0.014  0.015
   25  0.000  0.000  0.058  0.058
   26  0.016  0.001  0.023  0.040
   27  0.007  0.001  0.028  0.035
   28  0.000  0.000  0.007  0.007
   29  0.001  0.000  0.004  0.005
   30  0.001  0.000  0.003  0.004
   31  0.001  0.000  0.004  0.005
   32  0.000  0.000  0.002  0.002
   33  0.001  0.000  0.003  0.004
   34  0.000  0.000  0.002  0.002
   35  0.000  0.000  0.003  0.004
   36  0.000  0.000  0.001  0.001
   37  0.000  0.002  0.000  0.002
   38  0.000  0.004  0.000  0.004
tot    0.110  0.021  0.676  0.807
 
band    10 # energy   -5.10141616 # occ.  2.00000000
 
ion      s      p      d    tot
    1  0.000  0.000  0.007  0.007
    2  0.002  0.001  0.005  0.008
    3  0.001  0.001  0.004  0.006
    4  0.002  0.000  0.005  0.008
    5  0.000  0.000  0.009  0.009
    6  0.000  0.000  0.003  0.003
    7  0.001  0.000  0.004  0.005
    8  0.000  0.000  0.003  0.003
    9  0.000  0.000  0.000  0.000
   10  0.000  0.000  0.085  0.085
   11  0.020  0.001  0.027  0.047
   12  0.012  0.001  0.026  0.038
   13  0.019  0.001  0.027  0.047
   14  0.000  0.001  0.035  0.036
   15  0.001  0.000  0.028  0.029
   16  0.012  0.001  0.023  0.036
   17  0.001  0.000  0.028  0.029
   18  0.000  0.001  0.022  0.024
   19  0.001  0.000  0.026  0.028
   20  0.000  0.001  0.046  0.047
   21  0.018  0.001  0.026  0.044
   22  0.009  0.001  0.024  0.034
   23  0.018  0.001  0.025  0.044
   24  0.000  0.000  0.073  0.073
   25  0.000  0.001  0.017  0.018
   26  0.001  0.000  0.026  0.028
   27  0.009  0.001  0.022  0.032
   28  0.000  0.000  0.000  0.000
   29  0.000  0.000  0.002  0.002
   30  0.001  0.000  0.002  0.003
   31  0.000  0.000  0.002  0.003
   32  0.001  0.000  0.005  0.007
   33  0.001  0.000  0.002  0.004
   34  0.001  0.000  0.005  0.007
   35  0.000  0.000  0.005  0.005
   36  0.000  0.000  0.001  0.001
   37  0.000  0.000  0.000  0.000
   38  0.000  0.000  0.000  0.000
tot    0.130  0.017  0.653  0.800
 
band    11 # energy   -5.10141283 # occ.  2.00000000
 
ion      s      p      d    tot
    1  0.000  0.000  0.007  0.007
    2  0.000  0.000  0.003  0.003
    3  0.001  0.000  0.004  0.005
    4  0.000  0.000  0.003  0.003
    5  0.000  0.000  0.009  0.009
    6  0.002  0.001  0.005  0.008
    7  0.001  0.000  0.004  0.005
    8  0.002  0.001  0.005  0.008
    9  0.000  0.000  0.000  0.000
   10  0.016  0.001  0.004  0.021
   11  0.006  0.001  0.032  0.039
   12  0.004  0.000  0.063  0.068
   13  0.007  0.001  0.032  0.040
   14  0.026  0.001  0.024  0.051
   15  0.000  0.001  0.024  0.026
   16  0.004  0.000  0.066  0.070
   17  0.000  0.001  0.025  0.026
   18  0.001  0.000  0.030  0.031
   19  0.000  0.001  0.020  0.021
   20  0.024  0.001  0.019  0.043
   21  0.006  0.001  0.039  0.046
   22  0.003  0.000  0.056  0.059
   23  0.006  0.001  0.040  0.046
   24  0.012  0.001  0.007  0.019
   25  0.002  0.000  0.030  0.031
   26  0.000  0.001  0.020  0.022
   27  0.003  0.000  0.058  0.061
   28  0.000  0.000  0.000  0.000
   29  0.001  0.000  0.004  0.006
   30  0.001  0.000  0.004  0.005
   31  0.001  0.000  0.004  0.006
   32  0.000  0.000  0.002  0.002
   33  0.001  0.000  0.004  0.005
   34  0.000  0.000  0.002  0.002
   35  0.000  0.000  0.005  0.005
   36  0.000  0.000  0.001  0.001
   37  0.000  0.000  0.000  0.000
   38  0.000  0.000  0.000  0.000
tot    0.130  0.017  0.653  0.800
 
band    12 # energy   -5.09209230 # occ.  2.00000000
 
ion      s      p      d    tot
    1  0.000  0.000  0.006  0.007
    2  0.001  0.000  0.006  0.007
    3  0.001  0.000  0.006  0.007
    4  0.001  0.000  0.006  0.007
    5  0.003  0.000  0.003  0.006
    6  0.001  0.000  0.006  0.007
    7  0.001  0.000  0.006  0.007
    8  0.001  0.000  0.006  0.007
    9  0.000  0.000  0.000  0.000
   10  0.002  0.001  0.026  0.028
   11  0.001  0.000  0.022  0.023
   12  0.002  0.001  0.026  0.028
   13  0.001  0.000  0.022  0.023
   14  0.001  0.000  0.022  0.023
   15  0.003  0.000  0.031  0.034
   16  0.002  0.001  0.026  0.028
   17  0.003  0.000  0.031  0.034
   18  0.003  0.000  0.031  0.034
   19  0.010  0.001  0.013  0.024
   20  0.001  0.001  0.051  0.053
   21  0.001  0.001  0.051  0.053
   22  0.005  0.000  0.063  0.068
   23  0.001  0.001  0.051  0.053
   24  0.005  0.000  0.063  0.068
   25  0.010  0.001  0.013  0.024
   26  0.010  0.001  0.013  0.024
   27  0.005  0.000  0.063  0.068
   28  0.000  0.001  0.006  0.007
   29  0.000  0.000  0.006  0.007
   30  0.000  0.000  0.006  0.007
   31  0.000  0.000  0.006  0.007
   32  0.000  0.000  0.006  0.007
   33  0.000  0.000  0.006  0.007
   34  0.000  0.000  0.006  0.007
   35  0.002  0.000  0.003  0.006
   36  0.004  0.001  0.000  0.005
   37  0.000  0.006  0.000  0.007
   38  0.001  0.010  0.000  0.011
tot    0.083  0.029  0.709  0.821
 
band    13 # energy   -5.08071610 # occ.  2.00000000
 
ion      s      p      d    tot
    1  0.000  0.001  0.022  0.023
    2  0.001  0.000  0.009  0.010
    3  0.001  0.000  0.009  0.010
    4  0.001  0.000  0.009  0.010
    5  0.000  0.000  0.001  0.002
    6  0.001  0.000  0.009  0.010
    7  0.001  0.000  0.009  0.010
    8  0.001  0.000  0.009  0.010
    9  0.008  0.001  0.000  0.009
   10  0.005  0.000  0.071  0.077
   11  0.001  0.000  0.055  0.056
   12  0.005  0.000  0.071  0.077
   13  0.001  0.000  0.055  0.056
   14  0.001  0.000  0.055  0.056
   15  0.006  0.001  0.004  0.010
   16  0.005  0.000  0.071  0.077
   17  0.006  0.001  0.004  0.010
   18  0.006  0.001  0.003  0.010
   19  0.000  0.000  0.016  0.016
   20  0.001  0.000  0.032  0.033
   21  0.001  0.000  0.032  0.033
   22  0.001  0.000  0.026  0.027
   23  0.001  0.000  0.032  0.033
   24  0.001  0.000  0.026  0.027
   25  0.000  0.000  0.016  0.016
   26  0.000  0.000  0.016  0.016
   27  0.001  0.000  0.026  0.027
   28  0.008  0.000  0.002  0.010
   29  0.001  0.000  0.009  0.010
   30  0.001  0.000  0.009  0.010
   31  0.001  0.000  0.009  0.010
   32  0.001  0.000  0.009  0.010
   33  0.001  0.000  0.009  0.010
   34  0.001  0.000  0.009  0.010
   35  0.000  0.000  0.011  0.011
   36  0.000  0.000  0.000  0.001
   37  0.000  0.000  0.000  0.000
   38  0.000  0.001  0.000  0.001
tot    0.071  0.009  0.757  0.837
 
band    14 # energy   -5.06422934 # occ.  2.00000000
 
ion      s      p      d    tot
    1  0.000  0.000  0.018  0.018
    2  0.003  0.000  0.006  0.009
    3  0.000  0.000  0.010  0.010
    4  0.003  0.000  0.006  0.009
    5  0.000  0.000  0.008  0.008
    6  0.002  0.001  0.007  0.010
    7  0.000  0.000  0.010  0.010
    8  0.002  0.001  0.007  0.010
    9  0.000  0.000  0.006  0.007
   10  0.000  0.000  0.053  0.053
   11  0.000  0.000  0.035  0.035
   12  0.006  0.000  0.036  0.042
   13  0.000  0.000  0.035  0.035
   14  0.000  0.000  0.017  0.017
   15  0.007  0.000  0.026  0.033
   16  0.006  0.000  0.036  0.042
   17  0.007  0.000  0.026  0.033
   18  0.000  0.000  0.086  0.086
   19  0.002  0.000  0.032  0.035
   20  0.000  0.000  0.071  0.071
   21  0.005  0.000  0.024  0.029
   22  0.001  0.000  0.028  0.028
   23  0.005  0.000  0.024  0.029
   24  0.000  0.000  0.020  0.020
   25  0.000  0.000  0.037  0.037
   26  0.002  0.000  0.032  0.035
   27  0.001  0.000  0.028  0.028
   28  0.000  0.000  0.012  0.012
   29  0.000  0.000  0.006  0.007
   30  0.003  0.000  0.003  0.006
   31  0.000  0.000  0.006  0.007
   32  0.001  0.000  0.005  0.007
   33  0.003  0.000  0.003  0.006
   34  0.001  0.000  0.005  0.007
   35  0.000  0.000  0.005  0.006
   36  0.000  0.000  0.000  0.001
   37  0.000  0.000  0.000  0.000
   38  0.000  0.001  0.000  0.001
tot    0.061  0.009  0.771  0.841
 
band    15 # energy   -5.06419930 # occ.  2.00000000
 
ion      s      p      d    tot
    1  0.000  0.000  0.018  0.018
    2  0.000  0.000  0.009  0.010
    3  0.003  0.001  0.005  0.009
    4  0.000  0.000  0.009  0.010
    5  0.000  0.000  0.008  0.008
    6  0.001  0.000  0.008  0.010
    7  0.003  0.001  0.005  0.009
    8  0.001  0.000  0.008  0.010
    9  0.000  0.000  0.006  0.007
   10  0.008  0.000  0.031  0.038
   11  0.000  0.000  0.023  0.023
   12  0.002  0.000  0.047  0.049
   13  0.000  0.000  0.023  0.023
   14  0.000  0.000  0.041  0.042
   15  0.002  0.000  0.066  0.068
   16  0.002  0.000  0.047  0.049
   17  0.002  0.000  0.066  0.068
   18  0.010  0.000  0.006  0.016
   19  0.001  0.000  0.036  0.036
   20  0.007  0.000  0.008  0.015
   21  0.002  0.000  0.056  0.057
   22  0.000  0.000  0.023  0.023
   23  0.002  0.000  0.055  0.057
   24  0.001  0.000  0.030  0.031
   25  0.003  0.000  0.030  0.034
   26  0.001  0.000  0.036  0.036
   27  0.000  0.000  0.023  0.023
   28  0.000  0.000  0.012  0.012
   29  0.003  0.000  0.003  0.006
   30  0.000  0.000  0.006  0.007
   31  0.003  0.000  0.003  0.006
   32  0.001  0.000  0.005  0.006
   33  0.000  0.000  0.006  0.007
   34  0.001  0.000  0.005  0.006
   35  0.000  0.000  0.005  0.005
   36  0.000  0.000  0.000  0.001
   37  0.000  0.000  0.000  0.000
   38  0.000  0.001  0.000  0.001
tot    0.061  0.009  0.771  0.841
 
band    16 # energy   -5.04884975 # occ.  2.00000000
 
ion      s      p      d    tot
    1  0.001  0.000  0.001  0.003
    2  0.001  0.000  0.013  0.014
    3  0.001  0.000  0.012  0.013
    4  0.001  0.000  0.013  0.014
    5  0.007  0.000  0.000  0.008
    6  0.001  0.000  0.012  0.014
    7  0.001  0.000  0.012  0.013
    8  0.001  0.000  0.012  0.014
    9  0.003  0.000  0.020  0.024
   10  0.004  0.000  0.016  0.021
   11  0.001  0.000  0.012  0.013
   12  0.005  0.000  0.015  0.020
   13  0.001  0.000  0.012  0.013
   14  0.000  0.000  0.013  0.014
   15  0.000  0.000  0.045  0.046
   16  0.005  0.000  0.015  0.019
   17  0.000  0.000  0.045  0.046
   18  0.000  0.000  0.046  0.046
   19  0.000  0.000  0.045  0.045
   20  0.007  0.000  0.029  0.037
   21  0.007  0.000  0.030  0.037
   22  0.002  0.000  0.020  0.022
   23  0.007  0.000  0.030  0.037
   24  0.002  0.000  0.020  0.022
   25  0.000  0.000  0.042  0.043
   26  0.000  0.000  0.045  0.045
   27  0.001  0.000  0.020  0.022
   28  0.002  0.000  0.000  0.002
   29  0.004  0.000  0.015  0.018
   30  0.003  0.000  0.014  0.018
   31  0.004  0.000  0.014  0.018
   32  0.004  0.000  0.014  0.018
   33  0.003  0.000  0.014  0.017
   34  0.004  0.000  0.014  0.017
   35  0.015  0.000  0.010  0.026
   36  0.001  0.002  0.000  0.003
   37  0.000  0.005  0.000  0.005
   38  0.001  0.008  0.000  0.009
tot    0.104  0.023  0.690  0.817
 
band    17 # energy   -5.04874608 # occ.  2.00000000
 
ion      s      p      d    tot
    1  0.000  0.000  0.005  0.006
    2  0.003  0.000  0.006  0.010
    3  0.000  0.000  0.011  0.011
    4  0.003  0.000  0.006  0.010
    5  0.000  0.000  0.012  0.013
    6  0.002  0.000  0.007  0.010
    7  0.000  0.000  0.011  0.011
    8  0.002  0.000  0.007  0.010
    9  0.000  0.000  0.019  0.019
   10  0.005  0.000  0.019  0.024
   11  0.002  0.000  0.051  0.053
   12  0.001  0.000  0.035  0.036
   13  0.002  0.000  0.050  0.052
   14  0.007  0.000  0.011  0.019
   15  0.000  0.000  0.026  0.026
   16  0.001  0.000  0.036  0.037
   17  0.000  0.000  0.026  0.027
   18  0.000  0.000  0.045  0.045
   19  0.001  0.000  0.056  0.058
   20  0.000  0.000  0.047  0.048
   21  0.000  0.000  0.021  0.021
   22  0.003  0.000  0.059  0.062
   23  0.000  0.000  0.020  0.020
   24  0.011  0.000  0.018  0.029
   25  0.006  0.000  0.012  0.018
   26  0.002  0.000  0.055  0.057
   27  0.003  0.000  0.060  0.063
   28  0.000  0.000  0.003  0.004
   29  0.000  0.000  0.006  0.006
   30  0.001  0.000  0.002  0.003
   31  0.000  0.000  0.006  0.006
   32  0.001  0.000  0.007  0.008
   33  0.001  0.000  0.002  0.003
   34  0.001  0.001  0.007  0.008
   35  0.000  0.000  0.008  0.008
   36  0.000  0.000  0.001  0.001
   37  0.000  0.000  0.000  0.000
   38  0.000  0.000  0.000  0.000
tot    0.061  0.008  0.773  0.843
 
band    18 # energy   -5.04871771 # occ.  2.00000000
 
ion      s      p      d    tot
    1  0.000  0.000  0.005  0.006
    2  0.000  0.000  0.010  0.010
    3  0.003  0.001  0.006  0.010
    4  0.000  0.000  0.010  0.010
    5  0.000  0.000  0.012  0.013
    6  0.002  0.000  0.009  0.011
    7  0.003  0.001  0.006  0.010
    8  0.002  0.000  0.009  0.011
    9  0.000  0.000  0.019  0.019
   10  0.000  0.000  0.040  0.040
   11  0.005  0.000  0.024  0.030
   12  0.004  0.000  0.025  0.029
   13  0.005  0.000  0.025  0.031
   14  0.000  0.000  0.063  0.064
   15  0.000  0.000  0.039  0.039
   16  0.004  0.000  0.025  0.028
   17  0.000  0.000  0.038  0.039
   18  0.000  0.000  0.020  0.020
   19  0.005  0.000  0.025  0.030
   20  0.000  0.000  0.012  0.012
   21  0.000  0.000  0.038  0.038
   22  0.008  0.000  0.032  0.041
   23  0.001  0.000  0.038  0.039
   24  0.000  0.000  0.074  0.074
   25  0.000  0.000  0.072  0.072
   26  0.004  0.000  0.027  0.031
   27  0.009  0.000  0.031  0.040
   28  0.000  0.000  0.003  0.004
   29  0.002  0.000  0.003  0.005
   30  0.000  0.000  0.008  0.009
   31  0.002  0.000  0.003  0.005
   32  0.001  0.000  0.003  0.004
   33  0.000  0.000  0.008  0.009
   34  0.001  0.000  0.003  0.004
   35  0.000  0.000  0.008  0.008
   36  0.000  0.000  0.001  0.001
   37  0.000  0.000  0.000  0.000
   38  0.000  0.000  0.000  0.000
tot    0.061  0.008  0.774  0.843
 
band    19 # energy   -4.91375058 # occ.  2.00000000
 
ion      s      p      d    tot
    1  0.000  0.000  0.000  0.000
    2  0.000  0.000  0.007  0.007
    3  0.000  0.000  0.007  0.007
    4  0.000  0.000  0.007  0.007
    5  0.000  0.000  0.021  0.022
    6  0.000  0.000  0.007  0.007
    7  0.000  0.000  0.007  0.007
    8  0.000  0.000  0.007  0.007
    9  0.000  0.000  0.003  0.003
   10  0.000  0.000  0.007  0.007
   11  0.000  0.000  0.063  0.063
   12  0.000  0.000  0.007  0.007
   13  0.000  0.000  0.063  0.063
   14  0.000  0.000  0.063  0.063
   15  0.003  0.001  0.029  0.032
   16  0.000  0.000  0.007  0.007
   17  0.003  0.001  0.029  0.032
   18  0.003  0.001  0.029  0.032
   19  0.000  0.001  0.024  0.025
   20  0.001  0.000  0.050  0.051
   21  0.001  0.000  0.050  0.051
   22  0.002  0.001  0.010  0.013
   23  0.001  0.000  0.050  0.051
   24  0.002  0.001  0.010  0.013
   25  0.000  0.001  0.024  0.025
   26  0.000  0.001  0.024  0.025
   27  0.002  0.001  0.010  0.013
   28  0.017  0.001  0.014  0.031
   29  0.005  0.000  0.018  0.023
   30  0.005  0.000  0.018  0.023
   31  0.005  0.000  0.018  0.023
   32  0.005  0.000  0.018  0.023
   33  0.005  0.000  0.018  0.023
   34  0.005  0.000  0.018  0.023
   35  0.004  0.000  0.004  0.008
   36  0.001  0.000  0.009  0.011
   37  0.001  0.006  0.000  0.007
   38  0.000  0.007  0.000  0.007
tot    0.070  0.025  0.746  0.841
 
band    20 # energy   -4.89701924 # occ.  2.00000000
 
ion      s      p      d    tot
    1  0.000  0.000  0.008  0.008
    2  0.000  0.000  0.008  0.008
    3  0.000  0.000  0.003  0.003
    4  0.000  0.000  0.008  0.009
    5  0.000  0.000  0.000  0.000
    6  0.001  0.000  0.005  0.007
    7  0.000  0.000  0.003  0.003
    8  0.001  0.000  0.005  0.006
    9  0.000  0.000  0.008  0.008
   10  0.001  0.001  0.040  0.041
   11  0.000  0.000  0.026  0.026
   12  0.000  0.000  0.018  0.018
   13  0.000  0.000  0.026  0.026
   14  0.000  0.001  0.018  0.019
   15  0.000  0.000  0.062  0.062
   16  0.000  0.000  0.017  0.017
   17  0.000  0.000  0.061  0.061
   18  0.000  0.000  0.025  0.025
   19  0.000  0.000  0.025  0.025
   20  0.002  0.001  0.031  0.034
   21  0.000  0.000  0.014  0.014
   22  0.001  0.000  0.045  0.045
   23  0.000  0.000  0.013  0.014
   24  0.003  0.000  0.027  0.029
   25  0.000  0.000  0.011  0.012
   26  0.000  0.000  0.024  0.025
   27  0.001  0.000  0.045  0.046
   28  0.000  0.000  0.001  0.001
   29  0.001  0.000  0.008  0.010
   30  0.001  0.000  0.005  0.007
   31  0.001  0.000  0.008  0.010
   32  0.000  0.000  0.007  0.007
   33  0.001  0.000  0.005  0.007
   34  0.000  0.000  0.007  0.007
   35  0.000  0.001  0.011  0.012
   36  0.000  0.000  0.010  0.010
   37  0.000  0.045  0.000  0.045
   38  0.000  0.106  0.000  0.106
tot    0.015  0.161  0.638  0.814
 
band    21 # energy   -4.89697452 # occ.  2.00000000
 
ion      s      p      d    tot
    1  0.000  0.000  0.008  0.008
    2  0.001  0.000  0.003  0.004
    3  0.001  0.000  0.008  0.009
    4  0.001  0.000  0.003  0.004
    5  0.000  0.000  0.000  0.000
    6  0.000  0.000  0.005  0.005
    7  0.001  0.000  0.008  0.009
    8  0.000  0.000  0.005  0.006
    9  0.000  0.000  0.008  0.008
   10  0.000  0.000  0.010  0.010
   11  0.000  0.001  0.020  0.021
   12  0.001  0.001  0.032  0.033
   13  0.000  0.001  0.021  0.021
   14  0.000  0.000  0.028  0.028
   15  0.000  0.000  0.037  0.037
   16  0.001  0.001  0.033  0.034