 vasp.6.2.0 18Jan21 (build Jun 12 2021 23:27:24) complex                        
  
 executed on             LinuxIFC date 2022.05.27  05:01:48
 running on   28 total cores
 distrk:  each k-point on   28 cores,    1 groups
 distr:  one band on NCORE=   1 cores,   28 groups


--------------------------------------------------------------------------------------------------------


 INCAR:
   ISMEAR = -5
   SIGMA = 0.1
   ISPIN = 1
   EDIFF = 1.d-5
   EDIFFG = -0.01
   NSW = 0
   NELM = 150
   ENCUT = 500
   ISIF = 2
   IBRION = 2
   LREAL = Auto
   ALGO = Fast
   ICHARG = 11
   LORBIT = 10
   LCHARG = .F.
   LWAVE = .F.

 POTCAR:    PAW_PBE Au 04Oct2007                  
 POTCAR:    PAW_PBE Mn 06Sep2000                  
 POTCAR:    PAW_PBE O 08Apr2002                   
 POTCAR:    PAW_PBE H 15Jun2001                   
 -----------------------------------------------------------------------------
|                                                                             |
|           W    W    AA    RRRRR   N    N  II  N    N   GGGG   !!!           |
|           W    W   A  A   R    R  NN   N  II  NN   N  G    G  !!!           |
|           W    W  A    A  R    R  N N  N  II  N N  N  G       !!!           |
|           W WW W  AAAAAA  RRRRR   N  N N  II  N  N N  G  GGG   !            |
|           WW  WW  A    A  R   R   N   NN  II  N   NN  G    G                |
|           W    W  A    A  R    R  N    N  II  N    N   GGGG   !!!           |
|                                                                             |
|     For optimal performance we recommend to set                             |
|       NCORE = 2 up to number-of-cores-per-socket                            |
|     NCORE specifies how many cores store one orbital (NPAR=cpu/NCORE).      |
|     This setting can greatly improve the performance of VASP for DFT.       |
|     The default, NCORE=1 might be grossly inefficient on modern             |
|     multi-core architectures or massively parallel machines. Do your        |
|     own testing! More info at https://www.vasp.at/wiki/index.php/NCORE      |
|     Unfortunately you need to use the default for GW and RPA                |
|     calculations (for HF NCORE is supported but not extensively tested      |
|     yet).                                                                   |
|                                                                             |
 -----------------------------------------------------------------------------

 POTCAR:    PAW_PBE Au 04Oct2007                  
   VRHFIN =Au: s1d10                                                                                
   LEXCH  = PE                                                                                      
   EATOM  =   926.0867 eV,   68.0654 Ry                                                             
                                                                                                    
   TITEL  = PAW_PBE Au 04Oct2007                                                                    
   LULTRA =        F    use ultrasoft PP ?                                                          
   IUNSCR =        1    unscreen: 0-lin 1-nonlin 2-no                                               
   RPACOR =    2.330    partial core radius                                                         
   POMASS =  196.966; ZVAL   =   11.000    mass and valenz                                          
   RCORE  =    2.500    outmost cutoff radius                                                       
   RWIGS  =    2.840; RWIGS  =    1.503    wigner-seitz radius (au A)                               
   ENMAX  =  229.943; ENMIN  =  172.457 eV                                                          
   ICORE  =        3    local potential                                                             
   LCOR   =        T    correct aug charges                                                         
   LPAW   =        T    paw PP                                                                      
   EAUG   =  356.670                                                                                
   DEXC   =    0.000                                                                                
   RMAX   =    2.562    core radius for proj-oper                                                   
   RAUG   =    1.300    factor for augmentation sphere                                              
   RDEP   =    2.598    radius for radial grids                                                     
   RDEPT  =    2.193    core radius for aug-charge                                                  
                                                                                                    
   Atomic configuration                                                                             
   16 entries                                                                                       
     n  l   j            E        occ.                                                              
     1  0  0.50    -80748.5001   2.0000                                                             
     2  0  0.50    -14244.7466   2.0000                                                             
     2  1  1.50    -12310.9591   6.0000                                                             
     3  0  0.50     -3362.1768   2.0000                                                             
     3  1  1.50     -2801.5463   6.0000                                                             
     3  2  2.50     -2203.8206  10.0000                                                             
     4  0  0.50      -729.8168   2.0000                                                             
     4  1  1.50      -546.0527   6.0000                                                             
     4  2  2.50      -325.7302  10.0000                                                             
     4  3  3.50       -81.1472  14.0000                                                             
     5  0  0.50      -108.3201   2.0000                                                             
     5  1  1.50       -59.7479   6.0000                                                             
     5  2  2.50        -6.8783  10.0000                                                             
     6  0  0.50        -5.7602   1.0000                                                             
     6  1  1.50        -6.8029   0.0000                                                             
     5  3  2.50        -1.3606   0.0000                                                             
   Description                                                                                      
     l       E           TYP  RCUT    TYP  RCUT                                                     
     2     -6.8782861     23  2.500                                                                 
     2     -8.2388687     23  2.500                                                                 
     0     -5.7601759     23  2.500                                                                 
     0     -0.8493231     23  2.500                                                                 
     1     -2.7211652     23  2.500                                                                 
     1     27.2116520     23  2.500                                                                 
     3     -1.3605826     23  2.500                                                                 
  local pseudopotential read in
  partial core-charges read in
  partial kinetic energy density read in
  atomic valenz-charges read in
  non local Contribution for L=           2  read in
    real space projection operators read in
  non local Contribution for L=           2  read in
    real space projection operators read in
  non local Contribution for L=           0  read in
    real space projection operators read in
  non local Contribution for L=           0  read in
    real space projection operators read in
  non local Contribution for L=           1  read in
    real space projection operators read in
  non local Contribution for L=           1  read in
    real space projection operators read in
    PAW grid and wavefunctions read in
 
   number of l-projection  operators is LMAX  =           6
   number of lm-projection operators is LMMAX =          18
 
 POTCAR:    PAW_PBE Mn 06Sep2000                  
   VRHFIN =Mn: d6 s1                                                                                
   LEXCH  = PE                                                                                      
   EATOM  =   416.7541 eV,   30.6306 Ry                                                             
                                                                                                    
   TITEL  = PAW_PBE Mn 06Sep2000                                                                    
   LULTRA =        F    use ultrasoft PP ?                                                          
   IUNSCR =        1    unscreen: 0-lin 1-nonlin 2-no                                               
   RPACOR =    2.000    partial core radius                                                         
   POMASS =   54.938; ZVAL   =    7.000    mass and valenz                                          
   RCORE  =    2.300    outmost cutoff radius                                                       
   RWIGS  =    2.500; RWIGS  =    1.323    wigner-seitz radius (au A)                               
   ENMAX  =  269.864; ENMIN  =  202.398 eV                                                          
   RCLOC  =    1.725    cutoff for local pot                                                        
   LCOR   =        T    correct aug charges                                                         
   LPAW   =        T    paw PP                                                                      
   EAUG   =  500.711                                                                                
   DEXC   =    0.000                                                                                
   RMAX   =    2.343    core radius for proj-oper                                                   
   RAUG   =    1.300    factor for augmentation sphere                                              
   RDEP   =    2.338    radius for radial grids                                                     
   RDEPT  =    1.911    core radius for aug-charge                                                  
                                                                                                    
   Atomic configuration                                                                             
    9 entries                                                                                       
     n  l   j            E        occ.                                                              
     1  0  0.50     -6424.8288   2.0000                                                             
     2  0  0.50      -739.1154   2.0000                                                             
     2  1  1.50      -625.3949   6.0000                                                             
     3  0  0.50       -81.6100   2.0000                                                             
     3  1  1.50       -50.4667   6.0000                                                             
     3  2  2.50        -3.3745   6.0000                                                             
     4  0  0.50        -4.1331   1.0000                                                             
     4  1  0.50        -4.0817   0.0000                                                             
     4  3  2.50        -1.3606   0.0000                                                             
   Description                                                                                      
     l       E           TYP  RCUT    TYP  RCUT                                                     
     2     -3.3744664     23  2.300                                                                 
     2     -4.7350490     23  2.300                                                                 
     0     -4.1331408     23  2.300                                                                 
     0      7.6656614     23  2.300                                                                 
     1     -2.7211652     23  2.300                                                                 
     1     20.4087390     23  2.300                                                                 
  local pseudopotential read in
  partial core-charges read in
  partial kinetic energy density read in
  atomic valenz-charges read in
  non local Contribution for L=           2  read in
    real space projection operators read in
  non local Contribution for L=           2  read in
    real space projection operators read in
  non local Contribution for L=           0  read in
    real space projection operators read in
  non local Contribution for L=           0  read in
    real space projection operators read in
  non local Contribution for L=           1  read in
    real space projection operators read in
  non local Contribution for L=           1  read in
    real space projection operators read in
    PAW grid and wavefunctions read in
 
   number of l-projection  operators is LMAX  =           6
   number of lm-projection operators is LMMAX =          18
 
 POTCAR:    PAW_PBE O 08Apr2002                   
   VRHFIN =O: s2p4                                                                                  
   LEXCH  = PE                                                                                      
   EATOM  =   432.3788 eV,   31.7789 Ry                                                             
                                                                                                    
   TITEL  = PAW_PBE O 08Apr2002                                                                     
   LULTRA =        F    use ultrasoft PP ?                                                          
   IUNSCR =        1    unscreen: 0-lin 1-nonlin 2-no                                               
   RPACOR =    1.200    partial core radius                                                         
   POMASS =   16.000; ZVAL   =    6.000    mass and valenz                                          
   RCORE  =    1.520    outmost cutoff radius                                                       
   RWIGS  =    1.550; RWIGS  =    0.820    wigner-seitz radius (au A)                               
   ENMAX  =  400.000; ENMIN  =  300.000 eV                                                          
   ICORE  =        2    local potential                                                             
   LCOR   =        T    correct aug charges                                                         
   LPAW   =        T    paw PP                                                                      
   EAUG   =  605.392                                                                                
   DEXC   =    0.000                                                                                
   RMAX   =    1.553    core radius for proj-oper                                                   
   RAUG   =    1.300    factor for augmentation sphere                                              
   RDEP   =    1.550    radius for radial grids                                                     
   RDEPT  =    1.329    core radius for aug-charge                                                  
                                                                                                    
   Atomic configuration                                                                             
    4 entries                                                                                       
     n  l   j            E        occ.                                                              
     1  0  0.50      -514.6923   2.0000                                                             
     2  0  0.50       -23.9615   2.0000                                                             
     2  1  0.50        -9.0305   4.0000                                                             
     3  2  1.50        -9.5241   0.0000                                                             
   Description                                                                                      
     l       E           TYP  RCUT    TYP  RCUT                                                     
     0    -23.9615318     23  1.200                                                                 
     0     -9.5240782     23  1.200                                                                 
     1     -9.0304911     23  1.520                                                                 
     1      8.1634956     23  1.520                                                                 
     2     -9.5240782      7  1.500                                                                 
  local pseudopotential read in
  partial core-charges read in
  partial kinetic energy density read in
  kinetic energy density of atom read in
  atomic valenz-charges read in
  non local Contribution for L=           0  read in
    real space projection operators read in
  non local Contribution for L=           0  read in
    real space projection operators read in
  non local Contribution for L=           1  read in
    real space projection operators read in
  non local Contribution for L=           1  read in
    real space projection operators read in
    PAW grid and wavefunctions read in
 
   number of l-projection  operators is LMAX  =           4
   number of lm-projection operators is LMMAX =           8
 
 POTCAR:    PAW_PBE H 15Jun2001                   
   VRHFIN =H: ultrasoft test                                                                        
   LEXCH  = PE                                                                                      
   EATOM  =    12.4884 eV,    0.9179 Ry                                                             
                                                                                                    
   TITEL  = PAW_PBE H 15Jun2001                                                                     
   LULTRA =        F    use ultrasoft PP ?                                                          
   IUNSCR =        0    unscreen: 0-lin 1-nonlin 2-no                                               
   RPACOR =    0.000    partial core radius                                                         
   POMASS =    1.000; ZVAL   =    1.000    mass and valenz                                          
   RCORE  =    1.100    outmost cutoff radius                                                       
   RWIGS  =    0.700; RWIGS  =    0.370    wigner-seitz radius (au A)                               
   ENMAX  =  250.000; ENMIN  =  200.000 eV                                                          
   RCLOC  =    0.701    cutoff for local pot                                                        
   LCOR   =        T    correct aug charges                                                         
   LPAW   =        T    paw PP                                                                      
   EAUG   =  400.000                                                                                
   RMAX   =    1.123    core radius for proj-oper                                                   
   RAUG   =    1.200    factor for augmentation sphere                                              
   RDEP   =    1.112    radius for radial grids                                                     
   RDEPT  =    0.926    core radius for aug-charge                                                  
                                                                                                    
   Atomic configuration                                                                             
    2 entries                                                                                       
     n  l   j            E        occ.                                                              
     1  0  0.50        -6.4927   1.0000                                                             
     2  1  0.50        -3.4015   0.0000                                                             
   Description                                                                                      
     l       E           TYP  RCUT    TYP  RCUT                                                     
     0     -6.4927494     23  1.100                                                                 
     0      6.8029130     23  1.100                                                                 
     1     -4.0817478     23  1.100                                                                 
  local pseudopotential read in
  atomic valenz-charges read in
  non local Contribution for L=           0  read in
    real space projection operators read in
  non local Contribution for L=           0  read in
    real space projection operators read in
  non local Contribution for L=           1  read in
    real space projection operators read in
    PAW grid and wavefunctions read in
 
   number of l-projection  operators is LMAX  =           3
   number of lm-projection operators is LMMAX =           5
 
 Optimization of the real space projectors (new method)

 maximal supplied QI-value         = 15.12
 optimisation between [QCUT,QGAM] = [ 11.34, 22.83] = [ 36.00,145.93] Ry 
 Optimized for a Real-space Cutoff    1.39 Angstroem

   l    n(q)    QCUT    max X(q) W(low)/X(q) W(high)/X(q)  e(spline) 
   2      9    11.338    60.898    0.39E-03    0.42E-03    0.21E-06
   2      9    11.338    58.894    0.40E-03    0.42E-03    0.22E-06
   0      9    11.338   109.617    0.13E-03    0.20E-04    0.13E-06
   0      9    11.338    75.026    0.13E-03    0.20E-04    0.13E-06
   1      9    11.338    16.344    0.33E-04    0.24E-03    0.18E-06
   1      9    11.338    10.160    0.26E-04    0.19E-03    0.15E-06
 Optimization of the real space projectors (new method)

 maximal supplied QI-value         = 16.25
 optimisation between [QCUT,QGAM] = [ 11.38, 22.75] = [ 36.24,144.96] Ry 
 Optimized for a Real-space Cutoff    1.39 Angstroem

   l    n(q)    QCUT    max X(q) W(low)/X(q) W(high)/X(q)  e(spline) 
   2      8    11.376   110.144    0.49E-03    0.27E-04    0.26E-06
   2      8    11.376   103.200    0.49E-03    0.28E-04    0.27E-06
   0      9    11.376    68.437    0.57E-04    0.92E-04    0.15E-06
   0      9    11.376    33.971    0.51E-04    0.83E-04    0.14E-06
   1      9    11.376    17.065    0.34E-03    0.68E-04    0.14E-06
   1      9    11.376    12.540    0.27E-03    0.59E-04    0.11E-06
 Optimization of the real space projectors (new method)

 maximal supplied QI-value         = 24.76
 optimisation between [QCUT,QGAM] = [ 11.39, 22.77] = [ 36.31,145.25] Ry 
 Optimized for a Real-space Cutoff    1.00 Angstroem

   l    n(q)    QCUT    max X(q) W(low)/X(q) W(high)/X(q)  e(spline) 
   0      7    11.387    20.381    0.39E-03    0.13E-02    0.15E-06
   0      7    11.387    15.268    0.42E-03    0.14E-02    0.17E-06
   1      6    11.387     5.964    0.41E-03    0.11E-02    0.17E-06
   1      6    11.387     5.382    0.39E-03    0.87E-03    0.15E-06
 Optimization of the real space projectors (new method)

 maximal supplied QI-value         = 34.20
 optimisation between [QCUT,QGAM] = [ 11.29, 22.57] = [ 35.68,142.71] Ry 
 Optimized for a Real-space Cutoff    1.16 Angstroem

   l    n(q)    QCUT    max X(q) W(low)/X(q) W(high)/X(q)  e(spline) 
   0      8    11.287    19.460    0.40E-03    0.73E-03    0.16E-06
   0      8    11.287    12.209    0.38E-03    0.70E-03    0.15E-06
   1      7    11.287     4.655    0.22E-03    0.25E-04    0.22E-06
  PAW_PBE Au 04Oct2007                  :
 energy of atom  1       EATOM= -926.0867
 kinetic energy error for atom=    0.0042 (will be added to EATOM!!)
  PAW_PBE Mn 06Sep2000                  :
 energy of atom  2       EATOM= -416.7541
 kinetic energy error for atom=    0.0024 (will be added to EATOM!!)
  PAW_PBE O 08Apr2002                   :
 energy of atom  3       EATOM= -432.3788
 kinetic energy error for atom=    0.0224 (will be added to EATOM!!)
  PAW_PBE H 15Jun2001                   :
 energy of atom  4       EATOM=  -12.4884
 kinetic energy error for atom=    0.0020 (will be added to EATOM!!)
 
 
 POSCAR: Au-Mn-OH
  positions in direct lattice
  velocities in cartesian coordinates
 exchange correlation table for  LEXCH =        8
   RHO(1)=    0.500       N(1)  =     2000
   RHO(2)=  100.500       N(2)  =     4000

 VTST: version 3.2, (02/03/18)

 CHAIN: initializing optimizer
 
 OPT: Using VASP Conjugate-Gradient optimizer
 CHAIN: Read ICHAIN            0
 
 POSCAR: Au-Mn-OH
  positions in direct lattice
  velocities in cartesian coordinates
 


--------------------------------------------------------------------------------------------------------


 ion  position               nearest neighbor table
   1  0.000  0.000  0.238-  16 2.94  12 2.94   6 2.94   8 2.94   7 2.94   3 2.94  10 2.94   4 2.94
                             2 2.94
   2  0.333  0.000  0.238-   9 2.94  11 2.94  17 2.94  10 2.94   8 2.94   4 2.94   5 2.94   1 2.94
                             3 2.94
   3  0.667  0.000  0.238-   7 2.94  18 2.94  12 2.94   1 2.94  11 2.94   5 2.94   6 2.94   9 2.94
                             2 2.94
   4  0.000  0.333  0.238-  10 2.94   6 2.94   5 2.94  13 2.94   2 2.94  15 2.94   9 2.94   1 2.94
                             7 2.94
   5  0.333  0.333  0.238-  13 2.94   7 2.94  11 2.94   4 2.94   2 2.94  14 2.94   3 2.94   8 2.94
                             6 2.94
   6  0.667  0.333  0.238-  15 2.94  14 2.94   1 2.94  12 2.94   4 2.94   9 2.94   8 2.94   3 2.94
                             5 2.94
   7  0.000  0.667  0.238-  18 2.94   3 2.94  16 2.94   5 2.94   1 2.94  13 2.94   8 2.94   4 2.94
                             9 2.94
   8  0.333  0.667  0.238-   9 2.94  17 2.94   1 2.94   2 2.94  14 2.94  16 2.94   6 2.94   7 2.94
                             5 2.94
   9  0.667  0.667  0.238-   2 2.94   8 2.94  17 2.94   6 2.94  15 2.94   4 2.94   3 2.94  18 2.94
                             7 2.94
  10  0.111  0.111  0.346-  20 2.93  26 2.94  19 2.94  11 2.94  17 2.94   2 2.94   4 2.94   1 2.94
                            12 2.94  16 2.94  13 2.94  15 2.94
  11  0.444  0.111  0.346-  20 2.91  21 2.91  27 2.93  13 2.94   2 2.94  10 2.94  17 2.94   5 2.94
                             3 2.94  18 2.94  14 2.94  12 2.94
  12  0.778  0.111  0.346-  21 2.93  25 2.94  19 2.94  16 2.94  18 2.94   1 2.94  14 2.94  15 2.94
                             3 2.94   6 2.94  10 2.94  11 2.94
  13  0.111  0.444  0.346-  23 2.91  20 2.91  22 2.93   5 2.94  18 2.94  11 2.94   7 2.94   4 2.94
                            16 2.94  10 2.94  14 2.94  15 2.94
  14  0.444  0.444  0.346-  21 2.91  23 2.91  24 2.93  15 2.94   6 2.94  12 2.94   8 2.94  17 2.94
                             5 2.94  16 2.94  13 2.94  11 2.94
  15  0.778  0.444  0.346-  24 2.92  22 2.92  19 2.94  14 2.94   6 2.94  17 2.94  12 2.94   9 2.94
                             4 2.94  10 2.94  13 2.94  18 2.94
  16  0.111  0.778  0.346-  23 2.93  25 2.94  26 2.94  18 2.94  12 2.94   7 2.94   1 2.94   8 2.94
                            13 2.94  10 2.94  14 2.94  17 2.94
  17  0.444  0.778  0.346-  27 2.92  24 2.92  26 2.94   9 2.94  15 2.94   2 2.94  10 2.94  11 2.94
                             8 2.94  14 2.94  16 2.94  18 2.94
  18  0.778  0.778  0.346-  22 2.92  27 2.92  25 2.94  16 2.94   7 2.94  13 2.94  12 2.94   3 2.94
                            11 2.94   9 2.94  15 2.94  17 2.94
  19  0.889  0.222  0.454-  10 2.94  12 2.94  15 2.94  26 2.94  25 2.94  24 2.94  22 2.94  28 2.95
                            21 2.95  20 2.95  32 2.99  31 2.99
  20  0.223  0.223  0.453-  36 2.70  23 2.91  21 2.91  11 2.91  13 2.91  29 2.92  31 2.92  10 2.93
                            26 2.95  19 2.95  27 2.95  22 2.95
  21  0.553  0.223  0.453-  36 2.70  20 2.91  23 2.91  14 2.91  11 2.91  30 2.92  32 2.92  12 2.93
                            25 2.95  19 2.95  27 2.95  24 2.95
  22  0.886  0.557  0.453-  24 2.91  27 2.91  18 2.92  15 2.92  13 2.93  25 2.94  19 2.94  23 2.95
                            20 2.95  33 2.96  31 2.96  35 2.96
  23  0.223  0.553  0.453-  36 2.70  20 2.91  21 2.91  13 2.91  14 2.91  33 2.92  34 2.92  16 2.93
                            25 2.95  26 2.95  22 2.95  24 2.95
  24  0.557  0.557  0.453-  27 2.91  22 2.91  15 2.92  17 2.92  14 2.93  26 2.94  19 2.94  21 2.95
                            23 2.95  32 2.96  34 2.96  35 2.96
  25  0.889  0.889  0.454-  16 2.94  12 2.94  18 2.94  19 2.94  26 2.94  22 2.94  27 2.94  28 2.95
                            23 2.95  21 2.95  33 2.99  30 2.99
  26  0.222  0.889  0.454-  10 2.94  16 2.94  17 2.94  19 2.94  25 2.94  27 2.94  24 2.94  28 2.95
                            20 2.95  23 2.95  29 2.99  34 2.99
  27  0.557  0.886  0.453-  24 2.91  22 2.91  17 2.92  18 2.92  11 2.93  26 2.94  25 2.94  20 2.95
                            21 2.95  29 2.96  30 2.96  35 2.96
  28  0.000  0.000  0.563-  25 2.95  19 2.95  26 2.95  34 2.99  32 2.99  33 2.99  30 2.99  31 2.99
                            29 2.99
  29  0.334  0.010  0.562-  30 2.84  31 2.85  36 2.86  20 2.92  27 2.96  35 2.98  26 2.99  28 2.99
                            34 3.12
  30  0.656  0.010  0.562-  29 2.84  32 2.85  36 2.86  21 2.92  27 2.96  35 2.98  25 2.99  28 2.99
                            33 3.12
  31  0.010  0.334  0.562-  33 2.84  29 2.85  36 2.86  20 2.92  22 2.96  35 2.98  19 2.99  28 2.99
                            32 3.12
  32  0.656  0.334  0.562-  34 2.84  30 2.85  36 2.86  21 2.92  24 2.96  35 2.98  19 2.99  28 2.99
                            31 3.12
  33  0.010  0.656  0.562-  31 2.84  34 2.85  36 2.86  23 2.92  22 2.96  35 2.98  25 2.99  28 2.99
                            30 3.12
  34  0.334  0.656  0.562-  32 2.84  33 2.85  36 2.86  23 2.92  24 2.96  35 2.98  26 2.99  28 2.99
                            29 3.12
  35  0.667  0.667  0.563-  24 2.96  27 2.96  22 2.96  29 2.98  34 2.98  32 2.98  31 2.98  30 2.98
                            33 2.98
  36  0.333  0.333  0.548-  37 1.75  20 2.70  23 2.70  21 2.70  33 2.86  31 2.86  29 2.86  30 2.86
                            34 2.86  32 2.86
  37  0.333  0.333  0.627-  38 0.97  36 1.75
  38  0.333  0.333  0.670-  37 0.97
 
  LATTYP: Found a hexagonal cell.
 ALAT       =     8.8135128021
 C/A-ratio  =     2.5184286595
  
  Lattice vectors:
  
 A1 = (  -4.4067569092,  -7.6327256898,   0.0000000000)
 A2 = (   8.8135128021,   0.0000000000,   0.0000000000)
 A3 = (   0.0000000000,   0.0000000000,  22.1962032318)


Analysis of symmetry for initial positions (statically):
=====================================================================
 Subroutine PRICEL returns:
 Original cell was already a primitive cell.
 

 Routine SETGRP: Setting up the symmetry group for a 
 hexagonal supercell.


 Subroutine GETGRP returns: Found  6 space group operations
 (whereof  6 operations were pure point group operations)
 out of a pool of 24 trial point group operations.


The static configuration has the point symmetry C_3v.


Analysis of symmetry for dynamics (positions and initial velocities):
=====================================================================
 Subroutine PRICEL returns:
 Original cell was already a primitive cell.
 

 Routine SETGRP: Setting up the symmetry group for a 
 hexagonal supercell.


 Subroutine GETGRP returns: Found  6 space group operations
 (whereof  6 operations were pure point group operations)
 out of a pool of 24 trial point group operations.


The dynamic configuration has the point symmetry C_3v.


Analysis of constrained symmetry for selective dynamics:
=====================================================================
 Subroutine PRICEL returns:
 Original cell was already a primitive cell.
 

 Routine SETGRP: Setting up the symmetry group for a 
 hexagonal supercell.


 Subroutine GETGRP returns: Found  6 space group operations
 (whereof  6 operations were pure point group operations)
 out of a pool of 24 trial point group operations.


The constrained configuration has the point symmetry C_3v.


 Subroutine INISYM returns: Found  6 space group operations
 (whereof  6 operations are pure point group operations),
 and found     1 'primitive' translations


----------------------------------------------------------------------------------------

                                     Primitive cell                                     

  volume of cell :    1493.1636

  direct lattice vectors                    reciprocal lattice vectors
     8.813512802  0.000000000  0.000000000     0.113462137 -0.065507406  0.000000000
     4.406756909  7.632725690  0.000000000     0.000000000  0.131014796  0.000000000
     0.000000000  0.000000000 22.196203232     0.000000000  0.000000000  0.045052750

  length of vectors
     8.813512802  8.813512802 22.196203232     0.131014796  0.131014796  0.045052750

  position of ions in fractional coordinates (direct lattice)
     0.000000000  0.000000000  0.237895638
     0.333333343  0.000000000  0.237895638
     0.666666687  0.000000000  0.237895638
     1.000000000  0.333333343  0.237895638
     0.333333313  0.333333343  0.237895638
     0.666666687  0.333333343  0.237895638
     1.000000000  0.666666687  0.237895638
     0.333333343  0.666666687  0.237895638
     0.666666627  0.666666687  0.237895638
     0.111111119  0.111111112  0.345965207
     0.444444418  0.111111112  0.345965207
     0.777777791  0.111111112  0.345965207
     0.111111127  0.444444448  0.345965207
     0.444444478  0.444444448  0.345965207
     0.777777731  0.444444448  0.345965207
     0.111111090  0.777777791  0.345965207
     0.444444448  0.777777791  0.345965207
     0.777777851  0.777777791  0.345965207
     0.888897538  0.222204939  0.453896923
     0.223374012  0.223373997  0.452775625
     0.553252035  0.223373997  0.452775625
     0.886463792  0.556768134  0.453145880
     0.223373967  0.553252035  0.452775625
     0.556768134  0.556768134  0.453145880
     0.888897538  0.888897538  0.453896923
     0.222204969  0.888897538  0.453896923
     0.556768074  0.886463792  0.453145880
     0.000000000  0.000000000  0.562607014
     0.333521667  0.010275925  0.562008141
     0.656202438  0.010275925  0.562008141
     0.010275925  0.333521667  0.562008141
     0.656202438  0.333521667  0.562008141
     0.010275925  0.656202438  0.562008141
     0.333521667  0.656202438  0.562008141
     0.666666627  0.666666687  0.562952649
     0.333333313  0.333333343  0.548217096
     0.333333313  0.333333343  0.626920703
     0.333333313  0.333333343  0.670472436

  ion indices of the primitive-cell ions
   primitive index   ion index
                 1           1
                 2           2
                 3           3
                 4           4
                 5           5
                 6           6
                 7           7
                 8           8
                 9           9
                10          10
                11          11
                12          12
                13          13
                14          14
                15          15
                16          16
                17          17
                18          18
                19          19
                20          20
                21          21
                22          22
                23          23
                24          24
                25          25
                26          26
                27          27
                28          28
                29          29
                30          30
                31          31
                32          32
                33          33
                34          34
                35          35
                36          36
                37          37
                38          38

----------------------------------------------------------------------------------------

 
 
 KPOINTS: Automatic mesh                          

Automatic generation of k-mesh.
 Grid dimensions read from file:
 generate k-points for:    8    8    1

 Generating k-lattice:

  Cartesian coordinates                     Fractional coordinates (reciprocal lattice)
     0.014182767 -0.008188426  0.000000000     0.125000000 -0.000000000  0.000000000
     0.000000000  0.016376850  0.000000000     0.000000000  0.125000000  0.000000000
     0.000000000  0.000000000  0.045052750     0.000000000  0.000000000  1.000000000

  Length of vectors
     0.016376850  0.016376850  0.045052750

  Shift w.r.t. Gamma in fractional coordinates (k-lattice)
     0.000000000  0.000000000  0.000000000

 TETIRR: Found     36 inequivalent tetrahedra from      384
 
 Subroutine IBZKPT returns following result:
 ===========================================
 
 Found     10 irreducible k-points:
 
 Following reciprocal coordinates:
            Coordinates               Weight
  0.000000  0.000000  0.000000      1.000000
  0.125000 -0.000000  0.000000      6.000000
  0.250000 -0.000000  0.000000      6.000000
  0.375000  0.000000  0.000000      6.000000
  0.500000 -0.000000  0.000000      3.000000
  0.250000  0.125000  0.000000      6.000000
  0.375000  0.125000  0.000000     12.000000
  0.500000  0.125000  0.000000     12.000000
  0.500000  0.250000  0.000000      6.000000
 -0.375000  0.250000  0.000000      6.000000
 
 Following cartesian coordinates:
            Coordinates               Weight
  0.000000  0.000000  0.000000      1.000000
  0.014183 -0.008188  0.000000      6.000000
  0.028366 -0.016377  0.000000      6.000000
  0.042548 -0.024565  0.000000      6.000000
  0.056731 -0.032754  0.000000      3.000000
  0.028366 -0.000000  0.000000      6.000000
  0.042548 -0.008188  0.000000     12.000000
  0.056731 -0.016377  0.000000     12.000000
  0.056731 -0.000000  0.000000      6.000000
 -0.042548  0.057319  0.000000      6.000000
 


--------------------------------------------------------------------------------------------------------




 Dimension of arrays:
   k-points           NKPTS =     10   k-points in BZ     NKDIM =     10   number of bands    NBANDS=    252
   number of dos      NEDOS =    301   number of ions     NIONS =     38
   non local maximal  LDIM  =      6   non local SUM 2l+1 LMDIM =     18
   total plane-waves  NPLWV = 290304
   max r-space proj   IRMAX =   2236   max aug-charges    IRDMAX=  12088
   dimension x,y,z NGX =    48 NGY =   48 NGZ =  126
   dimension x,y,z NGXF=    96 NGYF=   96 NGZF=  252
   support grid    NGXF=    96 NGYF=   96 NGZF=  252
   ions per type =              35   1   1   1
   NGX,Y,Z   is equivalent  to a cutoff of   9.05,  9.05,  9.44 a.u.
   NGXF,Y,Z  is equivalent  to a cutoff of  18.11, 18.11, 18.87 a.u.

 SYSTEM =  unknown system                          
 POSCAR =  Au-Mn-OH                                

 Startparameter for this run:
   NWRITE =      2    write-flag & timer
   PREC   = normal    normal or accurate (medium, high low for compatibility)
   ISTART =      0    job   : 0-new  1-cont  2-samecut
   ICHARG =     11    charge: 1-file 2-atom 10-const
   ISPIN  =      1    spin polarized calculation?
   LNONCOLLINEAR =      F non collinear calculations
   LSORBIT =      F    spin-orbit coupling
   INIWAV =      1    electr: 0-lowe 1-rand  2-diag
   LASPH  =      F    aspherical Exc in radial PAW
   METAGGA=      F    non-selfconsistent MetaGGA calc.

 Electronic Relaxation 1
   ENCUT  =  500.0 eV  36.75 Ry    6.06 a.u.  16.07 16.07 40.47*2*pi/ulx,y,z
   ENINI  =  500.0     initial cutoff
   ENAUG  =  605.4 eV  augmentation charge cutoff
   NELM   =    150;   NELMIN=  2; NELMDL= -5     # of ELM steps 
   EDIFF  = 0.1E-04   stopping-criterion for ELM
   LREAL  =      T    real-space projection
   NLSPLINE    = F    spline interpolate recip. space projectors
   LCOMPAT=      F    compatible to vasp.4.4
   GGA_COMPAT  = T    GGA compatible to vasp.4.4-vasp.4.6
   LMAXPAW     = -100 max onsite density
   LMAXMIX     =    2 max onsite mixed and CHGCAR
   VOSKOWN=      0    Vosko Wilk Nusair interpolation
   ROPT   =   -0.00050  -0.00050  -0.00050  -0.00050
 Ionic relaxation
   EDIFFG = -.1E-01   stopping-criterion for IOM
   NSW    =      0    number of steps for IOM
   NBLOCK =      1;   KBLOCK =      1    inner block; outer block 
   IBRION =     -1    ionic relax: 0-MD 1-quasi-New 2-CG
   NFREE  =      1    steps in history (QN), initial steepest desc. (CG)
   ISIF   =      2    stress and relaxation
   IWAVPR =     10    prediction:  0-non 1-charg 2-wave 3-comb
   ISYM   =      2    0-nonsym 1-usesym 2-fastsym
   LCORR  =      T    Harris-Foulkes like correction to forces

   POTIM  = 0.5000    time-step for ionic-motion
   TEIN   =    0.0    initial temperature
   TEBEG  =    0.0;   TEEND  =   0.0 temperature during run
   SMASS  =  -3.00    Nose mass-parameter (am)
   estimated Nose-frequenzy (Omega)   =  0.10E-29 period in steps = 0.13E+47 mass=  -0.178E-26a.u.
   SCALEE = 1.0000    scale energy and forces
   NPACO  =    256;   APACO  = 16.0  distance and # of slots for P.C.
   PSTRESS=    0.0 pullay stress

  Mass of Ions in am
   POMASS = 196.97 54.94 16.00  1.00
  Ionic Valenz
   ZVAL   =  11.00  7.00  6.00  1.00
  Atomic Wigner-Seitz radii
   RWIGS  =  -1.00 -1.00 -1.00 -1.00
  virtual crystal weights 
   VCA    =   1.00  1.00  1.00  1.00
   NELECT =     399.0000    total number of electrons
   NUPDOWN=      -1.0000    fix difference up-down

 DOS related values:
   EMIN   =  10.00;   EMAX   =-10.00  energy-range for DOS
   EFERMI =   0.00
   ISMEAR =    -5;   SIGMA  =   0.10  broadening in eV -4-tet -1-fermi 0-gaus

 Electronic relaxation 2 (details)
   IALGO  =     68    algorithm
   LDIAG  =      T    sub-space diagonalisation (order eigenvalues)
   LSUBROT=      F    optimize rotation matrix (better conditioning)
   TURBO    =      0    0=normal 1=particle mesh
   IRESTART =      0    0=no restart 2=restart with 2 vectors
   NREBOOT  =      0    no. of reboots
   NMIN     =      0    reboot dimension
   EREF     =   0.00    reference energy to select bands
   IMIX   =      4    mixing-type and parameters
     AMIX     =   0.40;   BMIX     =  1.00
     AMIX_MAG =   1.60;   BMIX_MAG =  1.00
     AMIN     =   0.10
     WC   =   100.;   INIMIX=   1;  MIXPRE=   1;  MAXMIX= -45

 Intra band minimization:
   WEIMIN = 0.0000     energy-eigenvalue tresh-hold
   EBREAK =  0.99E-08  absolut break condition
   DEPER  =   0.30     relativ break condition  

   TIME   =   0.40     timestep for ELM

  volume/ion in A,a.u.               =      39.29       265.17
  Fermi-wavevector in a.u.,A,eV,Ry     =   1.054460  1.992640 15.128118  1.111885
  Thomas-Fermi vector in A             =   2.189621
 
 Write flags
   LWAVE        =      F    write WAVECAR
   LDOWNSAMPLE  =      F    k-point downsampling of WAVECAR
   LCHARG       =      F    write CHGCAR
   LVTOT        =      F    write LOCPOT, total local potential
   LVHAR        =      F    write LOCPOT, Hartree potential only
   LELF         =      F    write electronic localiz. function (ELF)
   LORBIT       =     10    0 simple, 1 ext, 2 COOP (PROOUT), +10 PAW based schemes


 Dipole corrections
   LMONO  =      F    monopole corrections only (constant potential shift)
   LDIPOL =      F    correct potential (dipole corrections)
   IDIPOL =      0    1-x, 2-y, 3-z, 4-all directions 
   EPSILON=  1.0000000 bulk dielectric constant

 Exchange correlation treatment:
   GGA     =    --    GGA type
   LEXCH   =     8    internal setting for exchange type
   VOSKOWN=      0    Vosko Wilk Nusair interpolation
   LHFCALC =     F    Hartree Fock is set to
   LHFONE  =     F    Hartree Fock one center treatment
   AEXX    =    0.0000 exact exchange contribution

 Linear response parameters
   LEPSILON=     F    determine dielectric tensor
   LRPA    =     F    only Hartree local field effects (RPA)
   LNABLA  =     F    use nabla operator in PAW spheres
   LVEL    =     F    velocity operator in full k-point grid
   LINTERFAST=   F  fast interpolation
   KINTER  =     0    interpolate to denser k-point grid
   CSHIFT  =0.1000    complex shift for real part using Kramers Kronig
   OMEGAMAX=  -1.0    maximum frequency
   DEG_THRESHOLD= 0.2000000E-02 threshold for treating states as degnerate
   RTIME   =   -0.100 relaxation time in fs
  (WPLASMAI=    0.000 imaginary part of plasma frequency in eV, 0.658/RTIME)
   DFIELD  = 0.0000000 0.0000000 0.0000000 field for delta impulse in time
 
 Orbital magnetization related:
   ORBITALMAG=     F  switch on orbital magnetization
   LCHIMAG   =     F  perturbation theory with respect to B field
   DQ        =  0.001000  dq finite difference perturbation B field
   LLRAUG    =     F  two centre corrections for induced B field



--------------------------------------------------------------------------------------------------------


 Static calculation
 charge density and potential remain constant during run
 non-spin polarized calculation
 RMM-DIIS sequential band-by-band and
  variant of blocked Davidson during initial phase
 perform sub-space diagonalisation
    before iterative eigenvector-optimisation
 no mixing
 using additional bands           52
 real space projection scheme for non local part
 use partial core corrections
 calculate Harris-corrections to forces 
   (improved forces if not selfconsistent)
 use gradient corrections 
 WARNING: stress and forces are not correct
  (second derivative of E(xc) not defined)
 use of overlap-Matrix (Vanderbilt PP)
 Fermi weights with tetrahedron method with Bloechl corrections


--------------------------------------------------------------------------------------------------------


  energy-cutoff  :      500.00
  volume of cell :     1493.16
      direct lattice vectors                 reciprocal lattice vectors
     8.813512802  0.000000000  0.000000000     0.113462137 -0.065507406  0.000000000
     4.406756909  7.632725690  0.000000000     0.000000000  0.131014796  0.000000000
     0.000000000  0.000000000 22.196203232     0.000000000  0.000000000  0.045052750

  length of vectors
     8.813512802  8.813512802 22.196203232     0.131014796  0.131014796  0.045052750


 
 k-points in units of 2pi/SCALE and weight: Automatic mesh                          
   0.00000000  0.00000000  0.00000000       0.016
   0.01418277 -0.00818843  0.00000000       0.094
   0.02836553 -0.01637685  0.00000000       0.094
   0.04254830 -0.02456528  0.00000000       0.094
   0.05673107 -0.03275370  0.00000000       0.047
   0.02836553 -0.00000000  0.00000000       0.094
   0.04254830 -0.00818843  0.00000000       0.188
   0.05673107 -0.01637685  0.00000000       0.188
   0.05673107 -0.00000000  0.00000000       0.094
  -0.04254830  0.05731898  0.00000000       0.094
 
 k-points in reciprocal lattice and weights: Automatic mesh                          
   0.00000000  0.00000000  0.00000000       0.016
   0.12500000 -0.00000000  0.00000000       0.094
   0.25000000 -0.00000000  0.00000000       0.094
   0.37500000  0.00000000  0.00000000       0.094
   0.50000000 -0.00000000  0.00000000       0.047
   0.25000000  0.12500000  0.00000000       0.094
   0.37500000  0.12500000  0.00000000       0.188
   0.50000000  0.12500000  0.00000000       0.188
   0.50000000  0.25000000  0.00000000       0.094
  -0.37500000  0.25000000  0.00000000       0.094
 
 position of ions in fractional coordinates (direct lattice) 
   0.00000000  0.00000000  0.23789564
   0.33333334  0.00000000  0.23789564
   0.66666669  0.00000000  0.23789564
   0.00000000  0.33333334  0.23789564
   0.33333331  0.33333334  0.23789564
   0.66666669  0.33333334  0.23789564
   0.00000000  0.66666669  0.23789564
   0.33333334  0.66666669  0.23789564
   0.66666663  0.66666669  0.23789564
   0.11111112  0.11111111  0.34596521
   0.44444442  0.11111111  0.34596521
   0.77777779  0.11111111  0.34596521
   0.11111113  0.44444445  0.34596521
   0.44444448  0.44444445  0.34596521
   0.77777773  0.44444445  0.34596521
   0.11111109  0.77777779  0.34596521
   0.44444445  0.77777779  0.34596521
   0.77777785  0.77777779  0.34596521
   0.88889754  0.22220494  0.45389692
   0.22337401  0.22337400  0.45277563
   0.55325204  0.22337400  0.45277563
   0.88646379  0.55676813  0.45314588
   0.22337397  0.55325204  0.45277563
   0.55676813  0.55676813  0.45314588
   0.88889754  0.88889754  0.45389692
   0.22220497  0.88889754  0.45389692
   0.55676807  0.88646379  0.45314588
   0.00000000  0.00000000  0.56260701
   0.33352167  0.01027593  0.56200814
   0.65620244  0.01027593  0.56200814
   0.01027593  0.33352167  0.56200814
   0.65620244  0.33352167  0.56200814
   0.01027593  0.65620244  0.56200814
   0.33352167  0.65620244  0.56200814
   0.66666663  0.66666669  0.56295265
   0.33333331  0.33333334  0.54821710
   0.33333331  0.33333334  0.62692070
   0.33333331  0.33333334  0.67047244
 
 position of ions in cartesian coordinates  (Angst):
   0.00000000  0.00000000  5.28037993
   2.93783769  0.00000000  5.28037993
   5.87567538  0.00000000  5.28037993
   1.46891901  2.54424197  5.28037993
   4.40675643  2.54424197  5.28037993
   7.34459439  2.54424197  5.28037993
   2.93783803  5.08848395  5.28037993
   5.87567571  5.08848395  5.28037993
   8.81351288  5.08848395  5.28037993
   1.46891893  0.84808064  7.67911405
   4.40675623  0.84808064  7.67911405
   7.34459418  0.84808064  7.67911405
   2.93783798  3.39232256  7.67911405
   5.87567574  3.39232256  7.67911405
   8.81351263  3.39232256  7.67911405
   4.40675667  5.93656453  7.67911405
   7.34459449  5.93656453  7.67911405
  10.28243270  5.93656453  7.67911405
   8.81351299  1.69602935 10.07478836
   2.95306462  1.70495245 10.04989979
   5.86044880  1.70495245 10.04989979
  10.26640180  4.24965844 10.05811804
   4.40675655  4.22282102 10.04989979
   7.36062490  4.24965844 10.05811804
  11.75146520  6.78471108 10.07478836
   5.87556171  6.78471108 10.07478836
   8.81351299  6.76613496 10.05811804
   0.00000000  0.00000000 12.48773962
   2.98478098  0.07843332 12.47444691
   5.82873209  0.07843332 12.47444691
   1.56031591  2.54567939 12.47444691
   7.25319750  2.54567939 12.47444691
   2.98229163  5.00861321 12.47444691
   5.83122211  5.00861321 12.47444691
   8.81351288  5.08848395 12.49541140
   4.40675643  2.54424197 12.16833808
   4.40675643  2.54424197 13.91525933
   4.40675643  2.54424197 14.88194245
 


--------------------------------------------------------------------------------------------------------


 k-point   1 :   0.0000 0.0000 0.0000  plane waves:   37827
 k-point   2 :   0.1250-0.0000 0.0000  plane waves:   37876
 k-point   3 :   0.2500-0.0000 0.0000  plane waves:   37924
 k-point   4 :   0.3750 0.0000 0.0000  plane waves:   37904
 k-point   5 :   0.5000-0.0000 0.0000  plane waves:   37912
 k-point   6 :   0.2500 0.1250 0.0000  plane waves:   37858
 k-point   7 :   0.3750 0.1250 0.0000  plane waves:   37928
 k-point   8 :   0.5000 0.1250 0.0000  plane waves:   37924
 k-point   9 :   0.5000 0.2500 0.0000  plane waves:   37926
 k-point  10 :  -0.3750 0.2500 0.0000  plane waves:   37916

 maximum and minimum number of plane-waves per node :     37928    37827

 maximum number of plane-waves:     37928
 maximum index in each direction: 
   IXMAX=   16   IYMAX=   16   IZMAX=   40
   IXMIN=  -16   IYMIN=  -16   IZMIN=  -40


 serial   3D FFT for wavefunctions
 parallel 3D FFT for charge:
    minimum data exchange during FFTs selected (reduces bandwidth)


 total amount of memory used by VASP MPI-rank0   122759. kBytes
=======================================================================

   base      :      30000. kBytes
   nonlr-proj:      13579. kBytes
   fftplans  :       4330. kBytes
   grid      :      18659. kBytes
   one-center:        590. kBytes
   wavefun   :      55601. kBytes
 
     INWAV:  cpu time    0.0000: real time    0.0000
 initial charge density was supplied:
 number of electron     399.0000069 magnetization 
 keeping initial charge density in first step


--------------------------------------------------------------------------------------------------------


 Maximum index for non-local projection operator         2121
 Maximum index for augmentation-charges          858 (set IRDMAX)


--------------------------------------------------------------------------------------------------------


 First call to EWALD:  gamma=   0.155
 Maximum number of real-space cells 4x 4x 2
 Maximum number of reciprocal cells 2x 2x 5

    FEWALD:  cpu time    0.0013: real time    0.0014


--------------------------------------- Iteration      1(   1)  ---------------------------------------


    POTLOK:  cpu time    0.0421: real time    0.0424
    SETDIJ:  cpu time    0.0051: real time    0.0053
     EDDAV:  cpu time    7.0986: real time    7.1004
 BZINTS: Fermi energy:   11.761003;  399.000000 electrons
         Band energy: 0.163625E+04;  BLOECHL correction:   -0.014427
       DOS:  cpu time    0.0110: real time    0.0111
    --------------------------------------------
      LOOP:  cpu time    7.1568: real time    7.1592

 eigenvalue-minimisations  :  5040
 total energy-change (2. order) : 0.2676607E+04  (-0.1800130E+05)
 number of electron     399.0000069 magnetization 
 augmentation part      399.0000069 magnetization 

 Free energy of the ion-electron system (eV)
  ---------------------------------------------------
  alpha Z        PSCENC =      1018.26903432
  Ewald energy   TEWEN  =     96518.64146091
  -Hartree energ DENC   =   -131048.59528027
  -exchange      EXHF   =         0.00000000
  -V(xc)+E(xc)   XCENC  =       536.04557957
  PAW double counting   =     36212.53887339   -35471.02036644
  entropy T*S    EENTRO =         0.00000000
  eigenvalues    EBANDS =      1636.24653323
  atomic energy  EATOM  =     33274.48077808
  Solvation  Ediel_sol  =         0.00000000
  ---------------------------------------------------
  free energy    TOTEN  =      2676.60661279 eV

  energy without entropy =     2676.60661279  energy(sigma->0) =     2676.60661279


--------------------------------------------------------------------------------------------------------




--------------------------------------- Iteration      1(   2)  ---------------------------------------


     EDDAV:  cpu time    7.4613: real time    7.4617
 BZINTS: Fermi energy:    1.856409;  399.000000 electrons
         Band energy:-0.100833E+04;  BLOECHL correction:   -0.042599
       DOS:  cpu time    0.0095: real time    0.0095
    --------------------------------------------
      LOOP:  cpu time    7.4707: real time    7.4712

 eigenvalue-minimisations  :  5376
 total energy-change (2. order) :-0.2644580E+04  (-0.2439472E+04)
 number of electron     399.0000069 magnetization 
 augmentation part      399.0000069 magnetization 

 Free energy of the ion-electron system (eV)
  ---------------------------------------------------
  alpha Z        PSCENC =      1018.26903432
  Ewald energy   TEWEN  =     96518.64146091
  -Hartree energ DENC   =   -131048.59528027
  -exchange      EXHF   =         0.00000000
  -V(xc)+E(xc)   XCENC  =       536.04557957
  PAW double counting   =     36212.53887339   -35471.02036644
  entropy T*S    EENTRO =         0.00000000
  eigenvalues    EBANDS =     -1008.33319051
  atomic energy  EATOM  =     33274.48077808
  Solvation  Ediel_sol  =         0.00000000
  ---------------------------------------------------
  free energy    TOTEN  =        32.02688905 eV

  energy without entropy =       32.02688905  energy(sigma->0) =       32.02688905


--------------------------------------------------------------------------------------------------------




--------------------------------------- Iteration      1(   3)  ---------------------------------------


     EDDAV:  cpu time    8.0701: real time    8.0705
 BZINTS: Fermi energy:    0.914336;  399.000000 electrons
         Band energy:-0.116033E+04;  BLOECHL correction:   -0.035019
       DOS:  cpu time    0.0098: real time    0.0098
    --------------------------------------------
      LOOP:  cpu time    8.0799: real time    8.0803

 eigenvalue-minimisations  :  5908
 total energy-change (2. order) :-0.1519989E+03  (-0.1454837E+03)
 number of electron     399.0000069 magnetization 
 augmentation part      399.0000069 magnetization 

 Free energy of the ion-electron system (eV)
  ---------------------------------------------------
  alpha Z        PSCENC =      1018.26903432
  Ewald energy   TEWEN  =     96518.64146091
  -Hartree energ DENC   =   -131048.59528027
  -exchange      EXHF   =         0.00000000
  -V(xc)+E(xc)   XCENC  =       536.04557957
  PAW double counting   =     36212.53887339   -35471.02036644
  entropy T*S    EENTRO =         0.00000000
  eigenvalues    EBANDS =     -1160.33208549
  atomic energy  EATOM  =     33274.48077808
  Solvation  Ediel_sol  =         0.00000000
  ---------------------------------------------------
  free energy    TOTEN  =      -119.97200592 eV

  energy without entropy =     -119.97200592  energy(sigma->0) =     -119.97200592


--------------------------------------------------------------------------------------------------------




--------------------------------------- Iteration      1(   4)  ---------------------------------------


     EDDAV:  cpu time    7.6254: real time    7.6258
 BZINTS: Fermi energy:    0.890247;  399.000000 electrons
         Band energy:-0.116424E+04;  BLOECHL correction:   -0.034671
       DOS:  cpu time    0.0100: real time    0.0100
    --------------------------------------------
      LOOP:  cpu time    7.6354: real time    7.6358

 eigenvalue-minimisations  :  5516
 total energy-change (2. order) :-0.3907108E+01  (-0.3895092E+01)
 number of electron     399.0000069 magnetization 
 augmentation part      399.0000069 magnetization 

 Free energy of the ion-electron system (eV)
  ---------------------------------------------------
  alpha Z        PSCENC =      1018.26903432
  Ewald energy   TEWEN  =     96518.64146091
  -Hartree energ DENC   =   -131048.59528027
  -exchange      EXHF   =         0.00000000
  -V(xc)+E(xc)   XCENC  =       536.04557957
  PAW double counting   =     36212.53887339   -35471.02036644
  entropy T*S    EENTRO =         0.00000000
  eigenvalues    EBANDS =     -1164.23919310
  atomic energy  EATOM  =     33274.48077808
  Solvation  Ediel_sol  =         0.00000000
  ---------------------------------------------------
  free energy    TOTEN  =      -123.87911353 eV

  energy without entropy =     -123.87911353  energy(sigma->0) =     -123.87911353


--------------------------------------------------------------------------------------------------------




--------------------------------------- Iteration      1(   5)  ---------------------------------------


     EDDAV:  cpu time    8.4461: real time    8.4465
 BZINTS: Fermi energy:    0.889568;  399.000000 electrons
         Band energy:-0.116438E+04;  BLOECHL correction:   -0.034639
       DOS:  cpu time    0.0101: real time    0.0101
    --------------------------------------------
      LOOP:  cpu time    8.4562: real time    8.4566

 eigenvalue-minimisations  :  6244
 total energy-change (2. order) :-0.1389754E+00  (-0.1389452E+00)
 number of electron     399.0000069 magnetization 
 augmentation part      399.0000069 magnetization 

 Free energy of the ion-electron system (eV)
  ---------------------------------------------------
  alpha Z        PSCENC =      1018.26903432
  Ewald energy   TEWEN  =     96518.64146091
  -Hartree energ DENC   =   -131048.59528027
  -exchange      EXHF   =         0.00000000
  -V(xc)+E(xc)   XCENC  =       536.04557957
  PAW double counting   =     36212.53887339   -35471.02036644
  entropy T*S    EENTRO =         0.00000000
  eigenvalues    EBANDS =     -1164.37816845
  atomic energy  EATOM  =     33274.48077808
  Solvation  Ediel_sol  =         0.00000000
  ---------------------------------------------------
  free energy    TOTEN  =      -124.01808888 eV

  energy without entropy =     -124.01808888  energy(sigma->0) =     -124.01808888


--------------------------------------------------------------------------------------------------------




--------------------------------------- Iteration      1(   6)  ---------------------------------------


    EDDIAG:  cpu time    1.3994: real time    1.3997
  RMM-DIIS:  cpu time    3.9766: real time    3.9768
    ORTHCH:  cpu time    0.2604: real time    0.2604
 BZINTS: Fermi energy:    0.889565;  399.000000 electrons
         Band energy:-0.116438E+04;  BLOECHL correction:   -0.034639
       DOS:  cpu time    0.0098: real time    0.0098
    --------------------------------------------
      LOOP:  cpu time    5.6461: real time    5.6467

 eigenvalue-minimisations  :  5160
 total energy-change (2. order) :-0.4151465E-02  (-0.4151614E-02)
 number of electron     399.0000069 magnetization 
 augmentation part      399.0000069 magnetization 

 Free energy of the ion-electron system (eV)
  ---------------------------------------------------
  alpha Z        PSCENC =      1018.26903432
  Ewald energy   TEWEN  =     96518.64146091
  -Hartree energ DENC   =   -131048.59528027
  -exchange      EXHF   =         0.00000000
  -V(xc)+E(xc)   XCENC  =       536.04557957
  PAW double counting   =     36212.53887339   -35471.02036644
  entropy T*S    EENTRO =         0.00000000
  eigenvalues    EBANDS =     -1164.38231991
  atomic energy  EATOM  =     33274.48077808
  Solvation  Ediel_sol  =         0.00000000
  ---------------------------------------------------
  free energy    TOTEN  =      -124.02224035 eV

  energy without entropy =     -124.02224035  energy(sigma->0) =     -124.02224035


--------------------------------------------------------------------------------------------------------




--------------------------------------- Iteration      1(   7)  ---------------------------------------


    EDDIAG:  cpu time    1.4010: real time    1.4011
  RMM-DIIS:  cpu time    5.8002: real time    5.8037
    ORTHCH:  cpu time    0.2607: real time    0.2607
 BZINTS: Fermi energy:    0.889564;  399.000000 electrons
         Band energy:-0.116438E+04;  BLOECHL correction:   -0.034639
       DOS:  cpu time    0.0094: real time    0.0094
    --------------------------------------------
      LOOP:  cpu time    7.4712: real time    7.4749

 eigenvalue-minimisations  :  7561
 total energy-change (2. order) :-0.2406243E-02  (-0.2340003E-02)
 number of electron     399.0000069 magnetization 
 augmentation part      399.0000069 magnetization 

 Free energy of the ion-electron system (eV)
  ---------------------------------------------------
  alpha Z        PSCENC =      1018.26903432
  Ewald energy   TEWEN  =     96518.64146091
  -Hartree energ DENC   =   -131048.59528027
  -exchange      EXHF   =         0.00000000
  -V(xc)+E(xc)   XCENC  =       536.04557957
  PAW double counting   =     36212.53887339   -35471.02036644
  entropy T*S    EENTRO =         0.00000000
  eigenvalues    EBANDS =     -1164.38472616
  atomic energy  EATOM  =     33274.48077808
  Solvation  Ediel_sol  =         0.00000000
  ---------------------------------------------------
  free energy    TOTEN  =      -124.02464659 eV

  energy without entropy =     -124.02464659  energy(sigma->0) =     -124.02464659


--------------------------------------------------------------------------------------------------------




--------------------------------------- Iteration      1(   8)  ---------------------------------------


    EDDIAG:  cpu time    1.4022: real time    1.4023
  RMM-DIIS:  cpu time    5.5768: real time    5.5771
    ORTHCH:  cpu time    0.2607: real time    0.2607
 BZINTS: Fermi energy:    0.889564;  399.000000 electrons
         Band energy:-0.116439E+04;  BLOECHL correction:   -0.034639
       DOS:  cpu time    0.0102: real time    0.0102
    --------------------------------------------
      LOOP:  cpu time    7.2499: real time    7.2502

 eigenvalue-minimisations  :  7219
 total energy-change (2. order) :-0.2797674E-03  (-0.2779656E-03)
 number of electron     399.0000069 magnetization 
 augmentation part      399.0000069 magnetization 

 Free energy of the ion-electron system (eV)
  ---------------------------------------------------
  alpha Z        PSCENC =      1018.26903432
  Ewald energy   TEWEN  =     96518.64146091
  -Hartree energ DENC   =   -131048.59528027
  -exchange      EXHF   =         0.00000000
  -V(xc)+E(xc)   XCENC  =       536.04557957
  PAW double counting   =     36212.53887339   -35471.02036644
  entropy T*S    EENTRO =         0.00000000
  eigenvalues    EBANDS =     -1164.38500592
  atomic energy  EATOM  =     33274.48077808
  Solvation  Ediel_sol  =         0.00000000
  ---------------------------------------------------
  free energy    TOTEN  =      -124.02492636 eV

  energy without entropy =     -124.02492636  energy(sigma->0) =     -124.02492636


--------------------------------------------------------------------------------------------------------




--------------------------------------- Iteration      1(   9)  ---------------------------------------


    EDDIAG:  cpu time    1.4044: real time    1.4077
  RMM-DIIS:  cpu time    5.2195: real time    5.2197
    ORTHCH:  cpu time    0.2608: real time    0.2608
 BZINTS: Fermi energy:    0.889564;  399.000000 electrons
         Band energy:-0.116439E+04;  BLOECHL correction:   -0.034639
       DOS:  cpu time    0.0100: real time    0.0100
    --------------------------------------------
      LOOP:  cpu time    6.8946: real time    6.8981

 eigenvalue-minimisations  :  6274
 total energy-change (2. order) :-0.3952850E-04  (-0.3958129E-04)
 number of electron     399.0000069 magnetization 
 augmentation part      399.0000069 magnetization 

 Free energy of the ion-electron system (eV)
  ---------------------------------------------------
  alpha Z        PSCENC =      1018.26903432
  Ewald energy   TEWEN  =     96518.64146091
  -Hartree energ DENC   =   -131048.59528027
  -exchange      EXHF   =         0.00000000
  -V(xc)+E(xc)   XCENC  =       536.04557957
  PAW double counting   =     36212.53887339   -35471.02036644
  entropy T*S    EENTRO =         0.00000000
  eigenvalues    EBANDS =     -1164.38504545
  atomic energy  EATOM  =     33274.48077808
  Solvation  Ediel_sol  =         0.00000000
  ---------------------------------------------------
  free energy    TOTEN  =      -124.02496589 eV

  energy without entropy =     -124.02496589  energy(sigma->0) =     -124.02496589


--------------------------------------------------------------------------------------------------------




--------------------------------------- Iteration      1(  10)  ---------------------------------------


    EDDIAG:  cpu time    1.4016: real time    1.4018
  RMM-DIIS:  cpu time    3.5070: real time    3.5072
    ORTHCH:  cpu time    0.2609: real time    0.2609
 BZINTS: Fermi energy:    0.889564;  399.000000 electrons
         Band energy:-0.116439E+04;  BLOECHL correction:   -0.034639
       DOS:  cpu time    0.0094: real time    0.0094
    --------------------------------------------
      LOOP:  cpu time    5.1789: real time    5.1793

 eigenvalue-minimisations  :  3867
 total energy-change (2. order) :-0.5018926E-05  (-0.5050415E-05)
 number of electron     399.0000069 magnetization 
 augmentation part      399.0000069 magnetization 

 Free energy of the ion-electron system (eV)
  ---------------------------------------------------
  alpha Z        PSCENC =      1018.26903432
  Ewald energy   TEWEN  =     96518.64146091
  -Hartree energ DENC   =   -131048.59528027
  -exchange      EXHF   =         0.00000000
  -V(xc)+E(xc)   XCENC  =       536.04557957
  PAW double counting   =     36212.53887339   -35471.02036644
  entropy T*S    EENTRO =         0.00000000
  eigenvalues    EBANDS =     -1164.38505047
  atomic energy  EATOM  =     33274.48077808
  Solvation  Ediel_sol  =         0.00000000
  ---------------------------------------------------
  free energy    TOTEN  =      -124.02497091 eV

  energy without entropy =     -124.02497091  energy(sigma->0) =     -124.02497091


--------------------------------------------------------------------------------------------------------




 average (electrostatic) potential at core
  the test charge radii are     1.2098  1.0210  0.7215  0.5201
  (the norm of the test charge is              1.0000)
       1 -72.1860       2 -72.1533       3 -72.1532       4 -72.1533       5 -72.1590
       6 -72.1530       7 -72.1532       8 -72.1530       9 -72.1708      10 -72.5045
      11 -72.4685      12 -72.5042      13 -72.4685      14 -72.4682      15 -72.5005
      16 -72.5042      17 -72.5005      18 -72.5005      19 -72.4175      20 -72.6024
      21 -72.6021      22 -72.4682      23 -72.6021      24 -72.4681      25 -72.4173
      26 -72.4175      27 -72.4682      28 -72.0603      29 -72.1131      30 -72.1129
      31 -72.1131      32 -72.1128      33 -72.1129      34 -72.1128      35 -72.0368
      36 -49.1633      37 -75.7133      38 -40.0297
 
 
 
 E-fermi :   0.8896     XC(G=0):  -6.1368     alpha+bet : -5.7478

 Fermi energy:         0.8895637779

 k-point     1 :       0.0000    0.0000    0.0000
  band No.  band energies     occupation 
      1     -19.2257      2.00000
      2      -7.9935      2.00000
      3      -7.7139      2.00000
      4      -6.7194      2.00000
      5      -5.8186      2.00000
      6      -5.7968      2.00000
      7      -5.7915      2.00000
      8      -5.7915      2.00000
      9      -5.7724      2.00000
     10      -5.7509      2.00000
     11      -5.7509      2.00000
     12      -5.6200      2.00000
     13      -5.3185      2.00000
     14      -5.3042      2.00000
     15      -5.3042      2.00000
     16      -5.2661      2.00000
     17      -5.2573      2.00000
     18      -5.2573      2.00000
     19      -4.9273      2.00000
     20      -4.9273      2.00000
     21      -4.9082      2.00000
     22      -4.9000      2.00000
     23      -4.8698      2.00000
     24      -4.8698      2.00000
     25      -4.7482      2.00000
     26      -4.7481      2.00000
     27      -4.7356      2.00000
     28      -4.7106      2.00000
     29      -4.7105      2.00000
     30      -4.7062      2.00000
     31      -4.5801      2.00000
     32      -4.5801      2.00000
     33      -4.5627      2.00000
     34      -4.5583      2.00000
     35      -4.5583      2.00000
     36      -4.5461      2.00000
     37      -4.5461      2.00000
     38      -4.5395      2.00000
     39      -4.5214      2.00000
     40      -4.3990      2.00000
     41      -4.3730      2.00000
     42      -4.3730      2.00000
     43      -4.0667      2.00000
     44      -4.0667      2.00000
     45      -4.0370      2.00000
     46      -4.0087      2.00000
     47      -4.0086      2.00000
     48      -3.9986      2.00000
     49      -3.9986      2.00000
     50      -3.9809      2.00000
     51      -3.9557      2.00000
     52      -3.9557      2.00000
     53      -3.9128      2.00000
     54      -3.8972      2.00000
     55      -3.8432      2.00000
     56      -3.8402      2.00000
     57      -3.6827      2.00000
     58      -3.6826      2.00000
     59      -3.4802      2.00000
     60      -3.4722      2.00000
     61      -3.4471      2.00000
     62      -3.4452      2.00000
     63      -3.4451      2.00000
     64      -3.4269      2.00000
     65      -3.4269      2.00000
     66      -3.4041      2.00000
     67      -3.4041      2.00000
     68      -3.3515      2.00000
     69      -3.3515      2.00000
     70      -3.3040      2.00000
     71      -3.2996      2.00000
     72      -3.2996      2.00000
     73      -3.2616      2.00000
     74      -3.2246      2.00000
     75      -3.2246      2.00000
     76      -3.2182      2.00000
     77      -3.2056      2.00000
     78      -3.2046      2.00000
     79      -3.2046      2.00000
     80      -3.1993      2.00000
     81      -3.1993      2.00000
     82      -3.1852      2.00000
     83      -3.1852      2.00000
     84      -3.1308      2.00000
     85      -3.1292      2.00000
     86      -3.1292      2.00000
     87      -3.0837      2.00000
     88      -3.0836      2.00000
     89      -3.0726      2.00000
     90      -3.0725      2.00000
     91      -3.0586      2.00000
     92      -3.0245      2.00000
     93      -2.9859      2.00000
     94      -2.9859      2.00000
     95      -2.8205      2.00000
     96      -2.8205      2.00000
     97      -2.8011      2.00000
     98      -2.8011      2.00000
     99      -2.7907      2.00000
    100      -2.7907      2.00000
    101      -2.6271      2.00000
    102      -2.6271      2.00000
    103      -2.6222      2.00000
    104      -2.5969      2.00000
    105      -2.5969      2.00000
    106      -2.5674      2.00000
    107      -2.4357      2.00000
    108      -2.4356      2.00000
    109      -2.4178      2.00000
    110      -2.3955      2.00000
    111      -2.3955      2.00000
    112      -2.3804      2.00000
    113      -2.3776      2.00000
    114      -2.3776      2.00000
    115      -2.3487      2.00000
    116      -2.2786      2.00000
    117      -2.2779      2.00000
    118      -2.2650      2.00000
    119      -2.2649      2.00000
    120      -2.1475      2.00000
    121      -2.0940      2.00000
    122      -2.0940      2.00000
    123      -2.0853      2.00000
    124      -2.0442      2.00000
    125      -2.0442      2.00000
    126      -2.0295      2.00000
    127      -2.0295      2.00000
    128      -1.9895      2.00000
    129      -1.9894      2.00000
    130      -1.9689      2.00000
    131      -1.9688      2.00000
    132      -1.8491      2.00000
    133      -1.8490      2.00000
    134      -1.8435      2.00000
    135      -1.8310      2.00000
    136      -1.8310      2.00000
    137      -1.8215      2.00000
    138      -1.8212      2.00000
    139      -1.7856      2.00000
    140      -1.7855      2.00000
    141      -1.7194      2.00000
    142      -1.7194      2.00000
    143      -1.6840      2.00000
    144      -1.6387      2.00000
    145      -1.6386      2.00000
    146      -1.5913      2.00000
    147      -1.5850      2.00000
    148      -1.5850      2.00000
    149      -1.5655      2.00000
    150      -1.5654      2.00000
    151      -1.5373      2.00000
    152      -1.5304      2.00000
    153      -1.5303      2.00000
    154      -1.5212      2.00000
    155      -1.5014      2.00000
    156      -1.4808      2.00000
    157      -1.4807      2.00000
    158      -1.4137      2.00000
    159      -1.3868      2.00000
    160      -1.3781      2.00000
    161      -1.3781      2.00000
    162      -1.3746      2.00000
    163      -1.3647      2.00000
    164      -1.3647      2.00000
    165      -1.3636      2.00000
    166      -1.3378      2.00000
    167      -1.3378      2.00000
    168      -1.3154      2.00000
    169      -1.3153      2.00000
    170      -1.2866      2.00000
    171      -1.2866      2.00000
    172      -1.2667      2.00000
    173      -1.2628      2.00000
    174      -1.2572      2.00000
    175      -1.2570      2.00000
    176      -1.2570      2.00000
    177      -1.2311      2.00000
    178      -1.2125      2.00000
    179      -1.2124      2.00000
    180      -1.1875      2.00000
    181      -1.1707      2.00000
    182      -1.1707      2.00000
    183      -1.1622      2.00000
    184      -1.1557      2.00000
    185      -1.1557      2.00000
    186      -1.1176      2.00000
    187      -1.0407      2.00000
    188      -1.0406      2.00000
    189      -0.9889      2.00000
    190      -0.9889      2.00000
    191      -0.9501      2.00000
    192      -0.9500      2.00000
    193      -0.9420      2.00000
    194      -0.9134      2.00000
    195      -0.1595      2.00000
    196       0.0832      2.00000
    197       0.2968      2.00000
    198       0.2968      2.00000
    199       0.3211      2.00000
    200       0.4202      2.00000
    201       0.4202      2.00000
    202       0.7672      2.00000
    203       0.7672      2.00000
    204       0.9437      0.00000
    205       0.9438      0.00000
    206       1.2101      0.00000
    207       1.6215      0.00000
    208       2.4378      0.00000
    209       2.4926      0.00000
    210       2.4926      0.00000
    211       2.5452      0.00000
    212       2.5452      0.00000
    213       3.0877      0.00000
    214       3.6566      0.00000
    215       3.6566      0.00000
    216       3.7008      0.00000
    217       3.7008      0.00000
    218       3.7356      0.00000
    219       3.8672      0.00000
    220       4.3200      0.00000
    221       4.8101      0.00000
    222       5.2404      0.00000
    223       5.4185      0.00000
    224       5.4185      0.00000
    225       5.4786      0.00000
    226       5.4983      0.00000
    227       5.5515      0.00000
    228       5.5515      0.00000
    229       5.6235      0.00000
    230       5.6235      0.00000
    231       5.7349      0.00000
    232       5.7349      0.00000
    233       5.7924      0.00000
    234       6.3427      0.00000
    235       6.4292      0.00000
    236       6.8954      0.00000
    237       6.9351      0.00000
    238       7.0419      0.00000
    239       7.0424      0.00000
    240       7.1562      0.00000
    241       7.1927      0.00000
    242       7.1943      0.00000
    243       7.2111      0.00000
    244       7.2216      0.00000
    245       7.2253      0.00000
    246       7.4256      0.00000
[...]
  0.000   0.000   0.000   0.000   0.000   0.000   0.000   0.000   0.000   0.000   0.000   0.000   0.000   0.000   0.000   0.000
  0.000   0.000   0.000   0.000   0.000   0.000   0.000   0.000   0.000   0.000   0.000   0.000   0.000   0.000   0.000   0.000
  0.000   0.000   0.000   0.000   0.000   0.000   0.000   0.000   0.000   0.000   1.000   0.000   0.000   0.000   0.000   0.000
  0.000   0.000   0.000   0.000   0.000   0.000   0.000   0.000   0.000   0.000   0.000   0.000   0.000   0.000   0.000   0.000
  0.000   0.000   0.000   0.000   0.000   0.000   0.000   0.000   0.000   0.000   0.000   0.000   0.000   0.000   0.000   0.000
  0.000   0.000   0.000   0.000   0.000   0.000   0.000   0.000   0.000   0.000   0.000   0.000   0.000   0.000   0.000   0.000
  0.000   0.000   0.000   0.000   0.000   0.000   0.000   0.000   0.000   0.000   0.000   0.000   0.000   0.000   0.000   0.000
  0.000   0.000   0.000   0.000   0.000   0.000   0.000   0.000   0.000   0.000   0.000   0.000   0.000   0.000   0.000   0.000
  0.000   0.000   0.000   0.000   0.000   0.000   0.000   0.000   0.000   0.000   0.000   0.000   0.000   0.000   0.000   0.000
  0.000   0.000   0.000   0.000   0.000   0.000   0.000   0.000   0.000   0.000   0.000   0.000   0.000   0.000   0.000   0.000


------------------------ aborting loop because EDIFF is reached ----------------------------------------





 total charge

# of ion       s       p       d       tot
------------------------------------------
    1        0.547   0.238   8.767   9.552
    2        0.544   0.241   8.764   9.550
    3        0.544   0.241   8.764   9.550
    4        0.544   0.241   8.764   9.550
    5        0.544   0.242   8.762   9.548
    6        0.544   0.241   8.764   9.550
    7        0.544   0.241   8.764   9.550
    8        0.544   0.241   8.764   9.550
    9        0.542   0.241   8.766   9.548
   10        0.523   0.308   8.770   9.601
   11        0.520   0.310   8.777   9.606
   12        0.523   0.308   8.770   9.601
   13        0.520   0.310   8.777   9.606
   14        0.520   0.310   8.777   9.606
   15        0.515   0.310   8.775   9.600
   16        0.523   0.308   8.770   9.601
   17        0.515   0.310   8.775   9.600
   18        0.515   0.310   8.775   9.600
   19        0.516   0.299   8.777   9.592
   20        0.551   0.336   8.744   9.631
   21        0.551   0.336   8.744   9.631
   22        0.509   0.310   8.776   9.595
   23        0.551   0.336   8.744   9.631
   24        0.509   0.310   8.776   9.595
   25        0.516   0.299   8.777   9.592
   26        0.516   0.299   8.777   9.592
   27        0.509   0.310   8.776   9.595
   28        0.541   0.225   8.765   9.531
   29        0.550   0.238   8.765   9.553
   30        0.550   0.238   8.765   9.553
   31        0.550   0.238   8.765   9.553
   32        0.550   0.238   8.765   9.553
   33        0.550   0.238   8.765   9.553
   34        0.550   0.238   8.765   9.553
   35        0.535   0.225   8.766   9.526
   36        0.292   0.339   5.015   5.646
   37        1.557   3.511   0.000   5.068
   38        0.603   0.125   0.000   0.728
--------------------------------------------------
tot         21.132  13.637 311.868 346.637
 
    CHARGE:  cpu time    0.3379: real time    0.3381
    FORLOC:  cpu time    0.0110: real time    0.0110
    FORNL :  cpu time    1.4369: real time    1.4372
    STRESS:  cpu time    4.3057: real time    4.3061
    FORCOR:  cpu time    0.0560: real time    0.0561
    FORHAR:  cpu time    0.0175: real time    0.0175
    OFIELD:  cpu time    0.0002: real time    0.0002

  FORCE on cell =-STRESS in cart. coord.  units (eV):
  Direction    XX          YY          ZZ          XY          YZ          ZX
  --------------------------------------------------------------------------------------
  Alpha Z  1018.26903  1018.26903  1018.26903
  Ewald  119086.20761119086.20805************    -0.00031    -0.00008    -0.00012
  Hartree127956.08220127956.08221************     0.00001    -0.00002    -0.00003
  E(xc)   -1793.20292 -1793.20292 -1798.98005     0.00000     0.00000     0.00001
  Local  ************************259363.15055     0.00205     0.00001    -0.00002
  n-local  -129.89597   -81.40285   -78.35640    23.23836    -1.42849     1.39852
  augment  2404.03021  2404.03173  2413.23326    -0.00131     0.00002     0.00004
  Kinetic  5561.19975  5573.61533  5577.49230     6.69899     0.11873     0.57518
  Fock        0.00000     0.00000     0.00000     0.00000     0.00000     0.00000
  -------------------------------------------------------------------------------------
  Total     -21.33476   -21.33476     1.50255    -0.00000     0.00000     0.00000
  in kB     -22.89238   -22.89238     1.61225    -0.00000     0.00000     0.00000
  external pressure =      -14.72 kB  Pullay stress =        0.00 kB


 VOLUME and BASIS-vectors are now :
 -----------------------------------------------------------------------------
  energy-cutoff  :      500.00
  volume of cell :     1493.16
      direct lattice vectors                 reciprocal lattice vectors
     8.813512802  0.000000000  0.000000000     0.113462137 -0.065507406  0.000000000
     4.406756909  7.632725690  0.000000000     0.000000000  0.131014796  0.000000000
     0.000000000  0.000000000 22.196203232     0.000000000  0.000000000  0.045052750

  length of vectors
     8.813512802  8.813512802 22.196203232     0.131014796  0.131014796  0.045052750


 FORCES acting on ions
    electron-ion (+dipol)            ewald-force                    non-local-force                 convergence-correction
 -----------------------------------------------------------------------------------------------
   -.194E-04 -.161E-04 0.249E+04   0.519E-04 0.434E-04 -.249E+04   -.958E-17 -.151E-17 -.874E+00   -.296E-03 -.184E-03 -.382E+00
   0.504E+00 0.201E+00 0.249E+04   -.639E+00 -.338E+00 -.249E+04   0.409E-01 0.104E+00 -.274E+00   0.847E-01 0.390E-01 -.407E+00
   -.504E+00 0.201E+00 0.249E+04   0.639E+00 -.338E+00 -.249E+04   -.409E-01 0.104E+00 -.274E+00   -.843E-01 0.410E-01 -.406E+00
   0.426E+00 0.336E+00 0.249E+04   -.612E+00 -.384E+00 -.249E+04   0.111E+00 -.168E-01 -.274E+00   0.762E-01 0.538E-01 -.407E+00
   0.952E-05 -.228E-04 0.249E+04   0.951E-04 0.174E-05 -.249E+04   -.245E-17 0.373E-18 -.186E+00   0.432E-02 0.263E-02 -.410E+00
   -.426E+00 0.336E+00 0.249E+04   0.612E+00 -.384E+00 -.249E+04   -.111E+00 -.168E-01 -.274E+00   -.778E-01 0.546E-01 -.406E+00
   -.783E-01 -.537E+00 0.249E+04   0.265E-01 0.722E+00 -.249E+04   0.700E-01 -.876E-01 -.274E+00   -.663E-02 -.935E-01 -.406E+00
   0.783E-01 -.537E+00 0.249E+04   -.266E-01 0.722E+00 -.249E+04   -.700E-01 -.876E-01 -.274E+00   0.845E-02 -.947E-01 -.406E+00
   0.194E-04 -.416E-04 0.249E+04   0.166E-03 -.201E-04 -.249E+04   0.192E-17 0.183E-17 -.508E+00   -.456E-02 -.236E-02 -.333E+00
   0.477E+01 0.275E+01 0.843E+03   -.443E+01 -.255E+01 -.842E+03   -.365E+00 -.210E+00 -.646E+00   0.660E-01 0.380E-01 -.442E-01
   0.149E-04 0.526E+01 0.851E+03   0.147E-03 -.532E+01 -.851E+03   0.357E-08 0.536E-01 -.274E+00   0.436E-02 -.385E-01 0.543E-01
   -.477E+01 0.275E+01 0.843E+03   0.443E+01 -.255E+01 -.842E+03   0.365E+00 -.210E+00 -.646E+00   -.678E-01 0.392E-01 -.435E-01
   0.455E+01 -.263E+01 0.851E+03   -.461E+01 0.266E+01 -.851E+03   0.464E-01 -.268E-01 -.274E+00   -.308E-01 0.233E-01 0.543E-01
   -.455E+01 -.263E+01 0.851E+03   0.461E+01 0.266E+01 -.851E+03   -.464E-01 -.268E-01 -.274E+00   0.386E-01 0.221E-01 0.537E-01
   0.310E-04 0.375E+01 0.847E+03   0.236E-03 -.387E+01 -.846E+03   -.185E-09 -.278E-02 -.526E+00   -.249E-02 0.801E-01 -.461E-01
   -.215E-04 -.550E+01 0.843E+03   0.163E-03 0.511E+01 -.842E+03   0.280E-07 0.421E+00 -.646E+00   -.178E-03 -.784E-01 -.435E-01
   0.325E+01 -.188E+01 0.847E+03   -.335E+01 0.194E+01 -.846E+03   -.241E-02 0.139E-02 -.526E+00   0.684E-01 -.418E-01 -.461E-01
   -.325E+01 -.188E+01 0.847E+03   0.335E+01 0.194E+01 -.846E+03   0.241E-02 0.139E-02 -.526E+00   -.678E-01 -.394E-01 -.448E-01
   -.410E-04 0.190E+01 -.835E+03   0.542E-04 -.230E+01 0.834E+03   0.802E-08 0.121E+00 0.683E+00   -.464E-02 0.229E+00 0.459E+00
   0.221E+02 0.128E+02 -.793E+03   -.214E+02 -.123E+02 0.793E+03   -.108E+01 -.624E+00 -.961E+00   0.355E+00 0.205E+00 0.823E+00
   -.221E+02 0.128E+02 -.793E+03   0.214E+02 -.123E+02 0.793E+03   0.108E+01 -.624E+00 -.961E+00   -.352E+00 0.204E+00 0.823E+00
   0.304E+01 -.176E+01 -.819E+03   -.344E+01 0.199E+01 0.818E+03   0.382E+00 -.220E+00 0.620E+00   0.649E-01 -.356E-01 0.498E+00
   -.917E-05 -.255E+02 -.793E+03   0.141E-03 0.247E+02 0.793E+03   0.830E-07 0.125E+01 -.961E+00   0.443E-03 -.407E+00 0.823E+00
   -.304E+01 -.176E+01 -.819E+03   0.344E+01 0.199E+01 0.818E+03   -.382E+00 -.220E+00 0.620E+00   -.649E-01 -.374E-01 0.498E+00
   -.165E+01 -.952E+00 -.835E+03   0.199E+01 0.115E+01 0.834E+03   -.104E+00 -.603E-01 0.683E+00   -.203E+00 -.117E+00 0.458E+00
   0.165E+01 -.952E+00 -.835E+03   -.199E+01 0.115E+01 0.834E+03   0.104E+00 -.603E-01 0.683E+00   0.196E+00 -.119E+00 0.459E+00
   0.119E-04 0.352E+01 -.819E+03   0.196E-03 -.397E+01 0.818E+03   0.293E-07 0.441E+00 0.620E+00   0.106E-02 0.740E-01 0.498E+00
   -.131E-04 -.136E-04 -.246E+04   0.301E-04 0.345E-04 0.246E+04   -.629E-17 -.121E-17 0.407E+00   -.378E-03 -.236E-03 0.658E+00
   0.349E+02 0.572E+02 -.243E+04   -.349E+02 -.573E+02 0.243E+04   -.514E+00 -.628E+00 0.522E+00   0.311E+00 0.441E+00 0.582E+00
   -.349E+02 0.572E+02 -.243E+04   0.349E+02 -.573E+02 0.243E+04   0.514E+00 -.628E+00 0.522E+00   -.311E+00 0.443E+00 0.581E+00
   0.669E+02 0.164E+01 -.243E+04   -.671E+02 -.153E+01 0.243E+04   -.800E+00 -.131E+00 0.522E+00   0.538E+00 0.491E-01 0.582E+00
   -.669E+02 0.164E+01 -.243E+04   0.671E+02 -.153E+01 0.243E+04   0.800E+00 -.131E+00 0.522E+00   -.539E+00 0.495E-01 0.581E+00
   0.321E+02 -.588E+02 -.243E+04   -.322E+02 0.589E+02 0.243E+04   -.287E+00 0.759E+00 0.522E+00   0.228E+00 -.490E+00 0.581E+00
   -.321E+02 -.588E+02 -.243E+04   0.322E+02 0.589E+02 0.243E+04   0.287E+00 0.759E+00 0.522E+00   -.227E+00 -.492E+00 0.581E+00
   0.350E-04 -.282E-04 -.246E+04   0.141E-03 -.499E-04 0.246E+04   0.357E-17 0.692E-17 0.529E+00   -.428E-02 -.218E-02 0.484E+00
   -.303E-04 -.148E-04 -.130E+04   0.740E-04 0.688E-05 0.130E+04   -.307E-17 -.438E-17 -.542E-02   0.324E-02 0.197E-02 0.680E+00
   0.198E-03 -.922E-04 -.158E+04   0.250E-04 0.163E-05 0.156E+04   0.334E-17 -.137E-17 0.201E+02   0.378E-02 0.231E-02 -.417E+00
   0.777E-05 -.131E-04 -.318E+03   0.138E-05 0.122E-06 0.327E+03   0.890E-19 -.320E-19 -.848E+01   0.207E-03 0.126E-03 -.145E+00
 -----------------------------------------------------------------------------------------------
   -.576E-03 -.881E-03 -.152E+02   0.659E-14 0.196E-12 0.512E-12   0.393E-17 -.554E-15 0.911E+01   0.455E-02 0.339E-02 0.642E+01
 
 
 POSITION                                       TOTAL-FORCE (eV/Angst)
 -----------------------------------------------------------------------------------
      0.00000      0.00000      5.28038         0.000000      0.000000     -0.131874
      2.93784      0.00000      5.28038        -0.008593      0.007071     -0.057195
      5.87568      0.00000      5.28038         0.008593      0.007071     -0.057195
      1.46892      2.54424      5.28038         0.001827     -0.010977     -0.057195
      4.40676      2.54424      5.28038         0.000000      0.000000     -0.076189
      7.34459      2.54424      5.28038        -0.001827     -0.010977     -0.057195
      2.93784      5.08848      5.28038         0.010420      0.003906     -0.057195
      5.87568      5.08848      5.28038        -0.010420      0.003906     -0.057195
      8.81351      5.08848      5.28038         0.000000      0.000000     -0.088187
      1.46892      0.84808      7.67911         0.042881      0.024758      0.148269
      4.40676      0.84808      7.67911        -0.000000     -0.048972      0.036225
      7.34459      0.84808      7.67911        -0.042881      0.024758      0.148269
      2.93784      3.39232      7.67911        -0.042411      0.024486      0.036225
      5.87568      3.39232      7.67911         0.042411      0.024486      0.036225
      8.81351      3.39232      7.67911        -0.000000     -0.040148      0.103786
      4.40676      5.93656      7.67911        -0.000000     -0.049515      0.148269
      7.34459      5.93656      7.67911        -0.034769      0.020074      0.103786
     10.28243      5.93656      7.67911         0.034769      0.020074      0.103786
      8.81351      1.69603     10.07479        -0.000000     -0.043931     -0.013519
      2.95306      1.70495     10.04990         0.001112      0.000642     -0.017583
      5.86045      1.70495     10.04990        -0.001112      0.000642     -0.017583
     10.26640      4.24966     10.05812         0.050601     -0.029214     -0.002331
      4.40676      4.22282     10.04990        -0.000000     -0.001284     -0.017583
      7.36062      4.24966     10.05812        -0.050601     -0.029214     -0.002331
     11.75147      6.78471     10.07479         0.038045      0.021965     -0.013519
      5.87556      6.78471     10.07479        -0.038045      0.021965     -0.013519
      8.81351      6.76613     10.05812         0.000000      0.058429     -0.002331
      0.00000      0.00000     12.48774         0.000000      0.000000     -0.015591
      2.98478      0.07843     12.47445        -0.184295     -0.372307     -0.205597
      5.82873      0.07843     12.47445         0.184295     -0.372307     -0.205597
      1.56032      2.54568     12.47445        -0.414575      0.026549     -0.205597
      7.25320      2.54568     12.47445         0.414575      0.026549     -0.205597
      2.98229      5.00861     12.47445        -0.230280      0.345757     -0.205597
      5.83122      5.00861     12.47445         0.230280      0.345757     -0.205597
      8.81351      5.08848     12.49541         0.000000      0.000000      0.046936
      4.40676      2.54424     12.16834         0.000000      0.000000      1.216009
      4.40676      2.54424     13.91526         0.000000      0.000000     -0.209926
      4.40676      2.54424     14.88194         0.000000      0.000000      0.071038
 -----------------------------------------------------------------------------------
    total drift:                                0.003977      0.002508      0.347625


--------------------------------------------------------------------------------------------------------



  FREE ENERGIE OF THE ION-ELECTRON SYSTEM (eV)
  ---------------------------------------------------
  free  energy   TOTEN  =      -124.02497091 eV

  energy  without entropy=     -124.02497091  energy(sigma->0) =     -124.02497091
 


--------------------------------------------------------------------------------------------------------


    POTLOK:  cpu time    0.0434: real time    0.0434


--------------------------------------------------------------------------------------------------------


 stress matrix after NEB project (eV)
    -21.33476     -0.00000      0.00000
     -0.00000    -21.33476      0.00000
      0.00000      0.00000      1.50255
  FORCES: max atom, RMS     0.209926    0.035951
  FORCE total and by dimension    0.221619    0.209926
  Stress total and by dimension   30.209295   21.334759
     LOOP+:  cpu time   77.4957: real time   77.5139
 -----------------------------------------------------------------------------
|                                                                             |
|           W    W    AA    RRRRR   N    N  II  N    N   GGGG   !!!           |
|           W    W   A  A   R    R  NN   N  II  NN   N  G    G  !!!           |
|           W    W  A    A  R    R  N N  N  II  N N  N  G       !!!           |
|           W WW W  AAAAAA  RRRRR   N  N N  II  N  N N  G  GGG   !            |
|           WW  WW  A    A  R   R   N   NN  II  N   NN  G    G                |
|           W    W  A    A  R    R  N    N  II  N    N   GGGG   !!!           |
|                                                                             |
|     Tetrahedron method does not include variations of the Fermi             |
|     occupations, so forces and stress will be inaccurate. We suggest        |
|     using a different smearing scheme ISMEAR = 1 or 2 for metals in         |
|     relaxations.                                                            |
|                                                                             |
 -----------------------------------------------------------------------------

    4ORBIT:  cpu time    0.0000: real time    0.0000



 total charge

# of ion       s       p       d       tot
------------------------------------------
    1        0.547   0.238   8.767   9.552
    2        0.544   0.241   8.764   9.550
    3        0.544   0.241   8.764   9.550
    4        0.544   0.241   8.764   9.550
    5        0.544   0.242   8.762   9.548
    6        0.544   0.241   8.764   9.550
    7        0.544   0.241   8.764   9.550
    8        0.544   0.241   8.764   9.550
    9        0.542   0.241   8.766   9.548
   10        0.523   0.308   8.770   9.601
   11        0.520   0.310   8.777   9.606
   12        0.523   0.308   8.770   9.601
   13        0.520   0.310   8.777   9.606
   14        0.520   0.310   8.777   9.606
   15        0.515   0.310   8.775   9.600
   16        0.523   0.308   8.770   9.601
   17        0.515   0.310   8.775   9.600
   18        0.515   0.310   8.775   9.600
   19        0.516   0.299   8.777   9.592
   20        0.551   0.336   8.744   9.631
   21        0.551   0.336   8.744   9.631
   22        0.509   0.310   8.776   9.595
   23        0.551   0.336   8.744   9.631
   24        0.509   0.310   8.776   9.595
   25        0.516   0.299   8.777   9.592
   26        0.516   0.299   8.777   9.592
   27        0.509   0.310   8.776   9.595
   28        0.541   0.225   8.765   9.531
   29        0.550   0.238   8.765   9.553
   30        0.550   0.238   8.765   9.553
   31        0.550   0.238   8.765   9.553
   32        0.550   0.238   8.765   9.553
   33        0.550   0.238   8.765   9.553
   34        0.550   0.238   8.765   9.553
   35        0.535   0.225   8.766   9.526
   36        0.292   0.339   5.015   5.646
   37        1.557   3.511   0.000   5.068
   38        0.603   0.125   0.000   0.728
--------------------------------------------------
tot         21.132  13.637 311.868 346.637
 
 BZINTS: Fermi energy:    0.889564;  399.000000 electrons
         Band energy:-0.116439E+04;  BLOECHL correction:   -0.034639

 total amount of memory used by VASP MPI-rank0   122759. kBytes
=======================================================================

   base      :      30000. kBytes
   nonlr-proj:      13579. kBytes
   fftplans  :       4330. kBytes
   grid      :      18659. kBytes
   one-center:        590. kBytes
   wavefun   :      55601. kBytes
 
  
  
 General timing and accounting informations for this job:
 ========================================================
  
                  Total CPU time used (sec):       84.818
                            User time (sec):       81.761
                          System time (sec):        3.058
                         Elapsed time (sec):       85.152
  
                   Maximum memory used (kb):      380876.
                   Average memory used (kb):          N/A
  
                          Minor page faults:        86142
                          Major page faults:            0
                 Voluntary context switches:         4837
