PROCAR new format
# of k-points:   10         # of bands:  252         # of ions:   38

 k-point     1 :    0.00000000 0.00000000 0.00000000     weight = 0.01562500

band     1 # energy  -19.22568832 # occ.  2.00000000
 
ion      s      p      d    tot
    1  0.000  0.000  0.000  0.000
    2  0.000  0.000  0.000  0.000
    3  0.000  0.000  0.000  0.000
    4  0.000  0.000  0.000  0.000
    5  0.000  0.000  0.000  0.000
    6  0.000  0.000  0.000  0.000
    7  0.000  0.000  0.000  0.000
    8  0.000  0.000  0.000  0.000
    9  0.000  0.000  0.000  0.000
   10  0.000  0.000  0.000  0.000
   11  0.000  0.000  0.000  0.000
   12  0.000  0.000  0.000  0.000
   13  0.000  0.000  0.000  0.000
   14  0.000  0.000  0.000  0.000
   15  0.000  0.000  0.000  0.000
   16  0.000  0.000  0.000  0.000
   17  0.000  0.000  0.000  0.000
   18  0.000  0.000  0.000  0.000
   19  0.000  0.000  0.000  0.000
   20  0.000  0.000  0.000  0.000
   21  0.000  0.000  0.000  0.000
   22  0.000  0.000  0.000  0.000
   23  0.000  0.000  0.000  0.000
   24  0.000  0.000  0.000  0.000
   25  0.000  0.000  0.000  0.000
   26  0.000  0.000  0.000  0.000
   27  0.000  0.000  0.000  0.000
   28  0.000  0.000  0.000  0.000
   29  0.000  0.000  0.000  0.000
   30  0.000  0.000  0.000  0.000
   31  0.000  0.000  0.000  0.000
   32  0.000  0.000  0.000  0.000
   33  0.000  0.000  0.000  0.000
   34  0.000  0.000  0.000  0.000
   35  0.000  0.000  0.000  0.000
   36  0.009  0.011  0.013  0.033
   37  0.744  0.015  0.000  0.759
   38  0.116  0.024  0.000  0.140
tot    0.869  0.051  0.013  0.932
 
band     2 # energy   -7.99349174 # occ.  2.00000000
 
ion      s      p      d    tot
    1  0.005  0.000  0.000  0.005
    2  0.005  0.000  0.000  0.005
    3  0.005  0.000  0.000  0.005
    4  0.005  0.000  0.000  0.005
    5  0.005  0.000  0.000  0.005
    6  0.005  0.000  0.000  0.005
    7  0.005  0.000  0.000  0.005
    8  0.005  0.000  0.000  0.005
    9  0.005  0.000  0.000  0.005
   10  0.020  0.000  0.000  0.020
   11  0.021  0.000  0.000  0.021
   12  0.020  0.000  0.000  0.020
   13  0.021  0.000  0.000  0.021
   14  0.021  0.000  0.000  0.021
   15  0.020  0.000  0.000  0.020
   16  0.020  0.000  0.000  0.020
   17  0.020  0.000  0.000  0.020
   18  0.020  0.000  0.000  0.020
   19  0.019  0.000  0.000  0.019
   20  0.025  0.000  0.000  0.025
   21  0.025  0.000  0.000  0.025
   22  0.020  0.000  0.000  0.020
   23  0.025  0.000  0.000  0.025
   24  0.020  0.000  0.000  0.020
   25  0.019  0.000  0.000  0.019
   26  0.019  0.000  0.000  0.019
   27  0.020  0.000  0.000  0.020
   28  0.004  0.000  0.000  0.004
   29  0.005  0.000  0.000  0.006
   30  0.005  0.000  0.000  0.006
   31  0.005  0.000  0.000  0.006
   32  0.005  0.000  0.000  0.006
   33  0.005  0.000  0.000  0.006
   34  0.005  0.000  0.000  0.006
   35  0.004  0.000  0.000  0.005
   36  0.021  0.003  0.017  0.041
   37  0.003  0.098  0.000  0.101
   38  0.033  0.004  0.000  0.037
tot    0.513  0.113  0.020  0.646
 
band     3 # energy   -7.71392715 # occ.  2.00000000
 
ion      s      p      d    tot
    1  0.002  0.000  0.000  0.003
    2  0.002  0.000  0.000  0.003
    3  0.002  0.000  0.000  0.003
    4  0.002  0.000  0.000  0.003
    5  0.002  0.000  0.000  0.003
    6  0.002  0.000  0.000  0.003
    7  0.002  0.000  0.000  0.003
    8  0.002  0.000  0.000  0.003
    9  0.003  0.000  0.000  0.003
   10  0.007  0.000  0.000  0.008
   11  0.008  0.000  0.000  0.008
   12  0.007  0.000  0.000  0.008
   13  0.008  0.000  0.000  0.008
   14  0.008  0.000  0.000  0.008
   15  0.008  0.000  0.000  0.009
   16  0.007  0.000  0.000  0.008
   17  0.008  0.000  0.000  0.009
   18  0.008  0.000  0.000  0.009
   19  0.004  0.000  0.000  0.004
   20  0.001  0.001  0.001  0.003
   21  0.001  0.001  0.001  0.003
   22  0.004  0.000  0.000  0.005
   23  0.001  0.001  0.001  0.003
   24  0.004  0.000  0.000  0.005
   25  0.004  0.000  0.000  0.004
   26  0.004  0.000  0.000  0.004
   27  0.004  0.000  0.000  0.005
   28  0.000  0.000  0.000  0.000
   29  0.000  0.000  0.001  0.001
   30  0.000  0.000  0.001  0.001
   31  0.000  0.000  0.001  0.001
   32  0.000  0.000  0.001  0.001
   33  0.000  0.000  0.001  0.001
   34  0.000  0.000  0.001  0.001
   35  0.000  0.000  0.000  0.000
   36  0.035  0.029  0.077  0.140
   37  0.020  0.417  0.000  0.437
   38  0.138  0.015  0.000  0.153
tot    0.316  0.466  0.086  0.868
 
band     4 # energy   -6.71944425 # occ.  2.00000000
 
ion      s      p      d    tot
    1  0.017  0.000  0.001  0.019
    2  0.017  0.000  0.001  0.018
    3  0.017  0.000  0.001  0.018
    4  0.017  0.000  0.001  0.018
    5  0.016  0.000  0.001  0.018
    6  0.017  0.000  0.001  0.018
    7  0.017  0.000  0.001  0.018
    8  0.017  0.000  0.001  0.018
    9  0.017  0.000  0.001  0.018
   10  0.010  0.002  0.002  0.014
   11  0.009  0.002  0.003  0.013
   12  0.010  0.002  0.002  0.014
   13  0.009  0.002  0.003  0.013
   14  0.009  0.002  0.003  0.013
   15  0.009  0.002  0.003  0.013
   16  0.010  0.002  0.002  0.014
   17  0.009  0.002  0.003  0.013
   18  0.009  0.002  0.003  0.013
   19  0.016  0.001  0.004  0.021
   20  0.015  0.001  0.005  0.021
   21  0.015  0.001  0.005  0.021
   22  0.017  0.001  0.004  0.022
   23  0.015  0.001  0.005  0.021
   24  0.017  0.001  0.004  0.022
   25  0.016  0.001  0.004  0.021
   26  0.016  0.001  0.004  0.021
   27  0.017  0.001  0.004  0.022
   28  0.013  0.001  0.000  0.014
   29  0.012  0.001  0.000  0.013
   30  0.012  0.001  0.000  0.013
   31  0.012  0.001  0.000  0.013
   32  0.012  0.001  0.000  0.013
   33  0.012  0.001  0.000  0.013
   34  0.012  0.001  0.000  0.013
   35  0.013  0.001  0.000  0.014
   36  0.001  0.003  0.005  0.009
   37  0.002  0.013  0.000  0.014
   38  0.004  0.000  0.000  0.004
tot    0.480  0.047  0.080  0.607
 
band     5 # energy   -5.81855709 # occ.  2.00000000
 
ion      s      p      d    tot
    1  0.008  0.000  0.020  0.028
    2  0.015  0.000  0.016  0.031
    3  0.015  0.000  0.016  0.031
    4  0.015  0.000  0.016  0.031
    5  0.008  0.000  0.014  0.022
    6  0.015  0.000  0.016  0.031
    7  0.015  0.000  0.016  0.031
    8  0.015  0.000  0.016  0.031
    9  0.035  0.000  0.010  0.045
   10  0.012  0.001  0.022  0.035
   11  0.018  0.002  0.016  0.036
   12  0.012  0.001  0.022  0.035
   13  0.018  0.002  0.016  0.036
   14  0.018  0.002  0.016  0.036
   15  0.000  0.001  0.026  0.027
   16  0.012  0.001  0.022  0.035
   17  0.000  0.001  0.026  0.027
   18  0.000  0.001  0.026  0.027
   19  0.001  0.001  0.008  0.009
   20  0.007  0.001  0.008  0.016
   21  0.007  0.001  0.008  0.016
   22  0.006  0.001  0.002  0.009
   23  0.007  0.001  0.008  0.016
   24  0.006  0.001  0.002  0.009
   25  0.001  0.001  0.008  0.009
   26  0.001  0.001  0.008  0.009
   27  0.006  0.001  0.002  0.009
   28  0.004  0.000  0.000  0.004
   29  0.002  0.000  0.002  0.004
   30  0.002  0.000  0.002  0.004
   31  0.002  0.000  0.002  0.004
   32  0.002  0.000  0.002  0.004
   33  0.002  0.000  0.002  0.004
   34  0.002  0.000  0.002  0.004
   35  0.006  0.000  0.000  0.006
   36  0.000  0.001  0.000  0.001
   37  0.000  0.000  0.000  0.000
   38  0.000  0.000  0.000  0.000
tot    0.294  0.022  0.394  0.710
 
band     6 # energy   -5.79684804 # occ.  2.00000000
 
ion      s      p      d    tot
    1  0.020  0.000  0.002  0.022
    2  0.006  0.000  0.010  0.016
    3  0.006  0.000  0.010  0.016
    4  0.006  0.000  0.010  0.016
    5  0.011  0.000  0.007  0.018
    6  0.005  0.000  0.010  0.016
    7  0.006  0.000  0.010  0.016
    8  0.005  0.000  0.010  0.016
    9  0.000  0.002  0.011  0.013
   10  0.001  0.000  0.034  0.034
   11  0.000  0.002  0.019  0.021
   12  0.001  0.000  0.033  0.034
   13  0.000  0.002  0.019  0.021
   14  0.000  0.002  0.019  0.021
   15  0.038  0.002  0.007  0.048
   16  0.001  0.000  0.033  0.034
   17  0.038  0.002  0.007  0.048
   18  0.038  0.002  0.007  0.048
   19  0.001  0.001  0.018  0.020
   20  0.021  0.000  0.014  0.035
   21  0.021  0.000  0.014  0.035
   22  0.010  0.002  0.008  0.020
   23  0.021  0.000  0.014  0.035
   24  0.010  0.002  0.008  0.021
   25  0.001  0.001  0.018  0.019
   26  0.001  0.001  0.018  0.020
   27  0.010  0.002  0.008  0.020
   28  0.000  0.000  0.000  0.000
   29  0.000  0.000  0.003  0.003
   30  0.000  0.000  0.003  0.003
   31  0.000  0.000  0.003  0.003
   32  0.000  0.000  0.003  0.003
   33  0.000  0.000  0.003  0.003
   34  0.000  0.000  0.003  0.003
   35  0.004  0.000  0.000  0.005
   36  0.002  0.003  0.000  0.004
   37  0.000  0.002  0.000  0.002
   38  0.001  0.000  0.000  0.001
tot    0.282  0.034  0.397  0.713
 
band     7 # energy   -5.79145715 # occ.  2.00000000
 
ion      s      p      d    tot
    1  0.000  0.000  0.006  0.006
    2  0.001  0.000  0.003  0.004
    3  0.002  0.001  0.004  0.006
    4  0.002  0.001  0.003  0.005
    5  0.000  0.001  0.009  0.010
    6  0.007  0.001  0.003  0.012
    7  0.003  0.001  0.004  0.007
    8  0.007  0.001  0.003  0.012
    9  0.000  0.001  0.002  0.002
   10  0.018  0.002  0.006  0.026
   11  0.012  0.002  0.030  0.044
   12  0.006  0.001  0.022  0.029
   13  0.018  0.002  0.027  0.047
   14  0.060  0.001  0.008  0.069
   15  0.002  0.003  0.005  0.011
   16  0.004  0.001  0.025  0.029
   17  0.004  0.003  0.006  0.013
   18  0.012  0.000  0.015  0.028
   19  0.000  0.003  0.006  0.008
   20  0.051  0.001  0.012  0.064
   21  0.016  0.003  0.020  0.039
   22  0.010  0.001  0.026  0.037
   23  0.010  0.003  0.022  0.035
   24  0.032  0.002  0.003  0.037
   25  0.001  0.000  0.012  0.014
   26  0.000  0.002  0.006  0.009
   27  0.007  0.000  0.030  0.037
   28  0.000  0.000  0.001  0.001
   29  0.006  0.001  0.003  0.011
   30  0.001  0.000  0.003  0.004
   31  0.007  0.001  0.003  0.011
   32  0.004  0.001  0.002  0.007
   33  0.000  0.000  0.003  0.004
   34  0.003  0.001  0.002  0.006
   35  0.000  0.000  0.006  0.006
   36  0.000  0.001  0.002  0.003
   37  0.000  0.000  0.000  0.000
   38  0.000  0.000  0.000  0.000
tot    0.308  0.043  0.343  0.693
 
band     8 # energy   -5.79145466 # occ.  2.00000000
 
ion      s      p      d    tot
    1  0.000  0.000  0.006  0.006
    2  0.006  0.001  0.004  0.011
    3  0.005  0.001  0.003  0.009
    4  0.006  0.001  0.004  0.011
    5  0.000  0.001  0.009  0.010
    6  0.000  0.000  0.003  0.004
    7  0.004  0.001  0.003  0.008
    8  0.000  0.000  0.003  0.003
    9  0.000  0.001  0.002  0.002
   10  0.000  0.001  0.029  0.030
   11  0.048  0.001  0.013  0.063
   12  0.013  0.001  0.013  0.027
   13  0.042  0.002  0.016  0.060
   14  0.000  0.002  0.036  0.038
   15  0.010  0.001  0.013  0.023
   16  0.015  0.001  0.011  0.027
   17  0.008  0.001  0.011  0.021
   18  0.000  0.004  0.002  0.007
   19  0.001  0.001  0.011  0.012
   20  0.000  0.003  0.024  0.028
   21  0.036  0.002  0.015  0.053
   22  0.023  0.001  0.013  0.037
   23  0.041  0.001  0.014  0.057
   24  0.000  0.000  0.036  0.036
   25  0.000  0.003  0.004  0.007
   26  0.001  0.001  0.010  0.012
   27  0.026  0.002  0.010  0.037
   28  0.000  0.000  0.001  0.001
   29  0.001  0.000  0.002  0.003
   30  0.006  0.001  0.002  0.010
   31  0.000  0.000  0.002  0.003
   32  0.003  0.001  0.003  0.007
   33  0.007  0.001  0.003  0.011
   34  0.004  0.001  0.004  0.009
   35  0.000  0.000  0.006  0.006
   36  0.000  0.001  0.002  0.003
   37  0.000  0.000  0.000  0.000
   38  0.000  0.000  0.000  0.000
tot    0.308  0.043  0.343  0.693
 
band     9 # energy   -5.77241895 # occ.  2.00000000
 
ion      s      p      d    tot
    1  0.007  0.001  0.001  0.010
    2  0.000  0.001  0.006  0.007
    3  0.000  0.001  0.006  0.007
    4  0.000  0.001  0.006  0.007
    5  0.017  0.002  0.001  0.020
    6  0.000  0.001  0.006  0.007
    7  0.000  0.001  0.006  0.007
    8  0.000  0.001  0.006  0.007
    9  0.000  0.000  0.002  0.002
   10  0.026  0.003  0.002  0.031
   11  0.021  0.001  0.023  0.044
   12  0.025  0.003  0.002  0.030
   13  0.021  0.001  0.023  0.044
   14  0.021  0.001  0.023  0.044
   15  0.000  0.001  0.024  0.026
   16  0.025  0.003  0.002  0.030
   17  0.000  0.001  0.024  0.026
   18  0.000  0.001  0.024  0.025
   19  0.026  0.002  0.005  0.034
   20  0.005  0.002  0.016  0.024
   21  0.005  0.002  0.016  0.024
   22  0.008  0.000  0.026  0.035
   23  0.005  0.002  0.016  0.024
   24  0.008  0.000  0.026  0.035
   25  0.026  0.002  0.005  0.033
   26  0.026  0.002  0.005  0.034
   27  0.008  0.000  0.026  0.035
   28  0.010  0.001  0.001  0.012
   29  0.000  0.000  0.004  0.004
   30  0.000  0.000  0.004  0.004
   31  0.000  0.000  0.004  0.004
   32  0.000  0.000  0.004  0.004
   33  0.000  0.000  0.004  0.004
   34  0.000  0.000  0.004  0.004
   35  0.004  0.001  0.002  0.007
   36  0.000  0.000  0.000  0.000
   37  0.000  0.000  0.000  0.000
   38  0.000  0.000  0.000  0.000
tot    0.300  0.040  0.355  0.695
 
band    10 # energy   -5.75092659 # occ.  2.00000000
 
ion      s      p      d    tot
    1  0.000  0.001  0.006  0.008
    2  0.007  0.001  0.004  0.012
    3  0.006  0.001  0.004  0.010
    4  0.007  0.001  0.004  0.013
    5  0.000  0.000  0.002  0.002
    6  0.000  0.000  0.003  0.004
    7  0.006  0.001  0.004  0.011
    8  0.000  0.000  0.004  0.004
    9  0.000  0.001  0.011  0.012
   10  0.045  0.000  0.014  0.060
   11  0.000  0.002  0.012  0.015
   12  0.011  0.003  0.014  0.027
   13  0.000  0.002  0.012  0.015
   14  0.000  0.001  0.013  0.014
   15  0.014  0.001  0.036  0.051
   16  0.012  0.003  0.014  0.029
   17  0.012  0.001  0.038  0.051
   18  0.053  0.002  0.003  0.058
   19  0.013  0.001  0.026  0.040
   20  0.008  0.001  0.008  0.017
   21  0.002  0.001  0.018  0.020
   22  0.005  0.003  0.009  0.017
   23  0.002  0.001  0.017  0.020
   24  0.020  0.000  0.014  0.035
   25  0.048  0.002  0.004  0.054
   26  0.011  0.001  0.027  0.039
   27  0.005  0.003  0.010  0.018
   28  0.000  0.001  0.006  0.007
   29  0.000  0.000  0.002  0.002
   30  0.003  0.001  0.002  0.006
   31  0.000  0.000  0.002  0.002
   32  0.003  0.001  0.003  0.006
   33  0.003  0.001  0.002  0.006
   34  0.002  0.001  0.003  0.006
   35  0.000  0.000  0.002  0.002
   36  0.000  0.000  0.001  0.001
   37  0.000  0.000  0.000  0.000
   38  0.000  0.000  0.000  0.000
tot    0.300  0.042  0.352  0.693
 
band    11 # energy   -5.75091272 # occ.  2.00000000
 
ion      s      p      d    tot
    1  0.000  0.001  0.006  0.008
    2  0.002  0.001  0.003  0.006
    3  0.003  0.001  0.004  0.008
    4  0.002  0.001  0.003  0.005
    5  0.000  0.000  0.002  0.002
    6  0.009  0.001  0.004  0.014
    7  0.002  0.001  0.004  0.007
    8  0.009  0.001  0.004  0.014
    9  0.000  0.001  0.011  0.012
   10  0.000  0.004  0.013  0.017
   11  0.000  0.001  0.012  0.014
   12  0.035  0.001  0.014  0.050
   13  0.000  0.001  0.012  0.014
   14  0.000  0.003  0.012  0.015
   15  0.039  0.001  0.015  0.055
   16  0.033  0.001  0.014  0.049
   17  0.041  0.002  0.014  0.056
   18  0.000  0.000  0.048  0.048
   19  0.035  0.002  0.012  0.049
   20  0.000  0.001  0.020  0.021
   21  0.006  0.001  0.011  0.018
   22  0.015  0.001  0.013  0.029
   23  0.006  0.001  0.011  0.018
   24  0.000  0.004  0.008  0.012
   25  0.000  0.001  0.034  0.035
   26  0.037  0.002  0.011  0.050
   27  0.015  0.001  0.012  0.028
   28  0.000  0.001  0.006  0.007
   29  0.004  0.001  0.002  0.007
   30  0.001  0.000  0.002  0.003
   31  0.004  0.001  0.002  0.007
   32  0.001  0.000  0.002  0.003
   33  0.001  0.000  0.002  0.003
   34  0.001  0.000  0.001  0.003
   35  0.000  0.000  0.002  0.002
   36  0.000  0.000  0.001  0.001
   37  0.000  0.000  0.000  0.000
   38  0.000  0.000  0.000  0.000
tot    0.300  0.042  0.352  0.693
 
band    12 # energy   -5.61999948 # occ.  2.00000000
 
ion      s      p      d    tot
    1  0.001  0.000  0.000  0.001
    2  0.001  0.000  0.001  0.001
    3  0.001  0.000  0.001  0.001
    4  0.001  0.000  0.001  0.001
    5  0.002  0.000  0.000  0.002
    6  0.001  0.000  0.001  0.001
    7  0.001  0.000  0.001  0.001
    8  0.001  0.000  0.001  0.001
    9  0.000  0.000  0.001  0.001
   10  0.000  0.000  0.003  0.004
   11  0.001  0.000  0.002  0.003
   12  0.000  0.000  0.003  0.004
   13  0.001  0.000  0.002  0.003
   14  0.001  0.000  0.002  0.003
   15  0.002  0.000  0.003  0.005
   16  0.000  0.000  0.003  0.004
   17  0.002  0.000  0.003  0.005
   18  0.002  0.000  0.003  0.005
   19  0.004  0.001  0.018  0.023
   20  0.003  0.000  0.028  0.031
   21  0.003  0.000  0.028  0.031
   22  0.008  0.001  0.024  0.034
   23  0.003  0.000  0.028  0.031
   24  0.008  0.001  0.024  0.034
   25  0.004  0.001  0.018  0.023
   26  0.004  0.001  0.018  0.023
   27  0.008  0.001  0.024  0.034
   28  0.030  0.000  0.021  0.051
   29  0.026  0.000  0.022  0.048
   30  0.026  0.000  0.022  0.048
   31  0.026  0.000  0.022  0.048
   32  0.026  0.000  0.022  0.048
   33  0.026  0.000  0.022  0.048
   34  0.026  0.000  0.022  0.048
   35  0.029  0.000  0.022  0.052
   36  0.003  0.000  0.011  0.015
   37  0.001  0.002  0.000  0.003
   38  0.000  0.000  0.000  0.000
tot    0.277  0.015  0.425  0.716
 
band    13 # energy   -5.31851370 # occ.  2.00000000
 
ion      s      p      d    tot
    1  0.016  0.002  0.002  0.020
    2  0.000  0.001  0.009  0.009
    3  0.000  0.001  0.009  0.009
    4  0.000  0.001  0.009  0.009
    5  0.000  0.000  0.002  0.002
    6  0.000  0.001  0.009  0.009
    7  0.000  0.001  0.009  0.009
    8  0.000  0.001  0.009  0.009
    9  0.016  0.001  0.000  0.018
   10  0.010  0.002  0.012  0.024
   11  0.003  0.000  0.041  0.045
   12  0.010  0.002  0.012  0.024
   13  0.003  0.000  0.041  0.045
   14  0.003  0.000  0.041  0.045
   15  0.003  0.001  0.027  0.031
   16  0.010  0.002  0.012  0.024
   17  0.003  0.001  0.027  0.031
   18  0.003  0.001  0.027  0.031
   19  0.006  0.001  0.010  0.017
   20  0.001  0.000  0.049  0.050
   21  0.001  0.000  0.049  0.050
   22  0.011  0.001  0.022  0.034
   23  0.001  0.000  0.049  0.050
   24  0.011  0.001  0.022  0.034
   25  0.006  0.001  0.010  0.017
   26  0.006  0.001  0.010  0.017
   27  0.011  0.001  0.022  0.034
   28  0.010  0.001  0.001  0.012
   29  0.000  0.000  0.005  0.006
   30  0.000  0.000  0.005  0.006
   31  0.000  0.000  0.005  0.006
   32  0.000  0.000  0.005  0.006
   33  0.000  0.000  0.005  0.006
   34  0.000  0.000  0.005  0.006
   35  0.008  0.001  0.002  0.011
   36  0.000  0.000  0.001  0.001
   37  0.000  0.000  0.000  0.000
   38  0.000  0.000  0.000  0.000
tot    0.149  0.028  0.577  0.754
 
band    14 # energy   -5.30420169 # occ.  2.00000000
 
ion      s      p      d    tot
    1  0.000  0.001  0.004  0.005
    2  0.001  0.001  0.005  0.006
    3  0.009  0.001  0.005  0.015
    4  0.001  0.001  0.005  0.006
    5  0.000  0.001  0.011  0.012
    6  0.005  0.001  0.004  0.010
    7  0.009  0.001  0.005  0.015
    8  0.005  0.001  0.004  0.010
    9  0.000  0.000  0.009  0.009
   10  0.000  0.001  0.049  0.050
   11  0.016  0.001  0.021  0.037
   12  0.006  0.002  0.019  0.027
   13  0.016  0.001  0.021  0.038
   14  0.000  0.000  0.052  0.052
   15  0.002  0.000  0.020  0.023
   16  0.006  0.002  0.019  0.027
   17  0.002  0.000  0.020  0.023
   18  0.000  0.001  0.011  0.012
   19  0.006  0.000  0.018  0.025
   20  0.000  0.000  0.069  0.069
   21  0.018  0.001  0.022  0.041
   22  0.003  0.001  0.019  0.023
   23  0.018  0.001  0.022  0.040
   24  0.000  0.001  0.035  0.036
   25  0.000  0.001  0.012  0.013
   26  0.006  0.000  0.018  0.025
   27  0.003  0.001  0.019  0.023
   28  0.000  0.000  0.008  0.008
   29  0.002  0.001  0.004  0.007
   30  0.010  0.001  0.004  0.015
   31  0.002  0.001  0.004  0.007
   32  0.003  0.001  0.004  0.008
   33  0.010  0.001  0.004  0.015
   34  0.003  0.001  0.004  0.008
   35  0.000  0.000  0.003  0.004
   36  0.000  0.002  0.002  0.004
   37  0.000  0.000  0.000  0.000
   38  0.000  0.000  0.000  0.000
tot    0.162  0.032  0.552  0.745
 
band    15 # energy   -5.30418674 # occ.  2.00000000
 
ion      s      p      d    tot
    1  0.000  0.001  0.004  0.005
    2  0.009  0.001  0.004  0.014
    3  0.001  0.000  0.005  0.006
    4  0.009  0.001  0.004  0.014
    5  0.000  0.001  0.011  0.012
    6  0.005  0.001  0.005  0.011
    7  0.001  0.000  0.005  0.006
    8  0.005  0.001  0.005  0.011
    9  0.000  0.000  0.009  0.009
   10  0.009  0.002  0.009  0.019
   11  0.005  0.000  0.042  0.047
   12  0.002  0.001  0.039  0.042
   13  0.005  0.000  0.042  0.047
   14  0.021  0.001  0.010  0.033
   15  0.001  0.001  0.014  0.015
   16  0.002  0.001  0.039  0.042
   17  0.001  0.001  0.014  0.015
   18  0.002  0.000  0.023  0.026
   19  0.002  0.001  0.014  0.017
   20  0.023  0.002  0.006  0.031
   21  0.006  0.000  0.053  0.059
   22  0.001  0.001  0.029  0.031
   23  0.006  0.000  0.053  0.060
   24  0.004  0.001  0.014  0.018
   25  0.008  0.000  0.020  0.028
   26  0.002  0.001  0.014  0.017
   27  0.001  0.001  0.029  0.031
   28  0.000  0.000  0.008  0.008
   29  0.008  0.001  0.004  0.013
   30  0.000  0.001  0.004  0.005
   31  0.008  0.001  0.004  0.013
   32  0.007  0.001  0.004  0.012
   33  0.000  0.001  0.004  0.005
   34  0.007  0.001  0.004  0.012
   35  0.000  0.000  0.003  0.004
   36  0.000  0.002  0.002  0.004
   37  0.000  0.000  0.000  0.000
   38  0.000  0.000  0.000  0.000
tot    0.162  0.032  0.552  0.745
 
band    16 # energy   -5.26606053 # occ.  2.00000000
 
ion      s      p      d    tot
    1  0.007  0.000  0.001  0.008
    2  0.000  0.001  0.009  0.009
    3  0.000  0.001  0.009  0.009
    4  0.000  0.001  0.009  0.009
    5  0.019  0.002  0.001  0.021
    6  0.000  0.001  0.009  0.009
    7  0.000  0.001  0.009  0.009
    8  0.000  0.001  0.009  0.009
    9  0.003  0.001  0.002  0.006
   10  0.000  0.000  0.043  0.043
   11  0.006  0.001  0.014  0.021
   12  0.000  0.000  0.043  0.043
   13  0.006  0.001  0.014  0.021
   14  0.006  0.001  0.014  0.021
   15  0.007  0.001  0.024  0.032
   16  0.000  0.000  0.043  0.043
   17  0.007  0.001  0.024  0.032
   18  0.007  0.001  0.024  0.032
   19  0.008  0.000  0.044  0.053
   20  0.011  0.002  0.008  0.020
   21  0.011  0.002  0.008  0.020
   22  0.001  0.000  0.033  0.035
   23  0.011  0.002  0.008  0.020
   24  0.001  0.000  0.033  0.035
   25  0.008  0.000  0.044  0.053
   26  0.008  0.000  0.044  0.053
   27  0.001  0.000  0.033  0.035
   28  0.000  0.000  0.006  0.006
   29  0.000  0.000  0.005  0.006
   30  0.000  0.000  0.005  0.006
   31  0.000  0.000  0.005  0.006
   32  0.000  0.000  0.005  0.006
   33  0.000  0.000  0.005  0.006
   34  0.000  0.000  0.005  0.006
   35  0.002  0.000  0.000  0.003
   36  0.005  0.004  0.000  0.009
   37  0.000  0.002  0.000  0.003
   38  0.001  0.000  0.000  0.001
tot    0.140  0.031  0.590  0.761
 
band    17 # energy   -5.25733812 # occ.  2.00000000
 
ion      s      p      d    tot
    1  0.000  0.001  0.015  0.016
    2  0.010  0.001  0.005  0.016
    3  0.002  0.000  0.005  0.007
    4  0.010  0.001  0.005  0.016
    5  0.000  0.000  0.005  0.005
    6  0.003  0.001  0.006  0.010
    7  0.002  0.000  0.005  0.007
    8  0.003  0.001  0.006  0.010
    9  0.000  0.001  0.007  0.009
   10  0.000  0.001  0.031  0.031
   11  0.001  0.001  0.020  0.022
   12  0.007  0.000  0.023  0.030
   13  0.001  0.001  0.020  0.022
   14  0.000  0.001  0.019  0.020
   15  0.011  0.002  0.021  0.034
   16  0.007  0.000  0.023  0.030
   17  0.011  0.002  0.021  0.033
   18  0.000  0.000  0.065  0.065
   19  0.014  0.001  0.020  0.034
   20  0.000  0.002  0.020  0.021
   21  0.000  0.001  0.022  0.022
   22  0.018  0.001  0.021  0.039
   23  0.000  0.001  0.022  0.022
   24  0.000  0.001  0.032  0.033
   25  0.000  0.000  0.067  0.067
   26  0.014  0.001  0.020  0.034
   27  0.018  0.001  0.021  0.039
   28  0.000  0.001  0.005  0.005
   29  0.005  0.001  0.004  0.010
   30  0.000  0.000  0.004  0.005
   31  0.005  0.001  0.004  0.010
   32  0.003  0.001  0.002  0.006
   33  0.000  0.000  0.004  0.005
   34  0.003  0.001  0.002  0.006
   35  0.000  0.001  0.007  0.008
   36  0.000  0.000  0.000  0.000
   37  0.000  0.000  0.000  0.000
   38  0.000  0.000  0.000  0.000
tot    0.148  0.028  0.576  0.752
 
band    18 # energy   -5.25732466 # occ.  2.00000000
 
ion      s      p      d    tot
    1  0.000  0.001  0.015  0.016
    2  0.000  0.000  0.006  0.006
    3  0.008  0.001  0.005  0.015
    4  0.000  0.000  0.006  0.006
    5  0.000  0.000  0.005  0.005
    6  0.007  0.001  0.005  0.012
    7  0.008  0.001  0.005  0.015
    8  0.007  0.001  0.005  0.012
    9  0.000  0.001  0.007  0.009
   10  0.009  0.000  0.020  0.030
   11  0.000  0.001  0.019  0.020
   12  0.002  0.001  0.028  0.031
   13  0.000  0.001  0.019  0.020
   14  0.001  0.001  0.020  0.022
   15  0.004  0.001  0.050  0.054
   16  0.002  0.001  0.028  0.031
   17  0.004  0.001  0.051  0.055
   18  0.014  0.002  0.006  0.023
   19  0.005  0.001  0.051  0.056
   20  0.000  0.000  0.022  0.023
   21  0.000  0.001  0.020  0.022
   22  0.006  0.001  0.028  0.035
   23  0.000  0.001  0.020  0.022
   24  0.024  0.001  0.017  0.042
   25  0.018  0.001  0.004  0.024
   26  0.004  0.001  0.051  0.056
   27  0.006  0.001  0.028  0.035
   28  0.000  0.001  0.005  0.005
   29  0.001  0.000  0.003  0.004
   30  0.006  0.001  0.003  0.009
   31  0.001  0.000  0.003  0.004
   32  0.002  0.001  0.005  0.008
   33  0.006  0.001  0.003  0.009
   34  0.002  0.001  0.005  0.008
   35  0.000  0.001  0.007  0.008
   36  0.000  0.000  0.000  0.000
   37  0.000  0.000  0.000  0.000
   38  0.000  0.000  0.000  0.000
tot    0.148  0.028  0.576  0.752
 
band    19 # energy   -4.92731087 # occ.  2.00000000
 
ion      s      p      d    tot
    1  0.000  0.000  0.015  0.016
    2  0.000  0.000  0.012  0.012
    3  0.007  0.000  0.015  0.023
    4  0.000  0.000  0.012  0.012
    5  0.000  0.000  0.030  0.031
    6  0.008  0.001  0.009  0.018
    7  0.007  0.000  0.015  0.023
    8  0.007  0.001  0.009  0.017
    9  0.000  0.001  0.008  0.009
   10  0.000  0.000  0.017  0.017
   11  0.000  0.000  0.045  0.045
   12  0.000  0.000  0.009  0.009
   13  0.000  0.000  0.045  0.045
   14  0.000  0.000  0.041  0.041
   15  0.000  0.000  0.031  0.031
   16  0.000  0.000  0.009  0.010
   17  0.000  0.000  0.031  0.031
   18  0.000  0.000  0.047  0.048
   19  0.000  0.000  0.011  0.011
   20  0.001  0.000  0.048  0.049
   21  0.000  0.000  0.033  0.033
   22  0.000  0.000  0.035  0.036
   23  0.000  0.000  0.033  0.034
   24  0.000  0.000  0.035  0.036
   25  0.001  0.000  0.011  0.012
   26  0.000  0.000  0.011  0.011
   27  0.000  0.000  0.035  0.036
   28  0.000  0.000  0.013  0.013
   29  0.008  0.001  0.012  0.021
   30  0.000  0.001  0.008  0.009
   31  0.008  0.001  0.012  0.020
   32  0.009  0.001  0.006  0.017
   33  0.000  0.001  0.009  0.009
   34  0.009  0.001  0.006  0.017
   35  0.000  0.000  0.018  0.018
   36  0.000  0.002  0.001  0.002
   37  0.000  0.001  0.000  0.001
   38  0.000  0.000  0.000  0.000
tot    0.067  0.017  0.740  0.824
 
band    20 # energy   -4.92730349 # occ.  2.00000000
 
ion      s      p      d    tot
    1  0.000  0.000  0.015  0.016
    2  0.010  0.001  0.012  0.023
    3  0.003  0.001  0.009  0.012
    4  0.010  0.001  0.012  0.023
    5  0.000  0.000  0.030  0.031
    6  0.002  0.000  0.015  0.017
    7  0.003  0.001  0.009  0.012
    8  0.002  0.000  0.015  0.018
    9  0.000  0.001  0.008  0.009
   10  0.000  0.000  0.007  0.007
   11  0.000  0.000  0.042  0.043
   12  0.000  0.000  0.014  0.015
   13  0.000  0.000  0.042  0.043
   14  0.000  0.000  0.046  0.046
   15  0.000  0.000  0.042  0.042
   16  0.000  0.000  0.014  0.015
   17  0.000  0.000  0.042  0.042
   18  0.000  0.000  0.026  0.026
   19  0.000  0.000  0.011  0.012
   20  0.000  0.000  0.028  0.028
   21  0.001  0.000  0.043  0.044
   22  0.000  0.000  0.035  0.036
   23  0.001  0.000  0.043  0.044
   24  0.000  0.000  0.035  0.035
   25  0.000  0.000  0.011  0.011
   26  0.000  0.000  0.011  0.012
   27  0.000  0.000  0.035  0.036
   28  0.000  0.000  0.013  0.013
   29  0.004  0.001  0.006  0.010
   30  0.011  0.001  0.009  0.022
   31  0.004  0.001  0.006  0.010
   32  0.002  0.001  0.012  0.014
   33  0.011  0.001  0.009  0.022
   34  0.002  0.001  0.012  0.014
   35  0.000  0.000  0.018  0.018
   36  0.000  0.002  0.001  0.002
   37  0.000  0.001  0.000  0.001
   38  0.000  0.000  0.000  0.000
tot    0.067  0.017  0.740  0.824
 
band    21 # energy   -4.90817741 # occ.  2.00000000
 
ion      s      p      d    tot
    1  0.017  0.000  0.006  0.023
    2  0.000  0.001  0.014  0.015
    3  0.000  0.001  0.014  0.015
    4  0.000  0.001  0.014  0.015
    5  0.001  0.000  0.014  0.015
    6  0.000  0.001  0.014  0.015
    7  0.000  0.001  0.014  0.015
    8  0.000  0.001  0.014  0.015
    9  0.011  0.001  0.001  0.013
   10  0.000  0.000  0.029  0.029
   11  0.000  0.000  0.048  0.048
   12  0.000  0.000  0.029  0.029
   13  0.000  0.000  0.048  0.048
   14  0.000  0.000  0.048  0.048
   15  0.000  0.000  0.035  0.036
   16  0.000  0.000  0.029  0.029