PROCAR new format
# of k-points:   10         # of bands:  252         # of ions:   36

 k-point     1 :    0.00000000 0.00000000 0.00000000     weight = 0.01562500

band     1 # energy   -8.75710131 # occ.  2.00000000
 
ion      s      p      d    tot
    1  0.007  0.001  0.000  0.008
    2  0.007  0.001  0.000  0.008
    3  0.007  0.001  0.000  0.008
    4  0.007  0.001  0.000  0.008
    5  0.007  0.001  0.000  0.008
    6  0.007  0.001  0.000  0.008
    7  0.007  0.001  0.000  0.008
    8  0.007  0.001  0.000  0.008
    9  0.007  0.001  0.000  0.008
   10  0.025  0.000  0.000  0.025
   11  0.025  0.000  0.000  0.026
   12  0.025  0.000  0.000  0.025
   13  0.025  0.000  0.000  0.026
   14  0.025  0.000  0.000  0.026
   15  0.025  0.000  0.000  0.025
   16  0.025  0.000  0.000  0.025
   17  0.025  0.000  0.000  0.025
   18  0.025  0.000  0.000  0.025
   19  0.024  0.000  0.000  0.024
   20  0.024  0.000  0.000  0.025
   21  0.024  0.000  0.000  0.025
   22  0.024  0.000  0.000  0.025
   23  0.024  0.000  0.000  0.025
   24  0.024  0.000  0.000  0.025
   25  0.024  0.000  0.000  0.024
   26  0.024  0.000  0.000  0.024
   27  0.024  0.000  0.000  0.025
   28  0.006  0.001  0.000  0.007
   29  0.006  0.001  0.000  0.007
   30  0.006  0.001  0.000  0.007
   31  0.006  0.001  0.000  0.007
   32  0.006  0.001  0.000  0.007
   33  0.006  0.001  0.000  0.007
   34  0.006  0.001  0.000  0.007
   35  0.006  0.001  0.000  0.007
   36  0.007  0.001  0.000  0.008
tot    0.564  0.017  0.001  0.582
 
band     2 # energy   -7.43908840 # occ.  2.00000000
 
ion      s      p      d    tot
    1  0.018  0.001  0.001  0.020
    2  0.018  0.001  0.001  0.020
    3  0.018  0.001  0.001  0.020
    4  0.018  0.001  0.001  0.020
    5  0.018  0.001  0.001  0.020
    6  0.018  0.001  0.001  0.020
    7  0.018  0.001  0.001  0.020
    8  0.018  0.001  0.001  0.020
    9  0.018  0.001  0.001  0.020
   10  0.009  0.002  0.001  0.012
   11  0.009  0.002  0.001  0.012
   12  0.009  0.002  0.001  0.012
   13  0.009  0.002  0.001  0.012
   14  0.009  0.002  0.001  0.012
   15  0.009  0.002  0.001  0.012
   16  0.009  0.002  0.001  0.012
   17  0.009  0.002  0.001  0.012
   18  0.009  0.002  0.001  0.012
   19  0.012  0.002  0.001  0.014
   20  0.010  0.002  0.001  0.013
   21  0.010  0.002  0.001  0.013
   22  0.012  0.002  0.001  0.014
   23  0.010  0.002  0.001  0.013
   24  0.012  0.002  0.001  0.014
   25  0.012  0.002  0.001  0.014
   26  0.012  0.002  0.001  0.014
   27  0.012  0.002  0.001  0.014
   28  0.019  0.001  0.000  0.020
   29  0.018  0.001  0.000  0.019
   30  0.018  0.001  0.000  0.019
   31  0.018  0.001  0.000  0.019
   32  0.018  0.001  0.000  0.019
   33  0.018  0.001  0.000  0.019
   34  0.018  0.001  0.000  0.019
   35  0.018  0.001  0.000  0.020
   36  0.016  0.001  0.000  0.017
tot    0.507  0.055  0.019  0.581
 
band     3 # energy   -5.79841517 # occ.  2.00000000
 
ion      s      p      d    tot
    1  0.019  0.000  0.005  0.025
    2  0.014  0.000  0.006  0.020
    3  0.014  0.000  0.006  0.020
    4  0.014  0.000  0.006  0.020
    5  0.003  0.001  0.008  0.011
    6  0.014  0.000  0.006  0.020
    7  0.014  0.000  0.006  0.020
    8  0.014  0.000  0.006  0.020
    9  0.026  0.000  0.004  0.030
   10  0.002  0.003  0.004  0.010
   11  0.019  0.005  0.001  0.026
   12  0.002  0.003  0.004  0.010
   13  0.019  0.005  0.001  0.026
   14  0.019  0.005  0.001  0.026
   15  0.000  0.002  0.006  0.008
   16  0.002  0.003  0.004  0.010
   17  0.000  0.002  0.006  0.008
   18  0.000  0.002  0.006  0.008
   19  0.000  0.002  0.005  0.008
   20  0.019  0.005  0.001  0.026
   21  0.019  0.005  0.001  0.026
   22  0.000  0.004  0.003  0.008
   23  0.019  0.005  0.001  0.026
   24  0.000  0.004  0.003  0.008
   25  0.000  0.002  0.005  0.008
   26  0.000  0.002  0.005  0.008
   27  0.000  0.004  0.003  0.008
   28  0.023  0.000  0.004  0.026
   29  0.013  0.000  0.006  0.020
   30  0.013  0.000  0.006  0.020
   31  0.013  0.000  0.006  0.020
   32  0.013  0.000  0.006  0.020
   33  0.013  0.000  0.006  0.020
   34  0.013  0.000  0.006  0.020
   35  0.023  0.000  0.004  0.028
   36  0.001  0.002  0.005  0.008
tot    0.378  0.077  0.169  0.625
 
band     4 # energy   -5.76326012 # occ.  2.00000000
 
ion      s      p      d    tot
    1  0.000  0.002  0.005  0.007
    2  0.009  0.002  0.002  0.013
    3  0.000  0.001  0.002  0.003
    4  0.009  0.002  0.002  0.013
    5  0.000  0.003  0.005  0.008
    6  0.007  0.002  0.003  0.011
    7  0.000  0.001  0.002  0.003
    8  0.007  0.002  0.003  0.012
    9  0.000  0.000  0.002  0.003
   10  0.047  0.005  0.002  0.054
   11  0.013  0.008  0.007  0.028
   12  0.011  0.001  0.014  0.026
   13  0.012  0.009  0.007  0.027
   14  0.049  0.001  0.007  0.057
   15  0.000  0.008  0.005  0.012
   16  0.012  0.001  0.014  0.027
   17  0.000  0.008  0.005  0.013
   18  0.000  0.001  0.005  0.006
   19  0.002  0.010  0.003  0.015
   20  0.062  0.003  0.005  0.071
   21  0.015  0.005  0.011  0.031
   22  0.006  0.002  0.011  0.019
   23  0.016  0.005  0.011  0.032
   24  0.023  0.004  0.002  0.030
   25  0.009  0.000  0.006  0.015
   26  0.002  0.010  0.003  0.015
   27  0.006  0.002  0.011  0.019
   28  0.000  0.001  0.003  0.004
   29  0.010  0.002  0.003  0.015
   30  0.001  0.001  0.002  0.004
   31  0.009  0.002  0.003  0.015
   32  0.005  0.002  0.002  0.009
   33  0.001  0.001  0.002  0.004
   34  0.005  0.002  0.002  0.009
   35  0.000  0.000  0.004  0.004
   36  0.000  0.004  0.004  0.009
tot    0.347  0.117  0.178  0.642
 
band     5 # energy   -5.76316119 # occ.  2.00000000
 
ion      s      p      d    tot
    1  0.000  0.002  0.005  0.007
    2  0.002  0.001  0.002  0.005
    3  0.010  0.003  0.003  0.015
    4  0.002  0.001  0.002  0.005
    5  0.000  0.003  0.005  0.008
    6  0.004  0.001  0.002  0.007
    7  0.010  0.003  0.003  0.015
    8  0.003  0.001  0.002  0.007
    9  0.000  0.000  0.002  0.003
   10  0.000  0.000  0.017  0.017
   11  0.036  0.004  0.007  0.046
   12  0.036  0.004  0.006  0.046
   13  0.037  0.004  0.007  0.047
   14  0.000  0.011  0.007  0.018
   15  0.000  0.004  0.005  0.008
   16  0.035  0.004  0.006  0.045
   17  0.000  0.003  0.005  0.008
   18  0.000  0.010  0.005  0.015
   19  0.007  0.004  0.005  0.015
   20  0.000  0.006  0.013  0.018
   21  0.048  0.004  0.007  0.058
   22  0.018  0.004  0.005  0.026
   23  0.046  0.004  0.007  0.057
   24  0.000  0.002  0.014  0.016
   25  0.000  0.013  0.002  0.015
   26  0.007  0.003  0.005  0.015
   27  0.017  0.004  0.005  0.026
   28  0.000  0.001  0.003  0.004
   29  0.001  0.001  0.002  0.003
   30  0.009  0.002  0.003  0.014
   31  0.001  0.001  0.002  0.004
   32  0.005  0.002  0.003  0.010
   33  0.009  0.002  0.003  0.014
   34  0.005  0.002  0.002  0.009
   35  0.000  0.000  0.004  0.004
   36  0.000  0.004  0.004  0.009
tot    0.347  0.117  0.178  0.642
 
band     6 # energy   -5.75621478 # occ.  2.00000000
 
ion      s      p      d    tot
    1  0.019  0.003  0.001  0.023
    2  0.000  0.002  0.004  0.006
    3  0.000  0.002  0.004  0.006
    4  0.000  0.002  0.004  0.006
    5  0.000  0.000  0.000  0.001
    6  0.000  0.002  0.004  0.006
    7  0.000  0.002  0.004  0.006
    8  0.000  0.002  0.004  0.006
    9  0.012  0.002  0.000  0.015
   10  0.029  0.004  0.007  0.041
   11  0.002  0.001  0.011  0.014
   12  0.029  0.004  0.007  0.041
   13  0.002  0.001  0.011  0.014
   14  0.002  0.001  0.011  0.014
   15  0.017  0.009  0.002  0.028
   16  0.029  0.004  0.007  0.041
   17  0.017  0.009  0.002  0.028
   18  0.017  0.009  0.002  0.028
   19  0.019  0.009  0.002  0.030
   20  0.001  0.001  0.011  0.013
   21  0.001  0.001  0.011  0.013
   22  0.027  0.003  0.008  0.039
   23  0.001  0.001  0.011  0.013
   24  0.027  0.003  0.008  0.039
   25  0.019  0.009  0.002  0.030
   26  0.019  0.009  0.002  0.030
   27  0.027  0.003  0.008  0.039
   28  0.016  0.002  0.000  0.019
   29  0.000  0.002  0.004  0.006
   30  0.000  0.002  0.004  0.006
   31  0.000  0.002  0.004  0.006
   32  0.000  0.002  0.004  0.006
   33  0.000  0.002  0.004  0.006
   34  0.000  0.002  0.004  0.006
   35  0.015  0.003  0.001  0.019
   36  0.000  0.000  0.000  0.000
tot    0.346  0.115  0.178  0.639
 
band     7 # energy   -5.75059319 # occ.  2.00000000
 
ion      s      p      d    tot
    1  0.000  0.002  0.003  0.005
    2  0.009  0.002  0.002  0.014
    3  0.000  0.001  0.002  0.003
    4  0.009  0.002  0.002  0.014
    5  0.000  0.000  0.003  0.004
    6  0.007  0.002  0.003  0.011
    7  0.000  0.001  0.002  0.003
    8  0.007  0.002  0.003  0.012
    9  0.000  0.003  0.006  0.009
   10  0.000  0.014  0.002  0.015
   11  0.011  0.004  0.005  0.020
   12  0.013  0.003  0.006  0.022
   13  0.012  0.004  0.005  0.020
   14  0.000  0.003  0.013  0.016
   15  0.047  0.004  0.007  0.058
   16  0.012  0.004  0.006  0.022
   17  0.048  0.004  0.007  0.059
   18  0.000  0.004  0.015  0.018
   19  0.039  0.004  0.006  0.050
   20  0.000  0.008  0.007  0.015
   21  0.001  0.003  0.005  0.009
   22  0.030  0.004  0.006  0.039
   23  0.001  0.003  0.005  0.009
   24  0.000  0.012  0.005  0.016
   25  0.000  0.000  0.017  0.017
   26  0.040  0.004  0.006  0.050
   27  0.029  0.004  0.006  0.039
   28  0.000  0.002  0.005  0.007
   29  0.009  0.002  0.002  0.014
   30  0.001  0.001  0.002  0.004
   31  0.009  0.002  0.003  0.014
   32  0.005  0.002  0.002  0.008
   33  0.001  0.001  0.002  0.004
   34  0.005  0.002  0.002  0.008
   35  0.000  0.003  0.004  0.007
   36  0.000  0.000  0.002  0.002
tot    0.345  0.116  0.178  0.638
 
band     8 # energy   -5.75050923 # occ.  2.00000000
 
ion      s      p      d    tot
    1  0.000  0.002  0.003  0.005
    2  0.002  0.001  0.002  0.005
    3  0.011  0.003  0.003  0.016
    4  0.002  0.001  0.002  0.005
    5  0.000  0.000  0.003  0.004
    6  0.004  0.001  0.002  0.007
    7  0.011  0.003  0.003  0.016
    8  0.004  0.001  0.002  0.007
    9  0.000  0.003  0.006  0.009
   10  0.017  0.000  0.007  0.024
   11  0.004  0.003  0.010  0.017
   12  0.004  0.011  0.003  0.017
   13  0.004  0.003  0.010  0.017
   14  0.015  0.004  0.003  0.022
   15  0.017  0.004  0.012  0.032
   16  0.004  0.010  0.003  0.018
   17  0.015  0.004  0.012  0.031
   18  0.064  0.004  0.004  0.072
   19  0.014  0.002  0.013  0.028
   20  0.001  0.002  0.004  0.007
   21  0.000  0.007  0.006  0.013
   22  0.009  0.009  0.005  0.024
   23  0.000  0.006  0.006  0.013
   24  0.039  0.001  0.007  0.046
   25  0.053  0.005  0.003  0.061
   26  0.013  0.001  0.013  0.028
   27  0.010  0.009  0.005  0.024
   28  0.000  0.002  0.005  0.007
   29  0.001  0.001  0.002  0.003
   30  0.009  0.002  0.002  0.014
   31  0.001  0.001  0.002  0.004
   32  0.005  0.002  0.002  0.009
   33  0.009  0.002  0.002  0.013
   34  0.005  0.002  0.002  0.009
   35  0.000  0.003  0.004  0.007
   36  0.000  0.000  0.002  0.002
tot    0.345  0.116  0.178  0.638
 
band     9 # energy   -5.71737940 # occ.  2.00000000
 
ion      s      p      d    tot
    1  0.000  0.001  0.002  0.003
    2  0.004  0.002  0.006  0.011
    3  0.004  0.002  0.006  0.011
    4  0.004  0.002  0.006  0.011
    5  0.040  0.003  0.000  0.043
    6  0.004  0.002  0.006  0.011
    7  0.004  0.002  0.006  0.011
    8  0.004  0.002  0.006  0.011
    9  0.000  0.001  0.005  0.007
   10  0.007  0.005  0.006  0.018
   11  0.016  0.007  0.005  0.028
   12  0.007  0.005  0.006  0.018
   13  0.016  0.007  0.005  0.028
   14  0.016  0.007  0.005  0.029
   15  0.022  0.002  0.010  0.034
   16  0.007  0.005  0.006  0.018
   17  0.022  0.002  0.010  0.034
   18  0.022  0.002  0.010  0.034
   19  0.014  0.002  0.008  0.024
   20  0.015  0.005  0.005  0.026
   21  0.015  0.005  0.005  0.026
   22  0.006  0.006  0.005  0.016
   23  0.015  0.005  0.005  0.026
   24  0.006  0.006  0.005  0.016
   25  0.014  0.002  0.008  0.024
   26  0.014  0.002  0.008  0.024
   27  0.006  0.006  0.005  0.016
   28  0.000  0.001  0.004  0.005
   29  0.004  0.001  0.004  0.009
   30  0.004  0.001  0.004  0.009
   31  0.004  0.001  0.004  0.009
   32  0.004  0.001  0.004  0.009
   33  0.004  0.001  0.004  0.009
   34  0.004  0.001  0.004  0.009
   35  0.000  0.000  0.002  0.003
   36  0.027  0.002  0.000  0.029
tot    0.356  0.104  0.185  0.646
 
band    10 # energy   -4.98866533 # occ.  2.00000000
 
ion      s      p      d    tot
    1  0.029  0.004  0.001  0.034
    2  0.000  0.003  0.010  0.013
    3  0.000  0.003  0.010  0.013
    4  0.000  0.003  0.010  0.013
    5  0.000  0.000  0.000  0.000
    6  0.000  0.003  0.010  0.013
    7  0.000  0.003  0.010  0.013
    8  0.000  0.003  0.010  0.013
    9  0.035  0.003  0.000  0.039
   10  0.010  0.004  0.010  0.024
   11  0.000  0.000  0.015  0.015
   12  0.010  0.004  0.010  0.024
   13  0.000  0.000  0.015  0.015
   14  0.000  0.000  0.015  0.015
   15  0.005  0.004  0.019  0.027
   16  0.010  0.004  0.010  0.024
   17  0.005  0.004  0.019  0.027
   18  0.005  0.004  0.019  0.027
   19  0.007  0.004  0.017  0.027
   20  0.001  0.000  0.016  0.017
   21  0.001  0.000  0.016  0.017
   22  0.010  0.004  0.010  0.023
   23  0.001  0.000  0.016  0.017
   24  0.010  0.004  0.010  0.023
   25  0.007  0.004  0.017  0.027
   26  0.007  0.004  0.017  0.027
   27  0.010  0.004  0.010  0.023
   28  0.031  0.004  0.001  0.035
   29  0.000  0.003  0.010  0.013
   30  0.000  0.003  0.010  0.013
   31  0.000  0.003  0.010  0.013
   32  0.000  0.003  0.010  0.013
   33  0.000  0.003  0.010  0.013
   34  0.000  0.003  0.010  0.013
   35  0.032  0.003  0.001  0.036
   36  0.000  0.000  0.000  0.000
tot    0.227  0.092  0.385  0.705
 
band    11 # energy   -4.98344510 # occ.  2.00000000
 
ion      s      p      d    tot
    1  0.011  0.000  0.007  0.018
    2  0.004  0.001  0.008  0.013
    3  0.004  0.001  0.008  0.013
    4  0.004  0.001  0.008  0.013
    5  0.000  0.001  0.009  0.010
    6  0.004  0.001  0.008  0.013
    7  0.004  0.001  0.008  0.013
    8  0.004  0.001  0.008  0.013
    9  0.006  0.000  0.007  0.013
   10  0.004  0.000  0.024  0.028
   11  0.011  0.001  0.022  0.033
   12  0.004  0.000  0.024  0.028
   13  0.011  0.001  0.022  0.033
   14  0.011  0.001  0.022  0.033
   15  0.003  0.000  0.021  0.024
   16  0.004  0.000  0.024  0.028
   17  0.003  0.000  0.021  0.024
   18  0.003  0.000  0.021  0.024
   19  0.003  0.000  0.022  0.025
   20  0.011  0.000  0.024  0.036
   21  0.011  0.000  0.024  0.036
   22  0.005  0.000  0.025  0.030
   23  0.011  0.000  0.024  0.036
   24  0.006  0.000  0.025  0.030
   25  0.003  0.000  0.022  0.025
   26  0.003  0.000  0.022  0.025
   27  0.005  0.000  0.025  0.030
   28  0.012  0.000  0.007  0.019
   29  0.005  0.001  0.009  0.015
   30  0.005  0.001  0.009  0.015
   31  0.005  0.001  0.009  0.015
   32  0.005  0.001  0.009  0.015
   33  0.005  0.001  0.009  0.015
   34  0.005  0.001  0.009  0.015
   35  0.008  0.000  0.008  0.017
   36  0.000  0.002  0.006  0.008
tot    0.199  0.016  0.562  0.776
 
band    12 # energy   -4.97832251 # occ.  2.00000000
 
ion      s      p      d    tot
    1  0.000  0.001  0.011  0.012
    2  0.015  0.003  0.005  0.024
    3  0.000  0.002  0.005  0.007
    4  0.014  0.003  0.005  0.022
    5  0.000  0.006  0.008  0.014
    6  0.017  0.003  0.006  0.026
    7  0.000  0.002  0.005  0.007
    8  0.018  0.004  0.006  0.027
    9  0.000  0.002  0.013  0.015
   10  0.009  0.003  0.010  0.022
   11  0.006  0.002  0.021  0.029
   12  0.002  0.001  0.014  0.017
   13  0.004  0.002  0.023  0.029
   14  0.020  0.005  0.005  0.031
   15  0.001  0.003  0.019  0.022
   16  0.002  0.002  0.013  0.017
   17  0.001  0.003  0.020  0.023
   18  0.002  0.000  0.007  0.010
   19  0.000  0.003  0.015  0.018
   20  0.019  0.004  0.005  0.028
   21  0.004  0.002  0.024  0.031
   22  0.003  0.001  0.016  0.020
   23  0.005  0.002  0.022  0.030
   24  0.015  0.005  0.009  0.028
   25  0.000  0.000  0.008  0.009
   26  0.000  0.003  0.016  0.019
   27  0.004  0.002  0.015  0.021
   28  0.000  0.001  0.012  0.013
   29  0.014  0.003  0.006  0.023
   30  0.001  0.002  0.005  0.008
   31  0.012  0.003  0.006  0.021
   32  0.018  0.003  0.006  0.027
   33  0.000  0.002  0.005  0.007
   34  0.019  0.004  0.006  0.028
   35  0.000  0.002  0.009  0.012
   36  0.000  0.007  0.005  0.012
tot    0.228  0.095  0.385  0.708
 
band    13 # energy   -4.97830249 # occ.  2.00000000
 
ion      s      p      d    tot
    1  0.000  0.001  0.011  0.012
    2  0.006  0.002  0.005  0.014
    3  0.021  0.004  0.005  0.030
    4  0.008  0.002  0.005  0.016
    5  0.000  0.006  0.008  0.014
    6  0.005  0.002  0.005  0.012
    7  0.021  0.004  0.006  0.031
    8  0.003  0.002  0.005  0.010
    9  0.000  0.002  0.013  0.015
   10  0.000  0.001  0.015  0.016
   11  0.015  0.004  0.012  0.030
   12  0.007  0.003  0.011  0.021
   13  0.016  0.004  0.010  0.030
   14  0.000  0.001  0.027  0.028
   15  0.002  0.001  0.012  0.015
   16  0.006  0.003  0.011  0.020
   17  0.002  0.001  0.011  0.014
   18  0.000  0.004  0.023  0.027
   19  0.000  0.001  0.011  0.013
   20  0.000  0.002  0.029  0.031
   21  0.015  0.003  0.010  0.028
   22  0.012  0.004  0.010  0.026
   23  0.013  0.003  0.012  0.029
   24  0.000  0.000  0.018  0.018
   25  0.000  0.004  0.018  0.022
   26  0.000  0.001  0.010  0.012
   27  0.011  0.003  0.011  0.025
   28  0.000  0.001  0.012  0.013
   29  0.008  0.002  0.005  0.015
   30  0.021  0.004  0.006  0.030
   31  0.010  0.003  0.005  0.017
   32  0.003  0.002  0.005  0.011
   33  0.021  0.004  0.006  0.031
   34  0.002  0.002  0.005  0.009
   35  0.000  0.002  0.009  0.012
   36  0.000  0.007  0.005  0.013
tot    0.228  0.095  0.385  0.708
 
band    14 # energy   -4.97425356 # occ.  2.00000000
 
ion      s      p      d    tot
    1  0.000  0.005  0.011  0.016
    2  0.015  0.003  0.005  0.023
    3  0.000  0.002  0.005  0.007
    4  0.014  0.003  0.005  0.023
    5  0.000  0.000  0.013  0.013
    6  0.018  0.003  0.006  0.027
    7  0.000  0.002  0.005  0.007
    8  0.018  0.004  0.006  0.027
    9  0.000  0.004  0.008  0.013
   10  0.000  0.003  0.030  0.033
   11  0.000  0.001  0.011  0.013
   12  0.010  0.003  0.011  0.023
   13  0.000  0.001  0.011  0.013
   14  0.000  0.003  0.016  0.019
   15  0.013  0.004  0.011  0.029
   16  0.009  0.003  0.012  0.023
   17  0.014  0.004  0.011  0.029
   18  0.000  0.000  0.020  0.020
   19  0.017  0.004  0.011  0.032
   20  0.000  0.002  0.015  0.017
   21  0.003  0.002  0.011  0.016
   22  0.006  0.002  0.010  0.018
   23  0.003  0.002  0.012  0.016
   24  0.000  0.004  0.024  0.028
   25  0.000  0.000  0.024  0.025
   26  0.018  0.004  0.010  0.032
   27  0.006  0.002  0.011  0.019
   28  0.000  0.005  0.008  0.014
   29  0.012  0.003  0.005  0.021
   30  0.001  0.002  0.005  0.008
   31  0.012  0.003  0.005  0.020
   32  0.018  0.003  0.005  0.026
   33  0.000  0.002  0.005  0.007
   34  0.018  0.004  0.005  0.027
   35  0.000  0.004  0.011  0.015
   36  0.000  0.000  0.006  0.006
tot    0.225  0.094  0.384  0.703
 
band    15 # energy   -4.97423784 # occ.  2.00000000
 
ion      s      p      d    tot
    1  0.000  0.005  0.011  0.016
    2  0.007  0.002  0.005  0.014
    3  0.021  0.004  0.006  0.031
    4  0.007  0.002  0.006  0.015
    5  0.000  0.000  0.013  0.013
    6  0.004  0.002  0.005  0.012
    7  0.022  0.004  0.006  0.031
    8  0.004  0.002  0.005  0.011
    9  0.000  0.004  0.008  0.013
   10  0.012  0.003  0.005  0.020
   11  0.000  0.002  0.014  0.017
   12  0.003  0.003  0.024  0.030
   13  0.000  0.002  0.014  0.017
   14  0.001  0.001  0.010  0.011
   15  0.005  0.002  0.017  0.023
   16  0.003  0.003  0.023  0.029
   17  0.004  0.001  0.017  0.023
   18  0.018  0.006  0.008  0.032
   19  0.006  0.002  0.019  0.027
   20  0.004  0.002  0.010  0.016
   21  0.001  0.002  0.014  0.017
   22  0.002  0.003  0.020  0.025
   23  0.001  0.002  0.014  0.017
   24  0.008  0.001  0.006  0.016
   25  0.023  0.005  0.006  0.034
   26  0.005  0.001  0.020  0.027
   27  0.002  0.003  0.019  0.025
   28  0.000  0.005  0.008  0.014
   29  0.008  0.002  0.005  0.015
   30  0.020  0.004  0.005  0.029
   31  0.008  0.002  0.005  0.016
   32  0.003  0.002  0.005  0.010
   33  0.020  0.004  0.005  0.029
   34  0.002  0.002  0.005  0.010
   35  0.000  0.004  0.011  0.015
   36  0.000  0.000  0.006  0.006
tot    0.225  0.094  0.384  0.703
 
band    16 # energy   -4.90070148 # occ.  2.00000000
 
ion      s      p      d    tot
    1  0.010  0.001  0.001  0.012
    2  0.000  0.003  0.011  0.014
    3  0.000  0.003  0.011  0.014
    4  0.000  0.003  0.011  0.014
    5  0.046  0.003  0.000  0.049
    6  0.000  0.003  0.011  0.014
    7  0.000  0.003  0.011  0.014
    8  0.000  0.003  0.011  0.014
    9  0.006  0.001  0.001  0.008
   10  0.002  0.001  0.022  0.025
   11  0.004  0.004  0.019  0.027
   12  0.002  0.001  0.022  0.025
   13  0.004  0.004  0.019  0.027
   14  0.004  0.004  0.019  0.027
   15  0.006  0.002  0.011  0.018
   16  0.002  0.001  0.022  0.025
   17  0.006  0.002  0.011  0.018
   18  0.006  0.002  0.011  0.018
   19  0.010  0.001  0.018  0.029
   20  0.009  0.004  0.012  0.025
   21  0.009  0.004  0.012  0.025
   22  0.003  0.001  0.018  0.022
   23  0.009  0.004  0.012  0.025
   24  0.003  0.001  0.018  0.022
   25  0.010  0.001  0.018  0.029
   26  0.010  0.001  0.018  0.029
   27  0.003  0.001  0.018  0.022
   28  0.003  0.002  0.004  0.009
   29  0.001  0.002  0.010  0.013
   30  0.001  0.002  0.010  0.013
   31  0.001  0.002  0.010  0.013
   32  0.001  0.002  0.010  0.013
   33  0.001  0.002  0.010  0.013
   34  0.001  0.002  0.010  0.013
   35  0.005  0.002  0.002  0.008
   36  0.043  0.004  0.000  0.047
tot    0.220  0.084  0.429  0.733
 
band    17 # energy   -4.29093035 # occ.  2.00000000
 
ion      s      p      d    tot
    1  0.000  0.002  0.003  0.005
    2  0.015  0.001  0.011  0.027
    3  0.006  0.001  0.009  0.017
    4  0.015  0.001  0.011  0.027
    5  0.000  0.002  0.018  0.020
    6  0.002  0.001  0.010  0.012
    7  0.006  0.001  0.009  0.017
    8  0.002  0.001  0.010  0.012
    9  0.000  0.000  0.035  0.035
   10  0.001  0.007  0.023  0.031
   11  0.000  0.001  0.038  0.039
   12  0.000  0.002  0.011  0.013
   13  0.000  0.001  0.039  0.040
   14  0.001  0.003  0.006  0.010
   15  0.000  0.000  0.035  0.036
   16  0.000  0.002  0.011  0.013
   17  0.000  0.000  0.036  0.036
   18  0.000  0.001  0.011  0.011
   19  0.000  0.000  0.047  0.047
   20  0.001  0.007  0.018  0.026
   21  0.000  0.002  0.018  0.020
   22  0.000  0.001  0.019  0.020
   23  0.000  0.002  0.018  0.021
   24  0.000  0.003  0.019  0.022
   25  0.000  0.001  0.003  0.004
   26  0.000  0.000  0.047  0.048
   27  0.000  0.001  0.019  0.020
   28  0.000  0.001  0.031  0.032
   29  0.011  0.001  0.011  0.023
   30  0.000  0.001  0.008  0.009
   31  0.011  0.001  0.011  0.023
   32  0.012  0.001  0.010  0.024
   33  0.000  0.001  0.008  0.009
   34  0.013  0.001  0.010  0.024
   35  0.000  0.000  0.022  0.022
   36  0.000  0.003  0.000  0.003
tot    0.100  0.053  0.648  0.800
 
band    18 # energy   -4.29086840 # occ.  2.00000000
 
ion      s      p      d    tot
    1  0.000  0.002  0.003  0.005
    2  0.000  0.001  0.010  0.011
    3  0.009  0.001  0.011  0.021
    4  0.000  0.001  0.010  0.011
    5  0.000  0.002  0.018  0.020
    6  0.014  0.001  0.010  0.025
    7  0.009  0.001  0.011  0.021
    8  0.014  0.001  0.010  0.025
    9  0.000  0.000  0.035  0.035
   10  0.000  0.000  0.008  0.008
   11  0.001  0.002  0.017  0.020
   12  0.001  0.005  0.019  0.025
   13  0.001  0.002  0.017  0.020
   14  0.000  0.000  0.049  0.049
   15  0.000  0.001  0.019  0.019
   16  0.001  0.005  0.019  0.025
   17  0.000  0.001  0.018  0.019
   18  0.000  0.000  0.044  0.044
   19  0.000  0.001  0.018  0.019
   20  0.000  0.000  0.019  0.019
   21  0.001  0.005  0.018  0.024
   22  0.000  0.003  0.018  0.021
   23  0.001  0.005  0.018  0.024
   24  0.000  0.000  0.020  0.021
   25  0.000  0.000  0.062  0.062
   26  0.000  0.001  0.017  0.018
   27  0.000  0.003  0.018  0.021
   28  0.000  0.001  0.031  0.032
   29  0.005  0.001  0.009  0.014
   30  0.016  0.001  0.011  0.028
   31  0.005  0.001  0.009  0.015
   32  0.003  0.001  0.010  0.014
   33  0.016  0.001  0.011  0.028
   34  0.003  0.001  0.010  0.014
   35  0.000  0.000  0.022  0.022
   36  0.000  0.003  0.000  0.003
tot    0.100  0.053  0.648  0.800
 
band    19 # energy   -4.28997869 # occ.  2.00000000
 
ion      s      p      d    tot
    1  0.002  0.000  0.001  0.004
    2  0.000  0.001  0.018  0.019
    3  0.000  0.001  0.018  0.020
    4  0.000  0.001  0.018  0.019
    5  0.015  0.001  0.000  0.015
    6  0.000  0.001  0.019  0.020
    7  0.000  0.001  0.018  0.020
    8  0.000  0.001  0.019  0.020
    9  0.028  0.001  0.002  0.031
   10  0.001  0.001  0.011  0.013
   11  0.000  0.001  0.019  0.020
   12  0.001  0.001  0.011  0.013
   13  0.000  0.001  0.019  0.020
   14  0.000  0.001  0.019  0.020
   15  0.001  0.003  0.040  0.044
   16  0.001  0.001  0.011  0.013
   17  0.001  0.003  0.040  0.044
   18  0.001  0.003  0.039  0.043
   19  0.000  0.001  0.029  0.031
   20  0.000  0.001  0.005  0.006
   21  0.000  0.001  0.006  0.006
   22  0.001  0.004  0.035  0.040
   23  0.000  0.001  0.006  0.006
   24  0.001  0.004  0.034  0.038
   25  0.000  0.001  0.029  0.031
   26  0.000  0.001  0.029  0.031
   27  0.001  0.004  0.036  0.040
   28  0.022  0.001  0.001  0.024
   29  0.000  0.001  0.019  0.020
   30  0.000  0.001  0.019  0.021
   31  0.000  0.001  0.019  0.020
   32  0.000  0.001  0.018  0.020
   33  0.000  0.001  0.019  0.021
   34  0.000  0.001  0.018  0.020
   35  0.024  0.001  0.002  0.026
   36  0.000  0.000  0.000  0.000
tot    0.098  0.052  0.650  0.799
 
band    20 # energy   -4.28004295 # occ.  2.00000000
 
ion      s      p      d    tot
    1  0.000  0.001  0.037  0.037
    2  0.015  0.001  0.011  0.027
    3  0.007  0.001  0.010  0.018
    4  0.015  0.001  0.011  0.027
    5  0.000  0.001  0.020  0.020
    6  0.002  0.001  0.011  0.013
    7  0.007  0.001  0.010  0.018
    8  0.002  0.001  0.011  0.013
    9  0.000  0.003  0.003  0.006
   10  0.000  0.000  0.062  0.062
   11  0.000  0.003  0.019  0.023
   12  0.000  0.000  0.019  0.020
   13  0.000  0.003  0.019  0.023
   14  0.000  0.000  0.020  0.020
   15  0.001  0.005  0.018  0.024
   16  0.000  0.000  0.019  0.020
   17  0.001  0.005  0.018  0.024
   18  0.000  0.000  0.024  0.024
   19  0.000  0.005  0.017  0.023
   20  0.000  0.000  0.055  0.055
   21  0.000  0.000  0.021  0.022
   22  0.001  0.003  0.018  0.021
   23  0.000  0.000  0.021  0.022
   24  0.000  0.000  0.048  0.048
   25  0.000  0.000  0.004  0.004
   26  0.000  0.005  0.017  0.023
   27  0.001  0.003  0.018  0.021
   28  0.000  0.002  0.005  0.007
   29  0.010  0.001  0.009  0.020
   30  0.000  0.001  0.009  0.010
   31  0.010  0.001  0.009  0.020
   32  0.012  0.001  0.008  0.022
   33  0.000  0.001  0.009  0.010
   34  0.012  0.001  0.008  0.022
   35  0.000  0.002  0.015  0.017
   36  0.000  0.000  0.015  0.015
tot    0.097  0.054  0.647  0.798
 
band    21 # energy   -4.27997393 # occ.  2.00000000
 
ion      s      p      d    tot
    1  0.000  0.001  0.037  0.037
    2  0.001  0.001  0.010  0.011
    3  0.009  0.001  0.011  0.021
    4  0.001  0.001  0.010  0.011
    5  0.000  0.001  0.020  0.020
    6  0.014  0.001  0.010  0.025
    7  0.009  0.001  0.011  0.021
    8  0.014  0.001  0.010  0.025
    9  0.000  0.003  0.003  0.006
   10  0.000  0.000  0.005  0.005
   11  0.000  0.001  0.019  0.021
   12  0.000  0.000  0.048  0.048
   13  0.000  0.001  0.019  0.021
   14  0.000  0.004  0.019  0.024
   15  0.000  0.002  0.022  0.024
   16  0.000  0.000  0.048  0.048
   17  0.000  0.002  0.022  0.024
   18  0.002  0.006  0.016  0.023
   19  0.000  0.002  0.009  0.011
   20  0.000  0.000  0.010  0.010
   21  0.000  0.000  0.044  0.044
   22  0.000  0.001  0.038  0.039
   23  0.000  0.000  0.044  0.044
   24  0.001  0.004  0.007  0.012
   25  0.000  0.007  0.022  0.029
   26  0.000  0.002  0.009  0.011
   27  0.000  0.001  0.038  0.039
   28  0.000  0.002  0.005  0.007
   29  0.005  0.001  0.009  0.014
   30  0.015  0.001  0.008  0.024
   31  0.005  0.001  0.009  0.014
   32  0.003  0.001  0.009  0.013
   33  0.015  0.001  0.008  0.024
   34  0.003  0.001  0.009  0.013
   35  0.000  0.002  0.015  0.017
   36  0.000  0.000  0.015  0.015
tot    0.097  0.054  0.647  0.798
 
band    22 # energy   -4.23943436 # occ.  2.00000000
 
ion      s      p      d    tot
    1  0.029  0.001  0.002  0.031
    2  0.000  0.001  0.020  0.021
    3  0.000  0.001  0.020  0.021
    4  0.000  0.001  0.020  0.021
    5  0.013  0.000  0.004  0.017
    6  0.000  0.001  0.020  0.021
    7  0.000  0.001  0.020  0.021
    8  0.000  0.001  0.020  0.021
    9  0.003  0.000  0.000  0.004
   10  0.000  0.002  0.033  0.035
   11  0.001  0.002  0.029  0.032
   12  0.000  0.002  0.033  0.035
   13  0.001  0.002  0.029  0.032
   14  0.001  0.002  0.029  0.032
   15  0.000  0.000  0.010  0.010
   16  0.000  0.002  0.033  0.035