PROCAR new format
# of k-points:   10         # of bands:  252         # of ions:   38

 k-point     1 :    0.00000000 0.00000000 0.00000000     weight = 0.01562500

band     1 # energy  -49.48161859 # occ.  2.00000000
 
ion      s      p      d    tot
    1  0.000  0.000  0.000  0.000
    2  0.000  0.000  0.000  0.000
    3  0.000  0.000  0.000  0.000
    4  0.000  0.000  0.000  0.000
    5  0.000  0.000  0.000  0.000
    6  0.000  0.000  0.000  0.000
    7  0.000  0.000  0.000  0.000
    8  0.000  0.000  0.000  0.000
    9  0.000  0.000  0.000  0.000
   10  0.000  0.000  0.000  0.000
   11  0.000  0.000  0.000  0.000
   12  0.000  0.000  0.000  0.000
   13  0.000  0.000  0.000  0.000
   14  0.000  0.000  0.000  0.000
   15  0.000  0.000  0.000  0.000
   16  0.000  0.000  0.000  0.000
   17  0.000  0.000  0.000  0.000
   18  0.000  0.000  0.000  0.000
   19  0.000  0.000  0.000  0.000
   20  0.000  0.000  0.000  0.000
   21  0.000  0.000  0.000  0.000
   22  0.000  0.000  0.000  0.000
   23  0.000  0.000  0.000  0.000
   24  0.000  0.000  0.000  0.000
   25  0.000  0.000  0.000  0.000
   26  0.000  0.000  0.000  0.000
   27  0.000  0.000  0.000  0.000
   28  0.000  0.000  0.000  0.000
   29  0.000  0.000  0.000  0.000
   30  0.000  0.000  0.000  0.000
   31  0.000  0.000  0.000  0.000
   32  0.000  0.000  0.000  0.000
   33  0.000  0.000  0.000  0.000
   34  0.000  0.000  0.000  0.000
   35  0.000  0.000  0.000  0.000
   36  0.992  0.000  0.000  0.992
   37  0.001  0.001  0.000  0.001
   38  0.000  0.000  0.000  0.000
tot    0.993  0.001  0.000  0.993
 
band     2 # energy  -27.88257806 # occ.  2.00000000
 
ion      s      p      d    tot
    1  0.000  0.000  0.000  0.000
    2  0.000  0.000  0.000  0.000
    3  0.000  0.000  0.000  0.000
    4  0.000  0.000  0.000  0.000
    5  0.000  0.000  0.000  0.000
    6  0.000  0.000  0.000  0.000
    7  0.000  0.000  0.000  0.000
    8  0.000  0.000  0.000  0.000
    9  0.000  0.000  0.000  0.000
   10  0.000  0.000  0.000  0.000
   11  0.000  0.000  0.000  0.000
   12  0.000  0.000  0.000  0.000
   13  0.000  0.000  0.000  0.000
   14  0.000  0.000  0.000  0.000
   15  0.000  0.000  0.000  0.000
   16  0.000  0.000  0.000  0.000
   17  0.000  0.000  0.000  0.000
   18  0.000  0.000  0.000  0.000
   19  0.000  0.000  0.000  0.000
   20  0.000  0.000  0.000  0.000
   21  0.000  0.000  0.000  0.000
   22  0.000  0.000  0.000  0.000
   23  0.000  0.000  0.000  0.000
   24  0.000  0.000  0.000  0.000
   25  0.000  0.000  0.000  0.000
   26  0.000  0.000  0.000  0.000
   27  0.000  0.000  0.000  0.000
   28  0.000  0.000  0.000  0.000
   29  0.000  0.000  0.000  0.000
   30  0.000  0.000  0.000  0.000
   31  0.000  0.000  0.000  0.000
   32  0.000  0.000  0.000  0.000
   33  0.000  0.000  0.000  0.000
   34  0.000  0.000  0.000  0.000
   35  0.000  0.000  0.000  0.000
   36  0.000  0.927  0.001  0.928
   37  0.033  0.007  0.000  0.040
   38  0.001  0.000  0.000  0.001
tot    0.034  0.934  0.001  0.969
 
band     3 # energy  -27.55648674 # occ.  2.00000000
 
ion      s      p      d    tot
    1  0.000  0.000  0.000  0.000
    2  0.000  0.000  0.000  0.000
    3  0.000  0.000  0.000  0.000
    4  0.000  0.000  0.000  0.000
    5  0.000  0.000  0.000  0.000
    6  0.000  0.000  0.000  0.000
    7  0.000  0.000  0.000  0.000
    8  0.000  0.000  0.000  0.000
    9  0.000  0.000  0.000  0.000
   10  0.000  0.000  0.000  0.000
   11  0.000  0.000  0.000  0.000
   12  0.000  0.000  0.000  0.000
   13  0.000  0.000  0.000  0.000
   14  0.000  0.000  0.000  0.000
   15  0.000  0.000  0.000  0.000
   16  0.000  0.000  0.000  0.000
   17  0.000  0.000  0.000  0.000
   18  0.000  0.000  0.000  0.000
   19  0.000  0.000  0.000  0.000
   20  0.000  0.000  0.000  0.000
   21  0.000  0.000  0.000  0.000
   22  0.000  0.000  0.000  0.000
   23  0.000  0.000  0.000  0.000
   24  0.000  0.000  0.000  0.000
   25  0.000  0.000  0.000  0.000
   26  0.000  0.000  0.000  0.000
   27  0.000  0.000  0.000  0.000
   28  0.000  0.000  0.000  0.000
   29  0.000  0.000  0.000  0.000
   30  0.000  0.001  0.000  0.001
   31  0.000  0.000  0.000  0.000
   32  0.000  0.000  0.000  0.000
   33  0.000  0.001  0.000  0.001
   34  0.000  0.000  0.000  0.000
   35  0.000  0.000  0.000  0.000
   36  0.000  0.968  0.000  0.968
   37  0.000  0.000  0.000  0.000
   38  0.000  0.000  0.000  0.000
tot    0.001  0.970  0.001  0.973
 
band     4 # energy  -27.55647792 # occ.  2.00000000
 
ion      s      p      d    tot
    1  0.000  0.000  0.000  0.000
    2  0.000  0.000  0.000  0.000
    3  0.000  0.000  0.000  0.000
    4  0.000  0.000  0.000  0.000
    5  0.000  0.000  0.000  0.000
    6  0.000  0.000  0.000  0.000
    7  0.000  0.000  0.000  0.000
    8  0.000  0.000  0.000  0.000
    9  0.000  0.000  0.000  0.000
   10  0.000  0.000  0.000  0.000
   11  0.000  0.000  0.000  0.000
   12  0.000  0.000  0.000  0.000
   13  0.000  0.000  0.000  0.000
   14  0.000  0.000  0.000  0.000
   15  0.000  0.000  0.000  0.000
   16  0.000  0.000  0.000  0.000
   17  0.000  0.000  0.000  0.000
   18  0.000  0.000  0.000  0.000
   19  0.000  0.000  0.000  0.000
   20  0.000  0.000  0.000  0.000
   21  0.000  0.000  0.000  0.000
   22  0.000  0.000  0.000  0.000
   23  0.000  0.000  0.000  0.000
   24  0.000  0.000  0.000  0.000
   25  0.000  0.000  0.000  0.000
   26  0.000  0.000  0.000  0.000
   27  0.000  0.000  0.000  0.000
   28  0.000  0.000  0.000  0.000
   29  0.000  0.000  0.000  0.001
   30  0.000  0.000  0.000  0.000
   31  0.000  0.000  0.000  0.001
   32  0.000  0.000  0.000  0.001
   33  0.000  0.000  0.000  0.000
   34  0.000  0.000  0.000  0.001
   35  0.000  0.000  0.000  0.000
   36  0.000  0.968  0.000  0.968
   37  0.000  0.000  0.000  0.000
   38  0.000  0.000  0.000  0.000
tot    0.001  0.970  0.001  0.973
 
band     5 # energy  -19.93233236 # occ.  2.00000000
 
ion      s      p      d    tot
    1  0.000  0.000  0.000  0.000
    2  0.000  0.000  0.000  0.000
    3  0.000  0.000  0.000  0.000
    4  0.000  0.000  0.000  0.000
    5  0.000  0.000  0.000  0.000
    6  0.000  0.000  0.000  0.000
    7  0.000  0.000  0.000  0.000
    8  0.000  0.000  0.000  0.000
    9  0.000  0.000  0.000  0.000
   10  0.000  0.000  0.000  0.000
   11  0.000  0.000  0.000  0.000
   12  0.000  0.000  0.000  0.000
   13  0.000  0.000  0.000  0.000
   14  0.000  0.000  0.000  0.000
   15  0.000  0.000  0.000  0.000
   16  0.000  0.000  0.000  0.000
   17  0.000  0.000  0.000  0.000
   18  0.000  0.000  0.000  0.000
   19  0.000  0.000  0.000  0.000
   20  0.000  0.000  0.000  0.000
   21  0.000  0.000  0.000  0.000
   22  0.000  0.000  0.000  0.000
   23  0.000  0.000  0.000  0.000
   24  0.000  0.000  0.000  0.000
   25  0.000  0.000  0.000  0.000
   26  0.000  0.000  0.000  0.000
   27  0.000  0.000  0.000  0.000
   28  0.000  0.000  0.000  0.000
   29  0.000  0.000  0.000  0.000
   30  0.000  0.000  0.000  0.000
   31  0.000  0.000  0.000  0.000
   32  0.000  0.000  0.000  0.000
   33  0.000  0.000  0.000  0.000
   34  0.000  0.000  0.000  0.000
   35  0.000  0.000  0.000  0.000
   36  0.004  0.038  0.012  0.054
   37  0.707  0.025  0.000  0.732
   38  0.123  0.025  0.000  0.148
tot    0.834  0.088  0.012  0.934
 
band     6 # energy   -9.07274148 # occ.  2.00000000
 
ion      s      p      d    tot
    1  0.006  0.001  0.000  0.007
    2  0.006  0.001  0.000  0.007
    3  0.006  0.001  0.000  0.007
    4  0.006  0.001  0.000  0.007
    5  0.006  0.001  0.000  0.007
    6  0.006  0.001  0.000  0.007
    7  0.006  0.001  0.000  0.007
    8  0.006  0.001  0.000  0.007
    9  0.006  0.001  0.000  0.007
   10  0.024  0.000  0.000  0.024
   11  0.023  0.000  0.000  0.023
   12  0.024  0.000  0.000  0.024
   13  0.023  0.000  0.000  0.023
   14  0.023  0.000  0.000  0.023
   15  0.024  0.000  0.000  0.024
   16  0.024  0.000  0.000  0.024
   17  0.024  0.000  0.000  0.024
   18  0.024  0.000  0.000  0.024
   19  0.026  0.000  0.000  0.026
   20  0.024  0.000  0.000  0.024
   21  0.024  0.000  0.000  0.024
   22  0.025  0.000  0.000  0.025
   23  0.024  0.000  0.000  0.024
   24  0.025  0.000  0.000  0.025
   25  0.026  0.000  0.000  0.026
   26  0.026  0.000  0.000  0.026
   27  0.025  0.000  0.000  0.025
   28  0.007  0.001  0.000  0.008
   29  0.007  0.001  0.000  0.008
   30  0.007  0.001  0.000  0.008
   31  0.007  0.001  0.000  0.008
   32  0.007  0.001  0.000  0.008
   33  0.007  0.001  0.000  0.008
   34  0.007  0.001  0.000  0.008
   35  0.007  0.001  0.000  0.008
   36  0.005  0.000  0.001  0.006
   37  0.000  0.009  0.000  0.009
   38  0.003  0.000  0.000  0.003
tot    0.556  0.024  0.002  0.583
 
band     7 # energy   -8.26819330 # occ.  2.00000000
 
ion      s      p      d    tot
    1  0.001  0.000  0.000  0.002
    2  0.001  0.000  0.000  0.002
    3  0.001  0.000  0.000  0.002
    4  0.001  0.000  0.000  0.002
    5  0.001  0.000  0.000  0.001
    6  0.001  0.000  0.000  0.002
    7  0.001  0.000  0.000  0.002
    8  0.001  0.000  0.000  0.002
    9  0.002  0.000  0.000  0.002
   10  0.002  0.000  0.000  0.002
   11  0.002  0.000  0.000  0.002
   12  0.002  0.000  0.000  0.002
   13  0.002  0.000  0.000  0.002
   14  0.002  0.000  0.000  0.002
   15  0.002  0.000  0.000  0.002
   16  0.002  0.000  0.000  0.002
   17  0.002  0.000  0.000  0.002
   18  0.002  0.000  0.000  0.002
   19  0.000  0.000  0.000  0.000
   20  0.001  0.001  0.001  0.002
   21  0.001  0.001  0.001  0.002
   22  0.000  0.000  0.000  0.000
   23  0.001  0.001  0.001  0.002
   24  0.000  0.000  0.000  0.000
   25  0.000  0.000  0.000  0.000
   26  0.000  0.000  0.000  0.000
   27  0.000  0.000  0.000  0.000
   28  0.000  0.000  0.000  0.000
   29  0.000  0.000  0.000  0.000
   30  0.000  0.000  0.000  0.000
   31  0.000  0.000  0.000  0.000
   32  0.000  0.000  0.000  0.000
   33  0.000  0.000  0.000  0.000
   34  0.000  0.000  0.000  0.000
   35  0.000  0.000  0.000  0.000
   36  0.027  0.019  0.094  0.140
   37  0.033  0.492  0.000  0.525
   38  0.165  0.016  0.000  0.181
tot    0.261  0.532  0.097  0.891
 
band     8 # energy   -7.75058844 # occ.  2.00000000
 
ion      s      p      d    tot
    1  0.017  0.001  0.000  0.018
    2  0.017  0.001  0.000  0.018
    3  0.017  0.001  0.000  0.018
    4  0.017  0.001  0.000  0.018
    5  0.017  0.001  0.000  0.018
    6  0.017  0.001  0.000  0.018
    7  0.017  0.001  0.000  0.018
    8  0.017  0.001  0.000  0.018
    9  0.016  0.001  0.000  0.017
   10  0.009  0.002  0.001  0.012
   11  0.010  0.002  0.000  0.012
   12  0.009  0.002  0.001  0.011
   13  0.010  0.002  0.000  0.012
   14  0.010  0.002  0.000  0.012
   15  0.008  0.002  0.001  0.011
   16  0.009  0.002  0.001  0.011
   17  0.008  0.002  0.001  0.011
   18  0.008  0.002  0.001  0.011
   19  0.011  0.002  0.000  0.014
   20  0.007  0.002  0.001  0.009
   21  0.007  0.002  0.001  0.009
   22  0.011  0.002  0.000  0.013
   23  0.007  0.002  0.001  0.009
   24  0.011  0.002  0.000  0.013
   25  0.011  0.002  0.000  0.014
   26  0.011  0.002  0.000  0.014
   27  0.011  0.002  0.000  0.013
   28  0.022  0.001  0.001  0.023
   29  0.019  0.001  0.001  0.021
   30  0.019  0.001  0.001  0.021
   31  0.019  0.001  0.001  0.021
   32  0.019  0.001  0.001  0.021
   33  0.019  0.001  0.001  0.021
   34  0.019  0.001  0.001  0.021
   35  0.021  0.001  0.001  0.023
   36  0.002  0.004  0.011  0.016
   37  0.003  0.025  0.000  0.027
   38  0.008  0.001  0.000  0.009
tot    0.487  0.079  0.031  0.597
 
band     9 # energy   -6.19215500 # occ.  2.00000000
 
ion      s      p      d    tot
    1  0.016  0.000  0.005  0.022
    2  0.016  0.000  0.005  0.021
    3  0.016  0.000  0.005  0.021
    4  0.016  0.000  0.005  0.021
    5  0.010  0.000  0.006  0.016
    6  0.016  0.000  0.005  0.021
    7  0.016  0.000  0.005  0.021
    8  0.016  0.000  0.005  0.021
    9  0.022  0.000  0.004  0.026
   10  0.003  0.004  0.002  0.008
   11  0.008  0.004  0.001  0.013
   12  0.003  0.004  0.002  0.008
   13  0.008  0.004  0.001  0.013
   14  0.008  0.004  0.001  0.013
   15  0.000  0.003  0.003  0.006
   16  0.003  0.004  0.002  0.008
   17  0.000  0.003  0.003  0.006
   18  0.000  0.003  0.003  0.006
   19  0.003  0.003  0.005  0.011
   20  0.015  0.003  0.002  0.021
   21  0.015  0.003  0.002  0.021
   22  0.002  0.003  0.004  0.009
   23  0.015  0.003  0.002  0.021
   24  0.002  0.003  0.004  0.009
   25  0.003  0.003  0.005  0.011
   26  0.003  0.003  0.005  0.011
   27  0.002  0.003  0.004  0.009
   28  0.021  0.000  0.007  0.028
   29  0.017  0.000  0.009  0.026
   30  0.017  0.000  0.009  0.026
   31  0.017  0.000  0.009  0.026
   32  0.017  0.000  0.009  0.026
   33  0.017  0.000  0.009  0.026
   34  0.017  0.000  0.009  0.026
   35  0.026  0.000  0.007  0.033
   36  0.005  0.000  0.006  0.010
   37  0.000  0.000  0.000  0.001
   38  0.000  0.000  0.000  0.000
tot    0.387  0.066  0.171  0.624
 
band    10 # energy   -6.11148201 # occ.  2.00000000
 
ion      s      p      d    tot
    1  0.000  0.002  0.003  0.006
    2  0.004  0.001  0.002  0.007
    3  0.008  0.002  0.002  0.012
    4  0.004  0.001  0.002  0.007
    5  0.000  0.000  0.002  0.002
    6  0.001  0.001  0.002  0.003
    7  0.008  0.002  0.002  0.011
    8  0.001  0.001  0.002  0.003
    9  0.000  0.002  0.004  0.006
   10  0.032  0.001  0.006  0.039
   11  0.000  0.005  0.005  0.011
   12  0.008  0.008  0.005  0.022
   13  0.000  0.005  0.005  0.011
   14  0.002  0.002  0.003  0.007
   15  0.011  0.001  0.011  0.024
   16  0.007  0.009  0.005  0.021
   17  0.013  0.002  0.011  0.025
   18  0.048  0.004  0.003  0.055
   19  0.016  0.003  0.013  0.032
   20  0.013  0.003  0.003  0.019
   21  0.003  0.004  0.010  0.017
   22  0.005  0.011  0.002  0.018
   23  0.003  0.004  0.010  0.017
   24  0.020  0.000  0.007  0.027
   25  0.067  0.004  0.005  0.076
   26  0.018  0.003  0.012  0.034
   27  0.005  0.011  0.002  0.018
   28  0.000  0.004  0.007  0.012
   29  0.005  0.002  0.003  0.010
   30  0.017  0.003  0.005  0.025
   31  0.005  0.002  0.003  0.010
   32  0.003  0.002  0.004  0.009
   33  0.017  0.003  0.005  0.025
   34  0.004  0.002  0.004  0.009
   35  0.000  0.003  0.004  0.007
   36  0.000  0.000  0.004  0.004
   37  0.000  0.000  0.000  0.000
   38  0.000  0.000  0.000  0.000
tot    0.348  0.113  0.179  0.640
 
band    11 # energy   -6.11140011 # occ.  2.00000000
 
ion      s      p      d    tot
    1  0.000  0.002  0.003  0.006
    2  0.004  0.001  0.002  0.007
    3  0.000  0.001  0.002  0.003
    4  0.004  0.001  0.002  0.007
    5  0.000  0.000  0.002  0.002
    6  0.008  0.002  0.002  0.011
    7  0.001  0.001  0.002  0.003
    8  0.007  0.002  0.002  0.011
    9  0.000  0.002  0.004  0.006
   10  0.000  0.011  0.004  0.016
   11  0.001  0.003  0.004  0.008
   12  0.023  0.003  0.006  0.032
   13  0.001  0.003  0.004  0.008
   14  0.000  0.006  0.006  0.012
   15  0.037  0.004  0.005  0.046
   16  0.024  0.003  0.006  0.033
   17  0.035  0.003  0.006  0.044
   18  0.000  0.001  0.014  0.015
   19  0.052  0.004  0.007  0.063
   20  0.000  0.004  0.012  0.016
   21  0.009  0.004  0.005  0.018
   22  0.015  0.004  0.005  0.024
   23  0.010  0.004  0.005  0.018
   24  0.000  0.014  0.001  0.015
   25  0.000  0.003  0.015  0.018
   26  0.050  0.004  0.007  0.061
   27  0.016  0.003  0.005  0.024
   28  0.000  0.004  0.007  0.012
   29  0.012  0.003  0.005  0.019
   30  0.000  0.001  0.003  0.005
   31  0.012  0.003  0.005  0.020
   32  0.013  0.003  0.004  0.021
   33  0.000  0.001  0.003  0.005
   34  0.013  0.003  0.004  0.020
   35  0.000  0.003  0.004  0.007
   36  0.000  0.000  0.004  0.004
   37  0.000  0.000  0.000  0.000
   38  0.000  0.000  0.000  0.000
tot    0.348  0.113  0.179  0.640
 
band    12 # energy   -6.08825149 # occ.  2.00000000
 
ion      s      p      d    tot
    1  0.018  0.003  0.001  0.022
    2  0.000  0.002  0.004  0.005
    3  0.000  0.002  0.004  0.005
    4  0.000  0.002  0.004  0.005
    5  0.002  0.000  0.000  0.002
    6  0.000  0.002  0.004  0.005
    7  0.000  0.002  0.004  0.005
    8  0.000  0.002  0.004  0.005
    9  0.008  0.001  0.000  0.009
   10  0.029  0.006  0.005  0.040
   11  0.005  0.000  0.011  0.016
   12  0.029  0.006  0.005  0.040
   13  0.005  0.000  0.011  0.016
   14  0.005  0.000  0.011  0.016
   15  0.010  0.007  0.004  0.022
   16  0.029  0.006  0.005  0.040
   17  0.010  0.007  0.004  0.022
   18  0.010  0.008  0.004  0.021
   19  0.024  0.010  0.002  0.036
   20  0.000  0.002  0.010  0.013
   21  0.000  0.003  0.010  0.013
   22  0.025  0.002  0.009  0.036
   23  0.000  0.003  0.010  0.013
   24  0.025  0.002  0.009  0.036
   25  0.024  0.010  0.002  0.036
   26  0.024  0.010  0.002  0.036
   27  0.025  0.002  0.009  0.036
   28  0.020  0.003  0.000  0.024
   29  0.000  0.002  0.006  0.008
   30  0.000  0.002  0.006  0.008
   31  0.000  0.002  0.006  0.008
   32  0.000  0.002  0.006  0.008
   33  0.000  0.002  0.006  0.008
   34  0.000  0.002  0.006  0.008
   35  0.015  0.002  0.001  0.018
   36  0.000  0.000  0.000  0.000
   37  0.000  0.000  0.000  0.000
   38  0.000  0.000  0.000  0.000
tot    0.345  0.115  0.182  0.642
 
band    13 # energy   -6.05884283 # occ.  2.00000000
 
ion      s      p      d    tot
    1  0.000  0.001  0.004  0.004
    2  0.005  0.002  0.002  0.008
    3  0.009  0.002  0.002  0.014
    4  0.004  0.002  0.002  0.008
    5  0.000  0.003  0.005  0.008
    6  0.001  0.001  0.002  0.003
    7  0.009  0.002  0.002  0.013
    8  0.001  0.001  0.002  0.004
    9  0.000  0.001  0.002  0.003
   10  0.000  0.001  0.014  0.015
   11  0.044  0.004  0.006  0.054
   12  0.019  0.003  0.005  0.027
   13  0.042  0.004  0.006  0.052
   14  0.000  0.006  0.011  0.017
   15  0.005  0.003  0.005  0.013
   16  0.020  0.003  0.005  0.028
   17  0.005  0.004  0.005  0.013
   18  0.000  0.012  0.002  0.014
   19  0.000  0.003  0.005  0.008
   20  0.000  0.010  0.007  0.017
   21  0.037  0.004  0.007  0.048
   22  0.033  0.004  0.006  0.043
   23  0.040  0.004  0.007  0.050
   24  0.000  0.000  0.018  0.018
   25  0.000  0.011  0.004  0.015
   26  0.000  0.004  0.005  0.009
   27  0.035  0.004  0.006  0.045
   28  0.000  0.000  0.003  0.003
   29  0.004  0.002  0.003  0.008
   30  0.011  0.003  0.004  0.018
   31  0.003  0.001  0.003  0.008
   32  0.002  0.001  0.003  0.006
   33  0.011  0.003  0.004  0.018
   34  0.002  0.001  0.003  0.007
   35  0.000  0.002  0.006  0.007
   36  0.000  0.002  0.005  0.007
   37  0.000  0.001  0.000  0.001
   38  0.000  0.000  0.000  0.000
tot    0.341  0.114  0.181  0.636
 
band    14 # energy   -6.05876937 # occ.  2.00000000
 
ion      s      p      d    tot
    1  0.000  0.001  0.004  0.004
    2  0.005  0.002  0.002  0.008
    3  0.000  0.001  0.002  0.003
    4  0.005  0.002  0.002  0.009
    5  0.000  0.003  0.005  0.008
    6  0.009  0.002  0.002  0.013
    7  0.001  0.001  0.002  0.003
    8  0.008  0.002  0.002  0.013
    9  0.000  0.001  0.002  0.003
   10  0.026  0.004  0.002  0.032
   11  0.013  0.005  0.009  0.028
   12  0.007  0.002  0.011  0.020
   13  0.016  0.005  0.009  0.030
   14  0.057  0.003  0.005  0.065
   15  0.002  0.010  0.003  0.014
   16  0.006  0.002  0.011  0.019
   17  0.002  0.009  0.003  0.014
   18  0.007  0.000  0.006  0.013
   19  0.000  0.009  0.004  0.013
   20  0.051  0.002  0.007  0.060
   21  0.014  0.008  0.007  0.029
   22  0.012  0.001  0.013  0.027
   23  0.012  0.008  0.007  0.027
   24  0.046  0.005  0.002  0.053
   25  0.000  0.001  0.005  0.007
   26  0.000  0.008  0.004  0.013
   27  0.010  0.001  0.014  0.025
   28  0.000  0.000  0.003  0.003
   29  0.007  0.002  0.004  0.013
   30  0.000  0.001  0.003  0.004
   31  0.008  0.002  0.004  0.014
   32  0.009  0.003  0.003  0.015
   33  0.000  0.001  0.003  0.004
   34  0.009  0.002  0.003  0.015
   35  0.000  0.002  0.006  0.007
   36  0.000  0.001  0.005  0.007
   37  0.000  0.001  0.000  0.001
   38  0.000  0.000  0.000  0.000
tot    0.341  0.114  0.181  0.636
 
band    15 # energy   -5.95749974 # occ.  2.00000000
 
ion      s      p      d    tot
    1  0.000  0.000  0.000  0.001
    2  0.001  0.002  0.006  0.009
    3  0.001  0.002  0.006  0.009
    4  0.001  0.002  0.006  0.009
    5  0.035  0.003  0.000  0.039
    6  0.001  0.002  0.006  0.009
    7  0.001  0.002  0.006  0.009
    8  0.001  0.002  0.006  0.009
    9  0.007  0.002  0.003  0.012
   10  0.002  0.004  0.009  0.015
   11  0.024  0.010  0.003  0.036
   12  0.002  0.004  0.009  0.015
   13  0.024  0.010  0.003  0.036
   14  0.024  0.010  0.003  0.037
   15  0.028  0.002  0.012  0.042
   16  0.002  0.004  0.009  0.015
   17  0.028  0.002  0.012  0.042
   18  0.028  0.002  0.012  0.042
   19  0.007  0.001  0.010  0.018
   20  0.021  0.004  0.007  0.032
   21  0.022  0.004  0.007  0.033
   22  0.008  0.007  0.005  0.020
   23  0.022  0.004  0.007  0.033
   24  0.008  0.007  0.005  0.020
   25  0.007  0.001  0.010  0.018
   26  0.007  0.001  0.010  0.018
   27  0.008  0.007  0.005  0.020
   28  0.000  0.000  0.002  0.003
   29  0.002  0.001  0.003  0.005
   30  0.002  0.001  0.003  0.005
   31  0.002  0.001  0.003  0.005
   32  0.002  0.001  0.003  0.005
   33  0.002  0.001  0.003  0.005
   34  0.002  0.001  0.003  0.005
   35  0.000  0.001  0.001  0.002
   36  0.004  0.002  0.001  0.007
   37  0.001  0.003  0.000  0.003
   38  0.001  0.000  0.000  0.001
tot    0.332  0.113  0.199  0.644
 
band    16 # energy   -5.38571647 # occ.  2.00000000
 
ion      s      p      d    tot
    1  0.000  0.004  0.009  0.014
    2  0.005  0.002  0.005  0.012
    3  0.020  0.004  0.005  0.029
    4  0.004  0.002  0.005  0.011
    5  0.000  0.000  0.010  0.010
    6  0.006  0.002  0.005  0.012
    7  0.020  0.004  0.005  0.029
    8  0.006  0.002  0.005  0.013
    9  0.000  0.005  0.009  0.013
   10  0.014  0.001  0.006  0.021
   11  0.001  0.003  0.012  0.016
   12  0.003  0.004  0.014  0.021
   13  0.001  0.003  0.012  0.016
   14  0.003  0.001  0.007  0.011
   15  0.007  0.001  0.017  0.026
   16  0.003  0.004  0.014  0.021
   17  0.008  0.001  0.017  0.026
   18  0.030  0.005  0.005  0.039
   19  0.002  0.002  0.012  0.016
   20  0.001  0.001  0.010  0.011
   21  0.000  0.001  0.012  0.014
   22  0.001  0.002  0.024  0.028
   23  0.000  0.001  0.012  0.014
   24  0.006  0.003  0.002  0.011
   25  0.010  0.007  0.010  0.027
   26  0.003  0.002  0.012  0.016
   27  0.001  0.002  0.025  0.028
   28  0.000  0.005  0.008  0.013
   29  0.007  0.002  0.009  0.018
   30  0.028  0.003  0.011  0.042
   31  0.007  0.002  0.009  0.017
   32  0.007  0.002  0.008  0.017
   33  0.028  0.003  0.011  0.042
   34  0.007  0.002  0.008  0.018
   35  0.000  0.005  0.011  0.016
   36  0.000  0.000  0.012  0.012
   37  0.000  0.000  0.000  0.000
   38  0.000  0.000  0.000  0.000
tot    0.238  0.093  0.368  0.699
 
band    17 # energy   -5.38566568 # occ.  2.00000000
 
ion      s      p      d    tot
    1  0.000  0.004  0.010  0.014
    2  0.016  0.003  0.005  0.024
    3  0.000  0.002  0.005  0.006
    4  0.016  0.003  0.005  0.024
    5  0.000  0.000  0.010  0.010
    6  0.015  0.003  0.005  0.023
    7  0.000  0.002  0.005  0.006
    8  0.015  0.003  0.005  0.023
    9  0.000  0.005  0.009  0.013
   10  0.000  0.005  0.016  0.021
   11  0.002  0.002  0.009  0.013
   12  0.010  0.002  0.009  0.021
   13  0.002  0.002  0.009  0.013
   14  0.000  0.003  0.014  0.017
   15  0.022  0.003  0.009  0.035
   16  0.010  0.002  0.009  0.021
   17  0.022  0.003  0.009  0.034
   18  0.000  0.000  0.021  0.022
   19  0.008  0.005  0.011  0.024
   20  0.000  0.002  0.013  0.015
   21  0.000  0.001  0.010  0.012
   22  0.004  0.002  0.010  0.017
   23  0.000  0.001  0.010  0.012
   24  0.000  0.002  0.032  0.033
   25  0.000  0.000  0.013  0.013
   26  0.007  0.005  0.011  0.023
   27  0.004  0.002  0.010  0.016
   28  0.000  0.005  0.008  0.013
   29  0.021  0.003  0.010  0.034
   30  0.000  0.002  0.008  0.009
   31  0.021  0.003  0.010  0.034
   32  0.021  0.003  0.011  0.034
   33  0.000  0.002  0.008  0.009
   34  0.020  0.003  0.011  0.034
   35  0.000  0.005  0.011  0.016
   36  0.000  0.000  0.012  0.012
   37  0.000  0.000  0.000  0.000
   38  0.000  0.000  0.000  0.000
tot    0.238  0.093  0.368  0.699
 
band    18 # energy   -5.34052584 # occ.  2.00000000
 
ion      s      p      d    tot
    1  0.001  0.001  0.010  0.012
    2  0.005  0.001  0.010  0.016
    3  0.005  0.001  0.010  0.016
    4  0.005  0.001  0.010  0.016
    5  0.001  0.001  0.008  0.010
    6  0.005  0.001  0.010  0.016
    7  0.005  0.001  0.010  0.016
    8  0.005  0.001  0.010  0.016
    9  0.024  0.000  0.006  0.030
   10  0.013  0.000  0.023  0.036
   11  0.008  0.000  0.020  0.028
   12  0.013  0.000  0.023  0.036
   13  0.008  0.000  0.020  0.028
   14  0.008  0.000  0.020  0.028
   15  0.001  0.001  0.023  0.025
   16  0.013  0.000  0.023  0.036
   17  0.001  0.001  0.023  0.025
   18  0.001  0.001  0.023  0.025
   19  0.007  0.001  0.020  0.027
   20  0.009  0.000  0.022  0.031
   21  0.009  0.000  0.022  0.031
   22  0.001  0.000  0.020  0.021
   23  0.009  0.000  0.022  0.031
   24  0.001  0.000  0.020  0.021
   25  0.007  0.001  0.019  0.027
   26  0.007  0.001  0.020  0.027
   27  0.001  0.000  0.020  0.021
   28  0.000  0.001  0.006  0.007
   29  0.003  0.001  0.010  0.014
   30  0.003  0.001  0.010  0.014
   31  0.003  0.001  0.010  0.014
   32  0.003  0.001  0.010  0.014
   33  0.003  0.001  0.010  0.014
   34  0.003  0.001  0.010  0.014
   35  0.019  0.000  0.005  0.024
   36  0.001  0.000  0.003  0.004
   37  0.000  0.001  0.000  0.001
   38  0.000  0.000  0.000  0.000
tot    0.207  0.024  0.534  0.766
 
band    19 # energy   -5.33118672 # occ.  2.00000000
 
ion      s      p      d    tot
    1  0.037  0.002  0.000  0.039
    2  0.001  0.003  0.010  0.013
    3  0.001  0.003  0.009  0.013
    4  0.001  0.003  0.010  0.013
    5  0.001  0.000  0.002  0.003
    6  0.001  0.003  0.009  0.013
    7  0.001  0.003  0.009  0.013
    8  0.001  0.003  0.009  0.013
    9  0.017  0.004  0.003  0.024
   10  0.005  0.003  0.012  0.020
   11  0.004  0.000  0.016  0.020
   12  0.005  0.003  0.012  0.020
   13  0.004  0.000  0.016  0.020
   14  0.004  0.000  0.016  0.020
   15  0.011  0.003  0.014  0.028
   16  0.005  0.003  0.012  0.020
   17  0.011  0.003  0.014  0.028
   18  0.011  0.003  0.014  0.028
   19  0.001  0.003  0.023  0.027
   20  0.000  0.000  0.013  0.013
   21  0.000  0.000  0.013  0.013
   22  0.012  0.003  0.009  0.025
   23  0.000  0.000  0.013  0.013
   24  0.012  0.003  0.009  0.025
   25  0.001  0.003  0.023  0.027
   26  0.001  0.003  0.023  0.027
   27  0.012  0.003  0.009  0.025
   28  0.040  0.002  0.001  0.043
   29  0.000  0.003  0.014  0.017
   30  0.000  0.003  0.014  0.017
   31  0.000  0.003  0.014  0.017
   32  0.000  0.003  0.014  0.017
   33  0.000  0.003  0.014  0.017
   34  0.000  0.003  0.014  0.017
   35  0.020  0.003  0.002  0.025
   36  0.000  0.000  0.000  0.000
   37  0.000  0.000  0.000  0.000
   38  0.000  0.000  0.000  0.000
tot    0.221  0.081  0.414  0.716
 
band    20 # energy   -5.31237497 # occ.  2.00000000
 
ion      s      p      d    tot
    1  0.000  0.002  0.009  0.011
    2  0.005  0.002  0.005  0.012
    3  0.021  0.004  0.005  0.030
    4  0.003  0.002  0.005  0.011
    5  0.000  0.006  0.009  0.015
    6  0.006  0.002  0.005  0.013
    7  0.021  0.004  0.005  0.030
    8  0.007  0.002  0.005  0.014
    9  0.000  0.001  0.011  0.013
   10  0.000  0.001  0.017  0.018
   11  0.017  0.003  0.009  0.030
   12  0.010  0.003  0.011  0.024
   13  0.016  0.003  0.010  0.029
   14  0.000  0.002  0.024  0.026
   15  0.001  0.001  0.010  0.011
   16  0.011  0.003  0.010  0.024
   17  0.001  0.001  0.010  0.012
   18  0.000  0.004  0.017  0.021
   19  0.001  0.001  0.011  0.013
   20  0.000  0.001  0.030  0.031
   21  0.013  0.004  0.012  0.029
   22  0.006  0.003  0.011  0.020
   23  0.014  0.004  0.011  0.029
   24  0.000  0.001  0.012  0.013
   25  0.000  0.003  0.024  0.027
   26  0.001  0.001  0.012  0.014
   27  0.007  0.003  0.011  0.021
   28  0.000  0.002  0.015  0.016
   29  0.006  0.002  0.007  0.015
   30  0.020  0.004  0.008  0.032
   31  0.004  0.002  0.007  0.013
   32  0.004  0.002  0.007  0.014
   33  0.020  0.004  0.008  0.032
   34  0.006  0.002  0.007  0.015
   35  0.000  0.001  0.011  0.013
   36  0.000  0.002  0.008  0.011
   37  0.000  0.002  0.000  0.002
   38  0.000  0.000  0.000  0.000
tot    0.222  0.091  0.391  0.704
 
band    21 # energy   -5.31235151 # occ.  2.00000000
 
ion      s      p      d    tot
    1  0.000  0.002  0.009  0.011
    2  0.016  0.003  0.005  0.025
    3  0.000  0.002  0.005  0.007
    4  0.017  0.003  0.005  0.026
    5  0.000  0.006  0.009  0.015
    6  0.015  0.003  0.005  0.024
    7  0.000  0.002  0.005  0.007
    8  0.014  0.003  0.005  0.022
    9  0.000  0.001  0.011  0.013
   10  0.014  0.004  0.008  0.026
   11  0.005  0.002  0.020  0.027
   12  0.004  0.001  0.015  0.020
   13  0.006  0.002  0.019  0.027
   14  0.022  0.004  0.005  0.031
   15  0.000  0.003  0.015  0.018
   16  0.003  0.001  0.015  0.020