PROCAR new format
# of k-points:   10         # of bands:  252         # of ions:   37

 k-point     1 :    0.00000000 0.00000000 0.00000000     weight = 0.01562500

band     1 # energy  -13.53841148 # occ.  2.00000000
 
ion      s      p      d    tot
    1  0.000  0.000  0.000  0.000
    2  0.000  0.000  0.000  0.000
    3  0.000  0.000  0.000  0.000
    4  0.000  0.000  0.000  0.000
    5  0.000  0.000  0.000  0.000
    6  0.000  0.000  0.000  0.000
    7  0.000  0.000  0.000  0.000
    8  0.000  0.000  0.000  0.000
    9  0.000  0.000  0.000  0.000
   10  0.000  0.000  0.000  0.000
   11  0.000  0.000  0.000  0.000
   12  0.000  0.000  0.000  0.000
   13  0.000  0.000  0.000  0.000
   14  0.000  0.000  0.000  0.000
   15  0.000  0.000  0.000  0.000
   16  0.000  0.000  0.000  0.000
   17  0.000  0.000  0.000  0.000
   18  0.000  0.000  0.000  0.000
   19  0.000  0.000  0.000  0.000
   20  0.000  0.000  0.000  0.000
   21  0.000  0.000  0.000  0.000
   22  0.000  0.000  0.000  0.000
   23  0.000  0.000  0.000  0.000
   24  0.000  0.000  0.000  0.000
   25  0.000  0.000  0.000  0.000
   26  0.000  0.000  0.000  0.000
   27  0.000  0.000  0.000  0.000
   28  0.000  0.000  0.000  0.000
   29  0.000  0.000  0.000  0.000
   30  0.000  0.000  0.000  0.000
   31  0.000  0.000  0.000  0.000
   32  0.000  0.000  0.000  0.000
   33  0.000  0.000  0.000  0.000
   34  0.000  0.000  0.000  0.000
   35  0.000  0.000  0.000  0.000
   36  0.076  0.062  0.157  0.295
   37  0.588  0.029  0.000  0.618
tot    0.665  0.092  0.158  0.915
 
band     2 # energy   -6.34980516 # occ.  2.00000000
 
ion      s      p      d    tot
    1  0.005  0.001  0.000  0.006
    2  0.005  0.000  0.000  0.005
    3  0.005  0.000  0.000  0.005
    4  0.005  0.000  0.000  0.005
    5  0.005  0.000  0.000  0.005
    6  0.005  0.000  0.000  0.005
    7  0.005  0.000  0.000  0.005
    8  0.005  0.000  0.000  0.005
    9  0.005  0.000  0.000  0.005
   10  0.021  0.000  0.000  0.021
   11  0.021  0.000  0.000  0.022
   12  0.021  0.000  0.000  0.021
   13  0.021  0.000  0.000  0.022
   14  0.021  0.000  0.000  0.022
   15  0.021  0.000  0.000  0.021
   16  0.021  0.000  0.000  0.021
   17  0.021  0.000  0.000  0.021
   18  0.021  0.000  0.000  0.021
   19  0.022  0.000  0.000  0.023
   20  0.027  0.000  0.000  0.028
   21  0.027  0.000  0.000  0.028
   22  0.023  0.000  0.000  0.024
   23  0.027  0.000  0.000  0.028
   24  0.023  0.000  0.000  0.024
   25  0.022  0.000  0.000  0.023
   26  0.022  0.000  0.000  0.023
   27  0.023  0.000  0.000  0.024
   28  0.006  0.001  0.000  0.007
   29  0.007  0.001  0.000  0.008
   30  0.007  0.001  0.000  0.008
   31  0.007  0.001  0.000  0.008
   32  0.007  0.001  0.000  0.008
   33  0.007  0.001  0.000  0.008
   34  0.007  0.001  0.000  0.008
   35  0.006  0.001  0.000  0.007
   36  0.018  0.003  0.001  0.022
   37  0.002  0.000  0.000  0.002
tot    0.528  0.015  0.008  0.551
 
band     3 # energy   -5.50147664 # occ.  2.00000000
 
ion      s      p      d    tot
    1  0.009  0.000  0.001  0.010
    2  0.010  0.000  0.001  0.011
    3  0.010  0.000  0.001  0.011
    4  0.010  0.000  0.001  0.011
    5  0.010  0.000  0.000  0.011
    6  0.010  0.000  0.001  0.011
    7  0.010  0.000  0.001  0.011
    8  0.010  0.000  0.001  0.011
    9  0.011  0.001  0.000  0.012
   10  0.012  0.001  0.011  0.024
   11  0.012  0.001  0.010  0.023
   12  0.012  0.001  0.011  0.024
   13  0.012  0.001  0.010  0.023
   14  0.012  0.001  0.010  0.023
   15  0.015  0.001  0.009  0.025
   16  0.012  0.001  0.011  0.024
   17  0.015  0.001  0.009  0.025
   18  0.015  0.001  0.009  0.025
   19  0.004  0.001  0.007  0.012
   20  0.011  0.002  0.004  0.017
   21  0.011  0.002  0.004  0.017
   22  0.005  0.001  0.008  0.014
   23  0.011  0.002  0.004  0.017
   24  0.005  0.001  0.008  0.014
   25  0.004  0.001  0.007  0.012
   26  0.004  0.001  0.007  0.012
   27  0.005  0.001  0.008  0.014
   28  0.007  0.000  0.002  0.009
   29  0.012  0.001  0.006  0.018
   30  0.012  0.001  0.006  0.018
   31  0.012  0.001  0.006  0.018
   32  0.012  0.001  0.006  0.018
   33  0.012  0.001  0.006  0.018
   34  0.012  0.001  0.006  0.018
   35  0.007  0.000  0.002  0.009
   36  0.044  0.003  0.011  0.058
   37  0.002  0.000  0.000  0.003
tot    0.399  0.033  0.197  0.629
 
band     4 # energy   -5.28935280 # occ.  2.00000000
 
ion      s      p      d    tot
    1  0.000  0.000  0.003  0.003
    2  0.001  0.000  0.002  0.002
    3  0.001  0.000  0.002  0.002
    4  0.001  0.000  0.002  0.002
    5  0.000  0.000  0.001  0.002
    6  0.001  0.000  0.002  0.002
    7  0.001  0.000  0.002  0.002
    8  0.001  0.000  0.002  0.002
    9  0.001  0.000  0.001  0.002
   10  0.001  0.000  0.015  0.016
   11  0.001  0.000  0.010  0.011
   12  0.001  0.000  0.015  0.016
   13  0.001  0.000  0.010  0.011
   14  0.001  0.000  0.010  0.011
   15  0.000  0.000  0.010  0.010
   16  0.001  0.000  0.015  0.016
   17  0.000  0.000  0.010  0.010
   18  0.000  0.000  0.010  0.010
   19  0.007  0.000  0.026  0.033
   20  0.003  0.000  0.054  0.058
   21  0.003  0.000  0.054  0.058
   22  0.003  0.000  0.021  0.025
   23  0.003  0.000  0.054  0.058
   24  0.003  0.000  0.021  0.025
   25  0.007  0.000  0.026  0.033
   26  0.007  0.000  0.026  0.033
   27  0.003  0.000  0.021  0.025
   28  0.002  0.000  0.013  0.015
   29  0.008  0.000  0.024  0.032
   30  0.008  0.000  0.024  0.032
   31  0.008  0.000  0.024  0.032
   32  0.008  0.000  0.024  0.032
   33  0.008  0.000  0.024  0.032
   34  0.008  0.000  0.024  0.032
   35  0.004  0.000  0.012  0.016
   36  0.026  0.000  0.089  0.115
   37  0.001  0.007  0.000  0.008
tot    0.129  0.011  0.681  0.821
 
band     5 # energy   -5.14399418 # occ.  2.00000000
 
ion      s      p      d    tot
    1  0.004  0.001  0.002  0.007
    2  0.000  0.000  0.003  0.003
    3  0.000  0.000  0.003  0.003
    4  0.000  0.000  0.003  0.003
    5  0.000  0.000  0.000  0.000
    6  0.000  0.000  0.003  0.003
    7  0.000  0.000  0.003  0.003
    8  0.000  0.000  0.003  0.003
    9  0.001  0.000  0.000  0.002
   10  0.005  0.000  0.022  0.026
   11  0.000  0.000  0.013  0.013
   12  0.005  0.000  0.022  0.026
   13  0.000  0.000  0.013  0.013
   14  0.000  0.000  0.013  0.013
   15  0.003  0.000  0.006  0.009
   16  0.005  0.000  0.022  0.026
   17  0.003  0.000  0.006  0.009
   18  0.003  0.000  0.006  0.010
   19  0.002  0.001  0.043  0.045
   20  0.009  0.001  0.086  0.096
   21  0.009  0.001  0.086  0.096
   22  0.013  0.001  0.002  0.016
   23  0.009  0.001  0.086  0.096
   24  0.013  0.001  0.002  0.016
   25  0.002  0.001  0.043  0.045
   26  0.002  0.001  0.043  0.045
   27  0.013  0.001  0.002  0.016
   28  0.003  0.000  0.002  0.005
   29  0.001  0.000  0.006  0.007
   30  0.001  0.000  0.006  0.007
   31  0.001  0.000  0.006  0.007
   32  0.001  0.000  0.006  0.007
   33  0.001  0.000  0.006  0.007
   34  0.001  0.000  0.006  0.007
   35  0.007  0.001  0.000  0.008
   36  0.023  0.007  0.046  0.076
   37  0.012  0.021  0.000  0.033
tot    0.151  0.042  0.614  0.806
 
band     6 # energy   -5.09549629 # occ.  2.00000000
 
ion      s      p      d    tot
    1  0.000  0.000  0.007  0.007
    2  0.000  0.000  0.002  0.002
    3  0.000  0.000  0.002  0.002
    4  0.000  0.000  0.002  0.002
    5  0.000  0.000  0.003  0.003
    6  0.001  0.000  0.002  0.003
    7  0.000  0.000  0.002  0.002
    8  0.001  0.000  0.002  0.003
    9  0.000  0.000  0.001  0.001
   10  0.011  0.001  0.012  0.024
   11  0.001  0.001  0.024  0.027
   12  0.003  0.001  0.017  0.020
   13  0.001  0.001  0.024  0.026
   14  0.005  0.000  0.012  0.017
   15  0.000  0.000  0.010  0.010
   16  0.003  0.001  0.017  0.020
   17  0.000  0.000  0.010  0.010
   18  0.001  0.000  0.010  0.011
   19  0.003  0.001  0.013  0.017
   20  0.040  0.000  0.015  0.055
   21  0.010  0.000  0.080  0.091
   22  0.001  0.001  0.047  0.049
   23  0.010  0.000  0.081  0.091
   24  0.004  0.001  0.015  0.019
   25  0.012  0.000  0.033  0.045
   26  0.003  0.001  0.013  0.017
   27  0.001  0.001  0.048  0.049
   28  0.000  0.000  0.002  0.003
   29  0.001  0.001  0.011  0.013
   30  0.001  0.000  0.006  0.007
   31  0.001  0.001  0.011  0.013
   32  0.000  0.000  0.011  0.011
   33  0.001  0.000  0.006  0.007
   34  0.000  0.000  0.011  0.011
   35  0.000  0.000  0.003  0.003
   36  0.000  0.001  0.100  0.101
   37  0.000  0.012  0.000  0.012
tot    0.113  0.029  0.662  0.804
 
band     7 # energy   -5.09547920 # occ.  2.00000000
 
ion      s      p      d    tot
    1  0.000  0.000  0.007  0.007
    2  0.001  0.000  0.002  0.003
    3  0.001  0.000  0.002  0.002
    4  0.001  0.000  0.002  0.003
    5  0.000  0.000  0.003  0.003
    6  0.000  0.000  0.002  0.002
    7  0.000  0.000  0.002  0.002
    8  0.000  0.000  0.002  0.002
    9  0.000  0.000  0.001  0.001
   10  0.000  0.000  0.019  0.019
   11  0.003  0.001  0.016  0.020
   12  0.008  0.001  0.014  0.023
   13  0.003  0.001  0.016  0.020
   14  0.000  0.001  0.028  0.030
   15  0.000  0.000  0.010  0.010
   16  0.008  0.001  0.014  0.023
   17  0.000  0.000  0.010  0.010
   18  0.000  0.000  0.010  0.010
   19  0.009  0.001  0.027  0.036
   20  0.000  0.001  0.103  0.103
   21  0.029  0.000  0.038  0.067
   22  0.003  0.001  0.026  0.029
   23  0.030  0.000  0.036  0.066
   24  0.000  0.001  0.058  0.059
   25  0.000  0.002  0.006  0.008
   26  0.009  0.001  0.026  0.035
   27  0.003  0.001  0.025  0.029
   28  0.000  0.000  0.002  0.003
   29  0.000  0.000  0.008  0.008
   30  0.001  0.001  0.012  0.014
   31  0.000  0.000  0.008  0.008
   32  0.001  0.001  0.008  0.010
   33  0.001  0.001  0.012  0.014
   34  0.001  0.001  0.008  0.010
   35  0.000  0.000  0.003  0.003
   36  0.000  0.001  0.100  0.101
   37  0.000  0.012  0.000  0.012
tot    0.113  0.029  0.662  0.804
 
band     8 # energy   -5.06672626 # occ.  2.00000000
 
ion      s      p      d    tot
    1  0.019  0.000  0.020  0.039
    2  0.016  0.000  0.029  0.045
    3  0.016  0.000  0.029  0.045
    4  0.016  0.000  0.029  0.045
    5  0.018  0.000  0.036  0.054
    6  0.016  0.000  0.029  0.045
    7  0.016  0.000  0.029  0.045
    8  0.016  0.000  0.029  0.045
    9  0.011  0.000  0.033  0.044
   10  0.000  0.001  0.016  0.017
   11  0.001  0.000  0.029  0.030
   12  0.000  0.001  0.016  0.017
   13  0.001  0.000  0.029  0.030
   14  0.001  0.000  0.029  0.030
   15  0.003  0.001  0.021  0.025
   16  0.000  0.001  0.016  0.017
   17  0.003  0.001  0.021  0.025
   18  0.003  0.001  0.021  0.025
   19  0.004  0.000  0.001  0.005
   20  0.000  0.000  0.012  0.012
   21  0.000  0.000  0.012  0.012
   22  0.000  0.000  0.008  0.008
   23  0.000  0.000  0.012  0.012
   24  0.000  0.000  0.008  0.008
   25  0.004  0.000  0.001  0.005
   26  0.004  0.000  0.001  0.005
   27  0.000  0.000  0.008  0.008
   28  0.001  0.000  0.001  0.002
   29  0.000  0.000  0.008  0.008
   30  0.000  0.000  0.008  0.008
   31  0.000  0.000  0.008  0.008
   32  0.000  0.000  0.008  0.008
   33  0.000  0.000  0.008  0.008
   34  0.000  0.000  0.008  0.008
   35  0.000  0.000  0.000  0.000
   36  0.007  0.000  0.018  0.025
   37  0.000  0.001  0.000  0.002
tot    0.176  0.010  0.590  0.776
 
band     9 # energy   -5.03260471 # occ.  2.00000000
 
ion      s      p      d    tot
    1  0.000  0.000  0.001  0.001
    2  0.001  0.000  0.004  0.005
    3  0.000  0.000  0.002  0.003
    4  0.001  0.000  0.003  0.004
    5  0.000  0.000  0.005  0.005
    6  0.001  0.000  0.004  0.005
    7  0.000  0.000  0.002  0.002
    8  0.001  0.000  0.004  0.006
    9  0.000  0.000  0.007  0.008
   10  0.000  0.001  0.030  0.031
   11  0.009  0.001  0.028  0.038
   12  0.000  0.000  0.027  0.027
   13  0.013  0.001  0.013  0.027
   14  0.000  0.000  0.063  0.064
   15  0.012  0.001  0.024  0.036
   16  0.000  0.000  0.028  0.028
   17  0.016  0.001  0.024  0.041
   18  0.000  0.001  0.023  0.025
   19  0.008  0.000  0.039  0.047
   20  0.000  0.001  0.026  0.028
   21  0.002  0.000  0.036  0.038
   22  0.022  0.001  0.025  0.048
   23  0.001  0.001  0.033  0.035
   24  0.001  0.001  0.043  0.044
   25  0.000  0.000  0.087  0.087
   26  0.011  0.001  0.018  0.030
   27  0.015  0.001  0.031  0.047
   28  0.000  0.000  0.005  0.005
   29  0.000  0.000  0.003  0.004
   30  0.001  0.000  0.005  0.007
   31  0.001  0.000  0.004  0.005
   32  0.000  0.000  0.003  0.004
   33  0.001  0.000  0.005  0.007
   34  0.000  0.000  0.003  0.003
   35  0.000  0.000  0.008  0.008
   36  0.000  0.000  0.002  0.002
   37  0.000  0.000  0.000  0.000
tot    0.120  0.016  0.670  0.806
 
band    10 # energy   -5.03260389 # occ.  2.00000000
 
ion      s      p      d    tot
    1  0.000  0.000  0.001  0.001
    2  0.000  0.000  0.003  0.003
    3  0.001  0.000  0.004  0.006
    4  0.001  0.000  0.003  0.004
    5  0.000  0.000  0.005  0.005
    6  0.000  0.000  0.003  0.003
    7  0.001  0.000  0.004  0.006
    8  0.000  0.000  0.002  0.002
    9  0.000  0.000  0.007  0.008
   10  0.000  0.000  0.026  0.027
   11  0.006  0.000  0.042  0.048
   12  0.000  0.001  0.030  0.030
   13  0.002  0.000  0.057  0.059
   14  0.015  0.001  0.006  0.022
   15  0.007  0.001  0.024  0.032
   16  0.000  0.001  0.029  0.029
   17  0.003  0.001  0.023  0.027
   18  0.019  0.001  0.024  0.044
   19  0.005  0.000  0.057  0.062
   20  0.002  0.000  0.037  0.039
   21  0.000  0.001  0.028  0.029
   22  0.003  0.001  0.041  0.045
   23  0.001  0.001  0.031  0.032
   24  0.024  0.001  0.023  0.048
   25  0.013  0.001  0.009  0.023
   26  0.002  0.000  0.078  0.080
   27  0.010  0.001  0.035  0.046
   28  0.000  0.000  0.005  0.005
   29  0.001  0.000  0.004  0.006
   30  0.000  0.000  0.003  0.003
   31  0.001  0.000  0.004  0.005
   32  0.001  0.000  0.005  0.006
   33  0.000  0.000  0.002  0.003
   34  0.001  0.000  0.005  0.007
   35  0.000  0.000  0.008  0.008
   36  0.000  0.000  0.002  0.002
   37  0.000  0.000  0.000  0.000
tot    0.120  0.016  0.670  0.806
 
band    11 # energy   -5.02010287 # occ.  2.00000000
 
ion      s      p      d    tot
    1  0.002  0.000  0.000  0.002
    2  0.000  0.000  0.006  0.006
    3  0.000  0.000  0.006  0.006
    4  0.000  0.000  0.006  0.006
    5  0.002  0.001  0.006  0.009
    6  0.000  0.000  0.006  0.006
    7  0.000  0.000  0.006  0.006
    8  0.000  0.000  0.006  0.006
    9  0.004  0.000  0.000  0.004
   10  0.005  0.001  0.006  0.011
   11  0.009  0.000  0.026  0.035
   12  0.005  0.001  0.006  0.011
   13  0.009  0.000  0.026  0.035
   14  0.009  0.000  0.026  0.035
   15  0.000  0.000  0.034  0.035
   16  0.005  0.001  0.006  0.011
   17  0.000  0.000  0.034  0.035
   18  0.000  0.000  0.034  0.035
   19  0.014  0.001  0.022  0.036
   20  0.004  0.001  0.020  0.026
   21  0.004  0.001  0.020  0.026
   22  0.005  0.000  0.080  0.085
   23  0.004  0.001  0.020  0.026
   24  0.005  0.000  0.080  0.085
   25  0.014  0.001  0.022  0.036
   26  0.014  0.001  0.022  0.036
   27  0.005  0.000  0.080  0.085
   28  0.008  0.001  0.002  0.011
   29  0.001  0.000  0.005  0.006
   30  0.001  0.000  0.005  0.006
   31  0.001  0.000  0.005  0.006
   32  0.001  0.000  0.005  0.006
   33  0.001  0.000  0.005  0.006
   34  0.001  0.000  0.005  0.006
   35  0.001  0.001  0.018  0.019
   36  0.000  0.000  0.000  0.000
   37  0.000  0.000  0.000  0.000
tot    0.130  0.016  0.657  0.803
 
band    12 # energy   -5.00244751 # occ.  2.00000000
 
ion      s      p      d    tot
    1  0.000  0.000  0.002  0.002
    2  0.001  0.000  0.007  0.008
    3  0.001  0.000  0.007  0.008
    4  0.001  0.000  0.007  0.008
    5  0.002  0.001  0.002  0.004
    6  0.001  0.000  0.007  0.008
    7  0.001  0.000  0.007  0.008
    8  0.001  0.000  0.007  0.008
    9  0.001  0.000  0.015  0.016
   10  0.004  0.000  0.017  0.021
   11  0.006  0.001  0.030  0.037
   12  0.004  0.000  0.017  0.021
   13  0.006  0.001  0.030  0.037
   14  0.006  0.001  0.030  0.037
   15  0.003  0.000  0.078  0.082
   16  0.004  0.000  0.017  0.021
   17  0.003  0.000  0.078  0.082
   18  0.003  0.000  0.078  0.082
   19  0.000  0.001  0.005  0.005
   20  0.000  0.000  0.036  0.036
   21  0.000  0.000  0.035  0.036
   22  0.002  0.000  0.044  0.046
   23  0.000  0.000  0.035  0.036
   24  0.002  0.000  0.044  0.046
   25  0.000  0.001  0.005  0.005
   26  0.000  0.001  0.005  0.005
   27  0.002  0.000  0.044  0.046
   28  0.001  0.000  0.000  0.001
   29  0.001  0.000  0.010  0.011
   30  0.001  0.000  0.009  0.010
   31  0.001  0.000  0.010  0.011
   32  0.001  0.000  0.009  0.010
   33  0.001  0.000  0.009  0.010
   34  0.001  0.000  0.009  0.010
   35  0.004  0.000  0.010  0.014
   36  0.001  0.000  0.001  0.002
   37  0.000  0.000  0.000  0.001
tot    0.064  0.010  0.759  0.833
 
band    13 # energy   -4.99529812 # occ.  2.00000000
 
ion      s      p      d    tot
    1  0.000  0.001  0.010  0.011
    2  0.000  0.000  0.009  0.009
    3  0.002  0.001  0.008  0.011
    4  0.000  0.000  0.009  0.009
    5  0.000  0.000  0.009  0.010
    6  0.003  0.001  0.004  0.008
    7  0.002  0.001  0.007  0.010
    8  0.003  0.001  0.004  0.008
    9  0.000  0.000  0.006  0.006
   10  0.000  0.000  0.107  0.107
   11  0.007  0.000  0.034  0.041
   12  0.016  0.000  0.029  0.045
   13  0.007  0.000  0.033  0.041
   14  0.000  0.001  0.019  0.020
   15  0.002  0.000  0.033  0.035
   16  0.016  0.000  0.028  0.044
   17  0.002  0.000  0.033  0.035
   18  0.000  0.000  0.051  0.051
   19  0.002  0.000  0.023  0.026
   20  0.000  0.000  0.037  0.037
   21  0.000  0.000  0.028  0.028
   22  0.004  0.000  0.016  0.021
   23  0.000  0.000  0.028  0.028
   24  0.000  0.000  0.026  0.026
   25  0.000  0.000  0.028  0.028
   26  0.002  0.000  0.023  0.026
   27  0.004  0.000  0.016  0.020
   28  0.000  0.000  0.010  0.010
   29  0.004  0.001  0.005  0.010
   30  0.001  0.000  0.009  0.011
   31  0.004  0.001  0.005  0.010
   32  0.001  0.000  0.007  0.008
   33  0.001  0.000  0.009  0.011
   34  0.001  0.000  0.007  0.008
   35  0.000  0.000  0.003  0.003
   36  0.000  0.000  0.018  0.018
   37  0.000  0.000  0.000  0.000
tot    0.086  0.011  0.731  0.827
 
band    14 # energy   -4.99527213 # occ.  2.00000000
 
ion      s      p      d    tot
    1  0.000  0.001  0.010  0.011
    2  0.003  0.001  0.005  0.009
    3  0.001  0.000  0.006  0.008
    4  0.003  0.001  0.005  0.009
    5  0.000  0.000  0.009  0.010
    6  0.001  0.000  0.009  0.010
    7  0.001  0.000  0.006  0.008
    8  0.001  0.000  0.009  0.010
    9  0.000  0.000  0.006  0.006
   10  0.021  0.000  0.002  0.024
   11  0.002  0.001  0.024  0.027
   12  0.005  0.000  0.080  0.086
   13  0.002  0.001  0.024  0.028
   14  0.010  0.000  0.038  0.047
   15  0.001  0.000  0.044  0.045
   16  0.005  0.000  0.081  0.086
   17  0.001  0.000  0.044  0.045
   18  0.003  0.000  0.027  0.030
   19  0.001  0.000  0.026  0.027
   20  0.000  0.001  0.025  0.025
   21  0.000  0.000  0.034  0.034
   22  0.001  0.000  0.023  0.024
   23  0.000  0.000  0.034  0.035
   24  0.005  0.000  0.013  0.019
   25  0.003  0.000  0.022  0.025
   26  0.001  0.000  0.026  0.027
   27  0.001  0.000  0.023  0.024
   28  0.000  0.000  0.010  0.010
   29  0.000  0.000  0.009  0.009
   30  0.003  0.000  0.005  0.008
   31  0.000  0.000  0.009  0.009
   32  0.003  0.001  0.007  0.011
   33  0.003  0.000  0.005  0.008
   34  0.003  0.001  0.007  0.011
   35  0.000  0.000  0.003  0.003
   36  0.000  0.000  0.018  0.018
   37  0.000  0.000  0.000  0.000
tot    0.086  0.011  0.731  0.827
 
band    15 # energy   -4.99019684 # occ.  2.00000000
 
ion      s      p      d    tot
    1  0.000  0.000  0.007  0.007
    2  0.000  0.000  0.009  0.009
    3  0.001  0.000  0.006  0.008
    4  0.000  0.000  0.009  0.009
    5  0.000  0.000  0.002  0.002
    6  0.001  0.000  0.004  0.006
    7  0.001  0.000  0.006  0.008
    8  0.001  0.000  0.004  0.006
    9  0.000  0.000  0.013  0.013
   10  0.003  0.000  0.047  0.050
   11  0.001  0.000  0.058  0.059
   12  0.001  0.000  0.018  0.019
   13  0.001  0.000  0.056  0.057
   14  0.003  0.000  0.015  0.019
   15  0.003  0.000  0.079  0.082
   16  0.001  0.000  0.016  0.017
   17  0.003  0.000  0.076  0.079
   18  0.012  0.000  0.020  0.033
   19  0.001  0.000  0.051  0.051
   20  0.000  0.000  0.033  0.034
   21  0.000  0.000  0.016  0.016
   22  0.000  0.000  0.038  0.038
   23  0.000  0.000  0.014  0.015
   24  0.001  0.000  0.040  0.042
   25  0.003  0.000  0.009  0.012
   26  0.001  0.000  0.048  0.049
   27  0.000  0.000  0.038  0.038
   28  0.000  0.000  0.009  0.009
   29  0.002  0.000  0.007  0.009
   30  0.001  0.000  0.004  0.006
   31  0.002  0.000  0.007  0.009
   32  0.000  0.000  0.008  0.008
   33  0.001  0.000  0.004  0.006
   34  0.000  0.000  0.008  0.008
   35  0.000  0.000  0.016  0.016
   36  0.000  0.000  0.004  0.004
   37  0.000  0.000  0.000  0.000
tot    0.045  0.007  0.799  0.850
 
band    16 # energy   -4.99016628 # occ.  2.00000000
 
ion      s      p      d    tot
    1  0.000  0.000  0.007  0.007
    2  0.002  0.000  0.004  0.006
    3  0.001  0.000  0.006  0.007
    4  0.001  0.000  0.004  0.006
    5  0.000  0.000  0.002  0.002
    6  0.000  0.000  0.009  0.009
    7  0.001  0.000  0.007  0.007
    8  0.000  0.000  0.009  0.009
    9  0.000  0.000  0.013  0.013
   10  0.000  0.000  0.006  0.007
   11  0.003  0.000  0.028  0.031
   12  0.002  0.000  0.036  0.039
   13  0.002  0.000  0.030  0.033
   14  0.000  0.000  0.071  0.071
   15  0.009  0.000  0.038  0.047
   16  0.002  0.000  0.038  0.040
   17  0.009  0.000  0.041  0.050
   18  0.000  0.000  0.096  0.096
   19  0.002  0.000  0.021  0.023
   20  0.000  0.000  0.009  0.009
   21  0.000  0.000  0.027  0.027
   22  0.001  0.000  0.040  0.041
   23  0.000  0.000  0.028  0.028
   24  0.000  0.000  0.037  0.037
   25  0.000  0.000  0.063  0.063
   26  0.002  0.000  0.023  0.026
   27  0.001  0.000  0.040  0.041
   28  0.000  0.000  0.009  0.009
   29  0.000  0.000  0.006  0.006
   30  0.001  0.000  0.008  0.009
   31  0.000  0.000  0.006  0.006
   32  0.002  0.000  0.005  0.007
   33  0.001  0.000  0.008  0.010
   34  0.002  0.000  0.005  0.007
   35  0.000  0.000  0.016  0.016
   36  0.000  0.000  0.004  0.004
   37  0.000  0.000  0.000  0.000
tot    0.045  0.007  0.799  0.850
 
band    17 # energy   -4.98714808 # occ.  2.00000000
 
ion      s      p      d    tot
    1  0.001  0.000  0.024  0.026
    2  0.001  0.000  0.009  0.010
    3  0.001  0.000  0.009  0.010
    4  0.001  0.000  0.009  0.010
    5  0.000  0.000  0.000  0.000
    6  0.001  0.000  0.009  0.010
    7  0.001  0.000  0.009  0.010
    8  0.001  0.000  0.009  0.010
    9  0.006  0.001  0.000  0.007
   10  0.004  0.000  0.083  0.087
   11  0.003  0.000  0.031  0.035
   12  0.004  0.000  0.082  0.086
   13  0.003  0.000  0.031  0.035
   14  0.003  0.000  0.032  0.036
   15  0.006  0.001  0.011  0.018
   16  0.004  0.000  0.082  0.086
   17  0.006  0.001  0.011  0.018
   18  0.006  0.001  0.011  0.018
   19  0.000  0.000  0.032  0.032
   20  0.000  0.000  0.018  0.018
   21  0.000  0.000  0.018  0.019
   22  0.001  0.000  0.022  0.023
   23  0.000  0.000  0.018  0.019
   24  0.001  0.000  0.022  0.023
   25  0.000  0.000  0.032  0.032
   26  0.000  0.000  0.032  0.032
   27  0.001  0.000  0.022  0.023
   28  0.007  0.000  0.010  0.018
   29  0.001  0.000  0.011  0.013
   30  0.001  0.000  0.011  0.013
   31  0.001  0.000  0.011  0.013
   32  0.001  0.000  0.012  0.013
   33  0.001  0.000  0.011  0.013
   34  0.001  0.000  0.012  0.013
   35  0.000  0.000  0.007  0.008
   36  0.000  0.000  0.001  0.001
   37  0.000  0.000  0.000  0.001
tot    0.072  0.008  0.756  0.836
 
band    18 # energy   -4.88898325 # occ.  2.00000000
 
ion      s      p      d    tot
    1  0.000  0.000  0.004  0.004
    2  0.001  0.000  0.006  0.007
    3  0.001  0.000  0.005  0.005
    4  0.001  0.000  0.006  0.007
    5  0.000  0.000  0.011  0.011
    6  0.003  0.001  0.004  0.007
    7  0.001  0.000  0.005  0.005
    8  0.003  0.001  0.004  0.007
    9  0.000  0.000  0.007  0.008
   10  0.000  0.000  0.018  0.018
   11  0.001  0.000  0.032  0.033
   12  0.000  0.000  0.005  0.005
   13  0.001  0.000  0.031  0.032
   14  0.003  0.000  0.041  0.044
   15  0.000  0.000  0.025  0.026
   16  0.000  0.000  0.006  0.006
   17  0.000  0.000  0.025  0.026
   18  0.002  0.000  0.022  0.024
   19  0.000  0.000  0.011  0.011
   20  0.000  0.000  0.077  0.077
   21  0.000  0.000  0.092  0.092
   22  0.000  0.000  0.058  0.058
   23  0.000  0.000  0.091  0.091
   24  0.000  0.000  0.025  0.025
   25  0.001  0.001  0.030  0.032
   26  0.000  0.000  0.010  0.010
   27  0.000  0.000  0.056  0.056
   28  0.000  0.000  0.000  0.000
   29  0.000  0.000  0.009  0.009
   30  0.001  0.001  0.011  0.013
   31  0.000  0.000  0.009  0.009
   32  0.001  0.001  0.009  0.011
   33  0.001  0.001  0.011  0.013
   34  0.001  0.001  0.009  0.010
   35  0.000  0.000  0.001  0.001
   36  0.000  0.000  0.070  0.070
   37  0.000  0.010  0.000  0.010
tot    0.020  0.020  0.834  0.874
 
band    19 # energy   -4.88897743 # occ.  2.00000000
 
ion      s      p      d    tot
    1  0.000  0.000  0.004  0.004
    2  0.002  0.000  0.004  0.006
    3  0.002  0.001  0.005  0.007
    4  0.002  0.000  0.004  0.006
    5  0.000  0.000  0.011  0.011
    6  0.000  0.000  0.006  0.006
    7  0.002  0.001  0.005  0.007
    8  0.000  0.000  0.006  0.006
    9  0.000  0.000  0.007  0.008
   10  0.000  0.000  0.001  0.001
   11  0.002  0.000  0.037  0.040
   12  0.000  0.000  0.014  0.014
   13  0.002  0.000  0.038  0.040
   14  0.000  0.000  0.028  0.028
   15  0.001  0.000  0.023  0.025
   16  0.000  0.000  0.013  0.013
   17  0.001  0.000  0.023  0.024
   18  0.000  0.000  0.026  0.026
   19  0.001  0.000  0.023  0.024
   20  0.000  0.000  0.096  0.096
   21  0.000  0.000  0.081  0.081
   22  0.000  0.000  0.035  0.035
   23  0.000  0.000  0.082  0.082
   24  0.000  0.000  0.068  0.068
   25  0.000  0.000  0.004  0.004
   26  0.001  0.000  0.024  0.025
   27  0.000  0.000  0.037  0.037
   28  0.000  0.000  0.000  0.000
   29  0.001  0.001  0.011  0.013
   30  0.000  0.000  0.008  0.009
   31  0.001  0.001  0.010  0.012
   32  0.001  0.000  0.010  0.011
   33  0.000  0.000  0.008  0.009
   34  0.001  0.000  0.010  0.011
   35  0.000  0.000  0.001  0.001
   36  0.000  0.000  0.070  0.071
   37  0.000  0.010  0.000  0.010
tot    0.020  0.020  0.834  0.874
 
band    20 # energy   -4.86114744 # occ.  2.00000000
 
ion      s      p      d    tot
    1  0.000  0.000  0.000  0.001
    2  0.000  0.000  0.007  0.007
    3  0.000  0.000  0.007  0.007
    4  0.000  0.000  0.007  0.007
    5  0.000  0.000  0.006  0.006
    6  0.000  0.000  0.007  0.007
    7  0.000  0.000  0.007  0.007
    8  0.000  0.000  0.007  0.007
    9  0.000  0.000  0.011  0.011
   10  0.000  0.000  0.006  0.006
   11  0.001  0.000  0.048  0.049
   12  0.000  0.000  0.006  0.006
   13  0.001  0.000  0.048  0.049
   14  0.001  0.000  0.048  0.049
   15  0.002  0.001  0.048  0.050
   16  0.000  0.000  0.006  0.006
   17  0.002  0.001  0.048  0.050
   18  0.002  0.001  0.048  0.050
   19  0.001  0.000  0.022  0.023
   20  0.002  0.001  0.050  0.053
   21  0.002  0.001  0.050  0.053
   22  0.004  0.001  0.037  0.041
   23  0.002  0.001  0.050  0.053
   24  0.004  0.001  0.037  0.042
   25  0.001  0.000  0.022  0.023
   26  0.001  0.000  0.022  0.023
   27  0.004  0.001  0.037  0.041
   28  0.003  0.000  0.002  0.006
   29  0.000  0.001  0.015  0.015
   30  0.000  0.001  0.015  0.015
   31  0.000  0.001  0.015  0.015
   32  0.000  0.001  0.015  0.015
   33  0.000  0.001  0.015  0.015
   34  0.000  0.001  0.015  0.015
   35  0.001  0.000  0.005  0.007
   36  0.003  0.001  0.013  0.017
   37  0.003  0.006  0.000  0.008
tot    0.040  0.021  0.797  0.858
 
band    21 # energy   -4.82560606 # occ.  2.00000000
 
ion      s      p      d    tot
    1  0.000  0.000  0.004  0.004
    2  0.000  0.001  0.012  0.012
    3  0.000  0.001  0.012  0.012
    4  0.000  0.001  0.012  0.012
    5  0.004  0.001  0.000  0.005
    6  0.000  0.001  0.012  0.012
    7  0.000  0.001  0.012  0.012
    8  0.000  0.001  0.012  0.012
    9  0.004  0.001  0.000  0.005
   10  0.003  0.000  0.032  0.035
   11  0.000  0.000  0.043  0.044
   12  0.003  0.000  0.032  0.035
   13  0.000  0.000  0.043  0.044
   14  0.000  0.000  0.043  0.043
   15  0.003  0.000  0.012  0.014
   16  0.003  0.000  0.032  0.035
   17  0.003  0.000  0.012  0.014
   18  0.003  0.000  0.012  0.015
   19  0.001  0.000  0.055  0.056
   20  0.001  0.000  0.018  0.020
   21  0.001  0.000  0.018  0.019
   22  0.000  0.001  0.037  0.038
   23  0.001  0.000  0.018  0.019
   24  0.000  0.001  0.037  0.038
   25  0.001  0.000  0.055  0.056
   26  0.001  0.000  0.055  0.056
   27  0.000  0.001  0.037  0.038
   28  0.000  0.000  0.021  0.022
   29  0.001  0.001  0.014  0.016
   30  0.001  0.001  0.014  0.016
   31  0.001  0.001  0.014  0.016
   32  0.001  0.001  0.014  0.016
   33  0.001  0.001  0.014  0.016
   34  0.001  0.001  0.014  0.016
   35  0.011  0.001  0.000  0.013
   36  0.002  0.000  0.004  0.006