 vasp.6.2.0 18Jan21 (build Jun 12 2021 23:27:24) complex                        
  
 executed on             LinuxIFC date 2022.05.30  16:35:14
 running on   28 total cores
 distrk:  each k-point on   28 cores,    1 groups
 distr:  one band on NCORE=   1 cores,   28 groups


--------------------------------------------------------------------------------------------------------


 INCAR:
   ISMEAR = -5
   SIGMA = 0.1
   ISPIN = 1
   EDIFF = 1.d-5
   EDIFFG = -0.01
   NSW = 0
   NELM = 150
   ENCUT = 500
   ISIF = 2
   IBRION = 2
   LREAL = Auto
   ALGO = Fast
   ICHARG = 11
   LORBIT = 10
   LCHARG = .F.
   LWAVE = .F.

 POTCAR:    PAW_PBE Au 04Oct2007                  
 POTCAR:    PAW_PBE Re 17Jan2003                  
 POTCAR:    PAW_PBE C 08Apr2002                   
 -----------------------------------------------------------------------------
|                                                                             |
|           W    W    AA    RRRRR   N    N  II  N    N   GGGG   !!!           |
|           W    W   A  A   R    R  NN   N  II  NN   N  G    G  !!!           |
|           W    W  A    A  R    R  N N  N  II  N N  N  G       !!!           |
|           W WW W  AAAAAA  RRRRR   N  N N  II  N  N N  G  GGG   !            |
|           WW  WW  A    A  R   R   N   NN  II  N   NN  G    G                |
|           W    W  A    A  R    R  N    N  II  N    N   GGGG   !!!           |
|                                                                             |
|     For optimal performance we recommend to set                             |
|       NCORE = 2 up to number-of-cores-per-socket                            |
|     NCORE specifies how many cores store one orbital (NPAR=cpu/NCORE).      |
|     This setting can greatly improve the performance of VASP for DFT.       |
|     The default, NCORE=1 might be grossly inefficient on modern             |
|     multi-core architectures or massively parallel machines. Do your        |
|     own testing! More info at https://www.vasp.at/wiki/index.php/NCORE      |
|     Unfortunately you need to use the default for GW and RPA                |
|     calculations (for HF NCORE is supported but not extensively tested      |
|     yet).                                                                   |
|                                                                             |
 -----------------------------------------------------------------------------

 POTCAR:    PAW_PBE Au 04Oct2007                  
   VRHFIN =Au: s1d10                                                                                
   LEXCH  = PE                                                                                      
   EATOM  =   926.0867 eV,   68.0654 Ry                                                             
                                                                                                    
   TITEL  = PAW_PBE Au 04Oct2007                                                                    
   LULTRA =        F    use ultrasoft PP ?                                                          
   IUNSCR =        1    unscreen: 0-lin 1-nonlin 2-no                                               
   RPACOR =    2.330    partial core radius                                                         
   POMASS =  196.966; ZVAL   =   11.000    mass and valenz                                          
   RCORE  =    2.500    outmost cutoff radius                                                       
   RWIGS  =    2.840; RWIGS  =    1.503    wigner-seitz radius (au A)                               
   ENMAX  =  229.943; ENMIN  =  172.457 eV                                                          
   ICORE  =        3    local potential                                                             
   LCOR   =        T    correct aug charges                                                         
   LPAW   =        T    paw PP                                                                      
   EAUG   =  356.670                                                                                
   DEXC   =    0.000                                                                                
   RMAX   =    2.562    core radius for proj-oper                                                   
   RAUG   =    1.300    factor for augmentation sphere                                              
   RDEP   =    2.598    radius for radial grids                                                     
   RDEPT  =    2.193    core radius for aug-charge                                                  
                                                                                                    
   Atomic configuration                                                                             
   16 entries                                                                                       
     n  l   j            E        occ.                                                              
     1  0  0.50    -80748.5001   2.0000                                                             
     2  0  0.50    -14244.7466   2.0000                                                             
     2  1  1.50    -12310.9591   6.0000                                                             
     3  0  0.50     -3362.1768   2.0000                                                             
     3  1  1.50     -2801.5463   6.0000                                                             
     3  2  2.50     -2203.8206  10.0000                                                             
     4  0  0.50      -729.8168   2.0000                                                             
     4  1  1.50      -546.0527   6.0000                                                             
     4  2  2.50      -325.7302  10.0000                                                             
     4  3  3.50       -81.1472  14.0000                                                             
     5  0  0.50      -108.3201   2.0000                                                             
     5  1  1.50       -59.7479   6.0000                                                             
     5  2  2.50        -6.8783  10.0000                                                             
     6  0  0.50        -5.7602   1.0000                                                             
     6  1  1.50        -6.8029   0.0000                                                             
     5  3  2.50        -1.3606   0.0000                                                             
   Description                                                                                      
     l       E           TYP  RCUT    TYP  RCUT                                                     
     2     -6.8782861     23  2.500                                                                 
     2     -8.2388687     23  2.500                                                                 
     0     -5.7601759     23  2.500                                                                 
     0     -0.8493231     23  2.500                                                                 
     1     -2.7211652     23  2.500                                                                 
     1     27.2116520     23  2.500                                                                 
     3     -1.3605826     23  2.500                                                                 
  local pseudopotential read in
  partial core-charges read in
  partial kinetic energy density read in
  atomic valenz-charges read in
  non local Contribution for L=           2  read in
    real space projection operators read in
  non local Contribution for L=           2  read in
    real space projection operators read in
  non local Contribution for L=           0  read in
    real space projection operators read in
  non local Contribution for L=           0  read in
    real space projection operators read in
  non local Contribution for L=           1  read in
    real space projection operators read in
  non local Contribution for L=           1  read in
    real space projection operators read in
    PAW grid and wavefunctions read in
 
   number of l-projection  operators is LMAX  =           6
   number of lm-projection operators is LMMAX =          18
 
 POTCAR:    PAW_PBE Re 17Jan2003                  
   VRHFIN =Re: 5p6s5d                                                                               
   LEXCH  = PE                                                                                      
   EATOM  =   299.6589 eV,   22.0243 Ry                                                             
                                                                                                    
   TITEL  = PAW_PBE Re 17Jan2003                                                                    
   LULTRA =        F    use ultrasoft PP ?                                                          
   IUNSCR =        1    unscreen: 0-lin 1-nonlin 2-no                                               
   RPACOR =    2.250    partial core radius                                                         
   POMASS =  186.207; ZVAL   =    7.000    mass and valenz                                          
   RCORE  =    2.700    outmost cutoff radius                                                       
   RWIGS  =    2.710; RWIGS  =    1.434    wigner-seitz radius (au A)                               
   ENMAX  =  226.216; ENMIN  =  169.662 eV                                                          
   RCLOC  =    2.105    cutoff for local pot                                                        
   LCOR   =        T    correct aug charges                                                         
   LPAW   =        T    paw PP                                                                      
   EAUG   =  370.280                                                                                
   DEXC   =    0.000                                                                                
   RMAX   =    2.768    core radius for proj-oper                                                   
   RAUG   =    1.300    factor for augmentation sphere                                              
   RDEP   =    2.719    radius for radial grids                                                     
   RDEPT  =    2.204    core radius for aug-charge                                                  
                                                                                                    
   Atomic configuration                                                                             
   16 entries                                                                                       
     n  l   j            E        occ.                                                              
     1  0  0.50    -71633.0043   2.0000                                                             
     2  0  0.50    -12416.1215   2.0000                                                             
     2  1  1.50    -10832.4223   6.0000                                                             
     3  0  0.50     -2872.9330   2.0000                                                             
     3  1  1.50     -2406.1720   6.0000                                                             
     3  2  2.50     -1877.8916  10.0000                                                             
     4  0  0.50      -597.8463   2.0000                                                             
     4  1  1.50      -444.8000   6.0000                                                             
     4  2  2.50      -252.9938  10.0000                                                             
     4  3  3.50       -40.1243  14.0000                                                             
     5  0  0.50       -83.0609   2.0000                                                             
     5  1  1.50       -44.9781   6.0000                                                             
     5  2  2.50        -4.0055   6.0000                                                             
     6  0  0.50        -5.2962   1.0000                                                             
     6  1  1.50        -2.7212   0.0000                                                             
     5  3  2.50        -1.3606   0.0000                                                             
   Description                                                                                      
     l       E           TYP  RCUT    TYP  RCUT                                                     
     2     -4.0054887     23  2.500                                                                 
     2     -2.6236470     23  2.500                                                                 
     0     -5.2961782     23  2.600                                                                 
     0      4.1641227     23  2.600                                                                 
     1     -2.7211652     23  2.700                                                                 
     1     27.2116520     23  2.700                                                                 
  local pseudopotential read in
  partial core-charges read in
  partial kinetic energy density read in
  kinetic energy density of atom read in
  atomic valenz-charges read in
  non local Contribution for L=           2  read in
    real space projection operators read in
  non local Contribution for L=           2  read in
    real space projection operators read in
  non local Contribution for L=           0  read in
    real space projection operators read in
  non local Contribution for L=           0  read in
    real space projection operators read in
  non local Contribution for L=           1  read in
    real space projection operators read in
  non local Contribution for L=           1  read in
    real space projection operators read in
    PAW grid and wavefunctions read in
 
   number of l-projection  operators is LMAX  =           6
   number of lm-projection operators is LMMAX =          18
 
 POTCAR:    PAW_PBE C 08Apr2002                   
   VRHFIN =C: s2p2                                                                                  
   LEXCH  = PE                                                                                      
   EATOM  =   147.1560 eV,   10.8157 Ry                                                             
                                                                                                    
   TITEL  = PAW_PBE C 08Apr2002                                                                     
   LULTRA =        F    use ultrasoft PP ?                                                          
   IUNSCR =        1    unscreen: 0-lin 1-nonlin 2-no                                               
   RPACOR =    1.200    partial core radius                                                         
   POMASS =   12.011; ZVAL   =    4.000    mass and valenz                                          
   RCORE  =    1.500    outmost cutoff radius                                                       
   RWIGS  =    1.630; RWIGS  =    0.863    wigner-seitz radius (au A)                               
   ENMAX  =  400.000; ENMIN  =  300.000 eV                                                          
   ICORE  =        2    local potential                                                             
   LCOR   =        T    correct aug charges                                                         
   LPAW   =        T    paw PP                                                                      
   EAUG   =  644.873                                                                                
   DEXC   =    0.000                                                                                
   RMAX   =    1.529    core radius for proj-oper                                                   
   RAUG   =    1.300    factor for augmentation sphere                                              
   RDEP   =    1.501    radius for radial grids                                                     
   RDEPT  =    1.300    core radius for aug-charge                                                  
                                                                                                    
   Atomic configuration                                                                             
    4 entries                                                                                       
     n  l   j            E        occ.                                                              
     1  0  0.50      -273.3789   2.0000                                                             
     2  0  0.50       -13.7508   2.0000                                                             
     2  1  0.50        -5.2854   2.0000                                                             
     3  2  1.50        -5.4423   0.0000                                                             
   Description                                                                                      
     l       E           TYP  RCUT    TYP  RCUT                                                     
     0    -13.7508458     23  1.200                                                                 
     0     -8.2022199     23  1.200                                                                 
     1     -5.2854383     23  1.500                                                                 
     1     34.0145650     23  1.500                                                                 
     2     -5.4423304      7  1.500                                                                 
  local pseudopotential read in
  partial core-charges read in
  partial kinetic energy density read in
  atomic valenz-charges read in
  non local Contribution for L=           0  read in
    real space projection operators read in
  non local Contribution for L=           0  read in
    real space projection operators read in
  non local Contribution for L=           1  read in
    real space projection operators read in
  non local Contribution for L=           1  read in
    real space projection operators read in
    PAW grid and wavefunctions read in
 
   number of l-projection  operators is LMAX  =           4
   number of lm-projection operators is LMMAX =           8
 
 Optimization of the real space projectors (new method)

 maximal supplied QI-value         = 15.12
 optimisation between [QCUT,QGAM] = [ 11.34, 22.83] = [ 36.00,145.93] Ry 
 Optimized for a Real-space Cutoff    1.39 Angstroem

   l    n(q)    QCUT    max X(q) W(low)/X(q) W(high)/X(q)  e(spline) 
   2      9    11.338    60.898    0.39E-03    0.42E-03    0.21E-06
   2      9    11.338    58.894    0.40E-03    0.42E-03    0.22E-06
   0      9    11.338   109.617    0.13E-03    0.20E-04    0.13E-06
   0      9    11.338    75.026    0.13E-03    0.20E-04    0.13E-06
   1      9    11.338    16.344    0.33E-04    0.24E-03    0.18E-06
   1      9    11.338    10.160    0.26E-04    0.19E-03    0.15E-06
 Optimization of the real space projectors (new method)

 maximal supplied QI-value         = 13.98
 optimisation between [QCUT,QGAM] = [ 11.33, 22.79] = [ 35.93,145.49] Ry 
 Optimized for a Real-space Cutoff    1.56 Angstroem

   l    n(q)    QCUT    max X(q) W(low)/X(q) W(high)/X(q)  e(spline) 
   2     10    11.327   884.633    0.22E-03    0.51E-03    0.88E-06
   2     10    11.327   796.723    0.22E-03    0.51E-03    0.88E-06
   0     11    11.327    65.348    0.44E-04    0.11E-03    0.75E-06
   0     11    11.327    39.642    0.40E-04    0.10E-03    0.69E-06
   1     10    11.327    13.988    0.15E-03    0.10E-03    0.19E-06
   1     10    11.327     8.682    0.11E-03    0.76E-04    0.14E-06
 Optimization of the real space projectors (new method)

 maximal supplied QI-value         = 25.13
 optimisation between [QCUT,QGAM] = [ 11.31, 22.87] = [ 35.82,146.48] Ry 
 Optimized for a Real-space Cutoff    1.00 Angstroem

   l    n(q)    QCUT    max X(q) W(low)/X(q) W(high)/X(q)  e(spline) 
   0      7    11.310   115.676    0.43E-03    0.13E-02    0.19E-06
   0      7    11.310    87.132    0.43E-03    0.13E-02    0.18E-06
   1      6    11.310     4.429    0.42E-03    0.74E-03    0.11E-06
   1      6    11.310     2.733    0.34E-03    0.55E-03    0.92E-07
  PAW_PBE Au 04Oct2007                  :
 energy of atom  1       EATOM= -926.0867
 kinetic energy error for atom=    0.0042 (will be added to EATOM!!)
  PAW_PBE Re 17Jan2003                  :
 energy of atom  2       EATOM= -299.6589
 kinetic energy error for atom=    0.0023 (will be added to EATOM!!)
  PAW_PBE C 08Apr2002                   :
 energy of atom  3       EATOM= -147.1560
 kinetic energy error for atom=    0.0076 (will be added to EATOM!!)
 
 
 POSCAR: Au-Re-C
  positions in direct lattice
  velocities in cartesian coordinates
 exchange correlation table for  LEXCH =        8
   RHO(1)=    0.500       N(1)  =     2000
   RHO(2)=  100.500       N(2)  =     4000

 VTST: version 3.2, (02/03/18)

 CHAIN: initializing optimizer
 
 OPT: Using VASP Conjugate-Gradient optimizer
 CHAIN: Read ICHAIN            0
 
 POSCAR: Au-Re-C
  positions in direct lattice
  velocities in cartesian coordinates
 


--------------------------------------------------------------------------------------------------------


 ion  position               nearest neighbor table
   1  0.000  0.000  0.217-  16 2.94  12 2.94   6 2.94   8 2.94   7 2.94   3 2.94  10 2.94   4 2.94
                             2 2.94
   2  0.333  0.000  0.217-   9 2.94  11 2.94  17 2.94  10 2.94   8 2.94   4 2.94   5 2.94   1 2.94
                             3 2.94
   3  0.667  0.000  0.217-   7 2.94  18 2.94  12 2.94   1 2.94  11 2.94   5 2.94   6 2.94   9 2.94
                             2 2.94
   4  0.000  0.333  0.217-  10 2.94   6 2.94   5 2.94  13 2.94   2 2.94  15 2.94   9 2.94   1 2.94
                             7 2.94
   5  0.333  0.333  0.217-  13 2.94   7 2.94  11 2.94   4 2.94   2 2.94  14 2.94   3 2.94   8 2.94
                             6 2.94
   6  0.667  0.333  0.217-  15 2.94  14 2.94   1 2.94  12 2.94   4 2.94   9 2.94   8 2.94   3 2.94
                             5 2.94
   7  0.000  0.667  0.217-  18 2.94   3 2.94  16 2.94   5 2.94   1 2.94  13 2.94   8 2.94   4 2.94
                             9 2.94
   8  0.333  0.667  0.217-   9 2.94  17 2.94   1 2.94   2 2.94  14 2.94  16 2.94   6 2.94   7 2.94
                             5 2.94
   9  0.667  0.667  0.217-   2 2.94   8 2.94  17 2.94   6 2.94  15 2.94   4 2.94   3 2.94  18 2.94
                             7 2.94
  10  0.111  0.111  0.316-  20 2.90  11 2.94  17 2.94   2 2.94   4 2.94   1 2.94  12 2.94  16 2.94
                            13 2.94  15 2.94  26 2.96  19 2.96
  11  0.444  0.111  0.316-  20 2.91  21 2.91  13 2.94   2 2.94  10 2.94  17 2.94   5 2.94   3 2.94
                            18 2.94  14 2.94  12 2.94  27 2.94
  12  0.778  0.111  0.316-  21 2.90  16 2.94  18 2.94   1 2.94  14 2.94  15 2.94   3 2.94   6 2.94
                            10 2.94  11 2.94  25 2.96  19 2.96
  13  0.111  0.444  0.316-  23 2.91  20 2.91   5 2.94  18 2.94  11 2.94   7 2.94   4 2.94  16 2.94
                            10 2.94  14 2.94  15 2.94  22 2.94
  14  0.444  0.444  0.316-  21 2.91  23 2.91  15 2.94   6 2.94  12 2.94   8 2.94  17 2.94   5 2.94
                            16 2.94  13 2.94  11 2.94  24 2.94
  15  0.778  0.444  0.316-  24 2.92  22 2.92  14 2.94   6 2.94  17 2.94  12 2.94   9 2.94   4 2.94
                            10 2.94  13 2.94  18 2.94  19 2.95
  16  0.111  0.778  0.316-  23 2.90  18 2.94  12 2.94   7 2.94   1 2.94   8 2.94  13 2.94  10 2.94
                            14 2.94  17 2.94  25 2.96  26 2.96
  17  0.444  0.778  0.316-  27 2.92  24 2.92   9 2.94  15 2.94   2 2.94  10 2.94  11 2.94   8 2.94
                            14 2.94  16 2.94  18 2.94  26 2.95
  18  0.778  0.778  0.316-  22 2.92  27 2.92  16 2.94   7 2.94  13 2.94  12 2.94   3 2.94  11 2.94
                             9 2.94  15 2.94  17 2.94  25 2.95
  19  0.888  0.224  0.415-  24 2.93  22 2.93  21 2.93  20 2.93  28 2.94  15 2.95  26 2.96  25 2.96
                            10 2.96  12 2.96  32 3.02  31 3.02
  20  0.222  0.222  0.413-  36 2.75  10 2.90  11 2.91  13 2.91  26 2.93  19 2.93  23 2.95  21 2.95
                            27 2.96  22 2.96  29 2.97  31 2.97
  21  0.556  0.222  0.413-  36 2.75  12 2.90  14 2.91  11 2.91  25 2.93  19 2.93  20 2.95  23 2.95
                            27 2.96  24 2.96  30 2.97  32 2.97
  22  0.886  0.557  0.414-  24 2.90  27 2.90  18 2.92  15 2.92  25 2.93  19 2.93  13 2.94  35 2.95
                            23 2.96  20 2.96  33 3.00  31 3.00
  23  0.222  0.556  0.413-  36 2.75  16 2.90  13 2.91  14 2.91  25 2.93  26 2.93  20 2.95  21 2.95
                            22 2.96  24 2.96  33 2.97  34 2.97
  24  0.557  0.557  0.414-  27 2.90  22 2.90  15 2.92  17 2.92  26 2.93  19 2.93  14 2.94  35 2.95
                            21 2.96  23 2.96  32 3.00  34 3.00
  25  0.888  0.888  0.415-  22 2.93  27 2.93  23 2.93  21 2.93  28 2.94  18 2.95  19 2.96  26 2.96
                            16 2.96  12 2.96  33 3.02  30 3.02
  26  0.224  0.888  0.415-  27 2.93  24 2.93  20 2.93  23 2.93  28 2.94  17 2.95  19 2.96  25 2.96
                            10 2.96  16 2.96  29 3.02  34 3.02
  27  0.557  0.886  0.414-  24 2.90  22 2.90  17 2.92  18 2.92  26 2.93  25 2.93  11 2.94  35 2.95
                            20 2.96  21 2.96  29 3.00  30 3.00
  28  0.000  0.000  0.514-  25 2.94  19 2.94  26 2.94  34 2.99  32 2.99  33 2.99  30 2.99  31 2.99
                            29 2.99
  29  0.333  0.011  0.516-  30 2.84  31 2.84  36 2.86  20 2.97  35 2.99  28 2.99  27 3.00  26 3.02
                            34 3.14
  30  0.655  0.011  0.516-  29 2.84  32 2.84  36 2.86  21 2.97  35 2.99  28 2.99  27 3.00  25 3.02
                            33 3.14
  31  0.011  0.333  0.516-  33 2.84  29 2.84  36 2.86  20 2.97  35 2.99  28 2.99  22 3.00  19 3.02
                            32 3.14
  32  0.655  0.333  0.516-  34 2.84  30 2.84  36 2.86  21 2.97  35 2.99  28 2.99  24 3.00  19 3.02
                            31 3.14
  33  0.011  0.655  0.516-  31 2.84  34 2.84  36 2.86  23 2.97  35 2.99  28 2.99  22 3.00  25 3.02
                            30 3.14
  34  0.333  0.655  0.516-  32 2.84  33 2.84  36 2.86  23 2.97  35 2.99  28 2.99  24 3.00  26 3.02
                            29 3.14
  35  0.667  0.667  0.514-  24 2.95  27 2.95  22 2.95  29 2.99  34 2.99  32 2.99  31 2.99  30 2.99
                            33 2.99
  36  0.333  0.333  0.502-  37 1.77  20 2.75  23 2.75  21 2.75  33 2.86  31 2.86  29 2.86  30 2.86
                            34 2.86  32 2.86
  37  0.333  0.333  0.575-  36 1.77
 
  LATTYP: Found a hexagonal cell.
 ALAT       =     8.8135128021
 C/A-ratio  =     2.7586513333
  
  Lattice vectors:
  
 A1 = (  -4.4067569092,  -7.6327256898,   0.0000000000)
 A2 = (   8.8135128021,   0.0000000000,   0.0000000000)
 A3 = (   0.0000000000,   0.0000000000,  24.3134088421)


Analysis of symmetry for initial positions (statically):
=====================================================================
 Subroutine PRICEL returns:
 Original cell was already a primitive cell.
 

 Routine SETGRP: Setting up the symmetry group for a 
 hexagonal supercell.


 Subroutine GETGRP returns: Found  6 space group operations
 (whereof  6 operations were pure point group operations)
 out of a pool of 24 trial point group operations.


The static configuration has the point symmetry C_3v.


Analysis of symmetry for dynamics (positions and initial velocities):
=====================================================================
 Subroutine PRICEL returns:
 Original cell was already a primitive cell.
 

 Routine SETGRP: Setting up the symmetry group for a 
 hexagonal supercell.


 Subroutine GETGRP returns: Found  6 space group operations
 (whereof  6 operations were pure point group operations)
 out of a pool of 24 trial point group operations.


The dynamic configuration has the point symmetry C_3v.


Analysis of constrained symmetry for selective dynamics:
=====================================================================
 Subroutine PRICEL returns:
 Original cell was already a primitive cell.
 

 Routine SETGRP: Setting up the symmetry group for a 
 hexagonal supercell.


 Subroutine GETGRP returns: Found  6 space group operations
 (whereof  6 operations were pure point group operations)
 out of a pool of 24 trial point group operations.


The constrained configuration has the point symmetry C_3v.


 Subroutine INISYM returns: Found  6 space group operations
 (whereof  6 operations are pure point group operations),
 and found     1 'primitive' translations


----------------------------------------------------------------------------------------

                                     Primitive cell                                     

  volume of cell :    1635.5904

  direct lattice vectors                    reciprocal lattice vectors
     8.813512802  0.000000000  0.000000000     0.113462137 -0.065507406  0.000000000
     4.406756909  7.632725690  0.000000000     0.000000000  0.131014796  0.000000000
     0.000000000  0.000000000 24.313408842     0.000000000  0.000000000  0.041129568

  length of vectors
     8.813512802  8.813512802 24.313408842     0.131014796  0.131014796  0.041129568

  position of ions in fractional coordinates (direct lattice)
     0.000000000  0.000000000  0.217179745
     0.333333343  0.000000000  0.217179745
     0.666666687  0.000000000  0.217179745
     0.000000000  0.333333343  0.217179745
     0.333333313  0.333333343  0.217179745
     0.666666687  0.333333343  0.217179745
     0.000000000  0.666666687  0.217179745
     0.333333343  0.666666687  0.217179745
     0.666666627  0.666666687  0.217179745
     0.111111119  0.111111112  0.315838643
     0.444444418  0.111111112  0.315838643
     0.777777791  0.111111112  0.315838643
     0.111111127  0.444444448  0.315838643
     0.444444478  0.444444448  0.315838643
     0.777777731  0.444444448  0.315838643
     0.111111090  0.777777791  0.315838643
     0.444444448  0.777777791  0.315838643
     0.777777851  0.777777791  0.315838643
     0.888205444  0.223589128  0.415380227
     0.221939694  0.221939679  0.412839227
     0.556120671  0.221939679  0.412839227
     0.886159616  0.556920222  0.414047999
     0.221939649  0.556120671  0.412839227
     0.556920222  0.556920222  0.414047999
     0.888205444  0.888205444  0.415380227
     0.223589158  0.888205444  0.415380227
     0.556920162  0.886159616  0.414047999
     0.000000000  0.000000000  0.514051870
     0.333363825  0.011378594  0.515590825
     0.655257611  0.011378594  0.515590825
     0.011378594  0.333363825  0.515590825
     0.655257611  0.333363825  0.515590825
     0.011378594  0.655257611  0.515590825
     0.333363825  0.655257611  0.515590825
     0.666666627  0.666666687  0.513966484
     0.333333313  0.333333343  0.501975769
     0.333333313  0.333333343  0.574868988

  ion indices of the primitive-cell ions
   primitive index   ion index
                 1           1
                 2           2
                 3           3
                 4           4
                 5           5
                 6           6
                 7           7
                 8           8
                 9           9
                10          10
                11          11
                12          12
                13          13
                14          14
                15          15
                16          16
                17          17
                18          18
                19          19
                20          20
                21          21
                22          22
                23          23
                24          24
                25          25
                26          26
                27          27
                28          28
                29          29
                30          30
                31          31
                32          32
                33          33
                34          34
                35          35
                36          36
                37          37

----------------------------------------------------------------------------------------

 
 
 KPOINTS: Automatic mesh                          

Automatic generation of k-mesh.
 Grid dimensions read from file:
 generate k-points for:    8    8    1

 Generating k-lattice:

  Cartesian coordinates                     Fractional coordinates (reciprocal lattice)
     0.014182767 -0.008188426  0.000000000     0.125000000  0.000000000  0.000000000
     0.000000000  0.016376850  0.000000000     0.000000000  0.125000000  0.000000000
     0.000000000  0.000000000  0.041129568     0.000000000  0.000000000  1.000000000

  Length of vectors
     0.016376850  0.016376850  0.041129568

  Shift w.r.t. Gamma in fractional coordinates (k-lattice)
     0.000000000  0.000000000  0.000000000

 TETIRR: Found     36 inequivalent tetrahedra from      384
 
 Subroutine IBZKPT returns following result:
 ===========================================
 
 Found     10 irreducible k-points:
 
 Following reciprocal coordinates:
            Coordinates               Weight
  0.000000  0.000000  0.000000      1.000000
  0.125000  0.000000  0.000000      6.000000
  0.250000  0.000000  0.000000      6.000000
  0.375000 -0.000000  0.000000      6.000000
  0.500000  0.000000  0.000000      3.000000
  0.250000  0.125000  0.000000      6.000000
  0.375000  0.125000  0.000000     12.000000
  0.500000  0.125000  0.000000     12.000000
  0.500000  0.250000  0.000000      6.000000
 -0.375000  0.250000  0.000000      6.000000
 
 Following cartesian coordinates:
            Coordinates               Weight
  0.000000  0.000000  0.000000      1.000000
  0.014183 -0.008188  0.000000      6.000000
  0.028366 -0.016377  0.000000      6.000000
  0.042548 -0.024565  0.000000      6.000000
  0.056731 -0.032754  0.000000      3.000000
  0.028366 -0.000000  0.000000      6.000000
  0.042548 -0.008188  0.000000     12.000000
  0.056731 -0.016377  0.000000     12.000000
  0.056731 -0.000000  0.000000      6.000000
 -0.042548  0.057319  0.000000      6.000000
 


--------------------------------------------------------------------------------------------------------




 Dimension of arrays:
   k-points           NKPTS =     10   k-points in BZ     NKDIM =     10   number of bands    NBANDS=    252
   number of dos      NEDOS =    301   number of ions     NIONS =     37
   non local maximal  LDIM  =      6   non local SUM 2l+1 LMDIM =     18
   total plane-waves  NPLWV = 322560
   max r-space proj   IRMAX =   3211   max aug-charges    IRDMAX=  12258
   dimension x,y,z NGX =    48 NGY =   48 NGZ =  140
   dimension x,y,z NGXF=    96 NGYF=   96 NGZF=  280
   support grid    NGXF=    96 NGYF=   96 NGZF=  280
   ions per type =              35   1   1
   NGX,Y,Z   is equivalent  to a cutoff of   9.05,  9.05,  9.57 a.u.
   NGXF,Y,Z  is equivalent  to a cutoff of  18.11, 18.11, 19.15 a.u.

 SYSTEM =  unknown system                          
 POSCAR =  Au-Re-C                                 

 Startparameter for this run:
   NWRITE =      2    write-flag & timer
   PREC   = normal    normal or accurate (medium, high low for compatibility)
   ISTART =      0    job   : 0-new  1-cont  2-samecut
   ICHARG =     11    charge: 1-file 2-atom 10-const
   ISPIN  =      1    spin polarized calculation?
   LNONCOLLINEAR =      F non collinear calculations
   LSORBIT =      F    spin-orbit coupling
   INIWAV =      1    electr: 0-lowe 1-rand  2-diag
   LASPH  =      F    aspherical Exc in radial PAW
   METAGGA=      F    non-selfconsistent MetaGGA calc.

 Electronic Relaxation 1
   ENCUT  =  500.0 eV  36.75 Ry    6.06 a.u.  16.07 16.07 44.33*2*pi/ulx,y,z
   ENINI  =  500.0     initial cutoff
   ENAUG  =  644.9 eV  augmentation charge cutoff
   NELM   =    150;   NELMIN=  2; NELMDL= -5     # of ELM steps 
   EDIFF  = 0.1E-04   stopping-criterion for ELM
   LREAL  =      T    real-space projection
   NLSPLINE    = F    spline interpolate recip. space projectors
   LCOMPAT=      F    compatible to vasp.4.4
   GGA_COMPAT  = T    GGA compatible to vasp.4.4-vasp.4.6
   LMAXPAW     = -100 max onsite density
   LMAXMIX     =    2 max onsite mixed and CHGCAR
   VOSKOWN=      0    Vosko Wilk Nusair interpolation
   ROPT   =   -0.00050  -0.00050  -0.00050
 Ionic relaxation
   EDIFFG = -.1E-01   stopping-criterion for IOM
   NSW    =      0    number of steps for IOM
   NBLOCK =      1;   KBLOCK =      1    inner block; outer block 
   IBRION =     -1    ionic relax: 0-MD 1-quasi-New 2-CG
   NFREE  =      1    steps in history (QN), initial steepest desc. (CG)
   ISIF   =      2    stress and relaxation
   IWAVPR =     10    prediction:  0-non 1-charg 2-wave 3-comb
   ISYM   =      2    0-nonsym 1-usesym 2-fastsym
   LCORR  =      T    Harris-Foulkes like correction to forces

   POTIM  = 0.5000    time-step for ionic-motion
   TEIN   =    0.0    initial temperature
   TEBEG  =    0.0;   TEEND  =   0.0 temperature during run
   SMASS  =  -3.00    Nose mass-parameter (am)
   estimated Nose-frequenzy (Omega)   =  0.10E-29 period in steps = 0.13E+47 mass=  -0.178E-26a.u.
   SCALEE = 1.0000    scale energy and forces
   NPACO  =    256;   APACO  = 16.0  distance and # of slots for P.C.
   PSTRESS=    0.0 pullay stress

  Mass of Ions in am
   POMASS = 196.97186.21 12.01
  Ionic Valenz
   ZVAL   =  11.00  7.00  4.00
  Atomic Wigner-Seitz radii
   RWIGS  =  -1.00 -1.00 -1.00
  virtual crystal weights 
   VCA    =   1.00  1.00  1.00
   NELECT =     396.0000    total number of electrons
   NUPDOWN=      -1.0000    fix difference up-down

 DOS related values:
   EMIN   =  10.00;   EMAX   =-10.00  energy-range for DOS
   EFERMI =   0.00
   ISMEAR =    -5;   SIGMA  =   0.10  broadening in eV -4-tet -1-fermi 0-gaus

 Electronic relaxation 2 (details)
   IALGO  =     68    algorithm
   LDIAG  =      T    sub-space diagonalisation (order eigenvalues)
   LSUBROT=      F    optimize rotation matrix (better conditioning)
   TURBO    =      0    0=normal 1=particle mesh
   IRESTART =      0    0=no restart 2=restart with 2 vectors
   NREBOOT  =      0    no. of reboots
   NMIN     =      0    reboot dimension
   EREF     =   0.00    reference energy to select bands
   IMIX   =      4    mixing-type and parameters
     AMIX     =   0.40;   BMIX     =  1.00
     AMIX_MAG =   1.60;   BMIX_MAG =  1.00
     AMIN     =   0.10
     WC   =   100.;   INIMIX=   1;  MIXPRE=   1;  MAXMIX= -45

 Intra band minimization:
   WEIMIN = 0.0000     energy-eigenvalue tresh-hold
   EBREAK =  0.99E-08  absolut break condition
   DEPER  =   0.30     relativ break condition  

   TIME   =   0.40     timestep for ELM

  volume/ion in A,a.u.               =      44.21       298.31
  Fermi-wavevector in a.u.,A,eV,Ry     =   1.020348  1.928178 14.165166  1.041110
  Thomas-Fermi vector in A             =   2.153913
 
 Write flags
   LWAVE        =      F    write WAVECAR
   LDOWNSAMPLE  =      F    k-point downsampling of WAVECAR
   LCHARG       =      F    write CHGCAR
   LVTOT        =      F    write LOCPOT, total local potential
   LVHAR        =      F    write LOCPOT, Hartree potential only
   LELF         =      F    write electronic localiz. function (ELF)
   LORBIT       =     10    0 simple, 1 ext, 2 COOP (PROOUT), +10 PAW based schemes


 Dipole corrections
   LMONO  =      F    monopole corrections only (constant potential shift)
   LDIPOL =      F    correct potential (dipole corrections)
   IDIPOL =      0    1-x, 2-y, 3-z, 4-all directions 
   EPSILON=  1.0000000 bulk dielectric constant

 Exchange correlation treatment:
   GGA     =    --    GGA type
   LEXCH   =     8    internal setting for exchange type
   VOSKOWN=      0    Vosko Wilk Nusair interpolation
   LHFCALC =     F    Hartree Fock is set to
   LHFONE  =     F    Hartree Fock one center treatment
   AEXX    =    0.0000 exact exchange contribution

 Linear response parameters
   LEPSILON=     F    determine dielectric tensor
   LRPA    =     F    only Hartree local field effects (RPA)
   LNABLA  =     F    use nabla operator in PAW spheres
   LVEL    =     F    velocity operator in full k-point grid
   LINTERFAST=   F  fast interpolation
   KINTER  =     0    interpolate to denser k-point grid
   CSHIFT  =0.1000    complex shift for real part using Kramers Kronig
   OMEGAMAX=  -1.0    maximum frequency
   DEG_THRESHOLD= 0.2000000E-02 threshold for treating states as degnerate
   RTIME   =   -0.100 relaxation time in fs
  (WPLASMAI=    0.000 imaginary part of plasma frequency in eV, 0.658/RTIME)
   DFIELD  = 0.0000000 0.0000000 0.0000000 field for delta impulse in time
 
 Orbital magnetization related:
   ORBITALMAG=     F  switch on orbital magnetization
   LCHIMAG   =     F  perturbation theory with respect to B field
   DQ        =  0.001000  dq finite difference perturbation B field
   LLRAUG    =     F  two centre corrections for induced B field



--------------------------------------------------------------------------------------------------------


 Static calculation
 charge density and potential remain constant during run
 non-spin polarized calculation
 RMM-DIIS sequential band-by-band and
  variant of blocked Davidson during initial phase
 perform sub-space diagonalisation
    before iterative eigenvector-optimisation
 no mixing
 using additional bands           54
 real space projection scheme for non local part
 use partial core corrections
 calculate Harris-corrections to forces 
   (improved forces if not selfconsistent)
 use gradient corrections 
 WARNING: stress and forces are not correct
  (second derivative of E(xc) not defined)
 use of overlap-Matrix (Vanderbilt PP)
 Fermi weights with tetrahedron method with Bloechl corrections


--------------------------------------------------------------------------------------------------------


  energy-cutoff  :      500.00
  volume of cell :     1635.59
      direct lattice vectors                 reciprocal lattice vectors
     8.813512802  0.000000000  0.000000000     0.113462137 -0.065507406  0.000000000
     4.406756909  7.632725690  0.000000000     0.000000000  0.131014796  0.000000000
     0.000000000  0.000000000 24.313408842     0.000000000  0.000000000  0.041129568

  length of vectors
     8.813512802  8.813512802 24.313408842     0.131014796  0.131014796  0.041129568


 
 k-points in units of 2pi/SCALE and weight: Automatic mesh                          
   0.00000000  0.00000000  0.00000000       0.016
   0.01418277 -0.00818843  0.00000000       0.094
   0.02836553 -0.01637685  0.00000000       0.094
   0.04254830 -0.02456528  0.00000000       0.094
   0.05673107 -0.03275370  0.00000000       0.047
   0.02836553 -0.00000000  0.00000000       0.094
   0.04254830 -0.00818843  0.00000000       0.188
   0.05673107 -0.01637685  0.00000000       0.188
   0.05673107 -0.00000000  0.00000000       0.094
  -0.04254830  0.05731898  0.00000000       0.094
 
 k-points in reciprocal lattice and weights: Automatic mesh                          
   0.00000000  0.00000000  0.00000000       0.016
   0.12500000  0.00000000  0.00000000       0.094
   0.25000000  0.00000000  0.00000000       0.094
   0.37500000 -0.00000000  0.00000000       0.094
   0.50000000  0.00000000  0.00000000       0.047
   0.25000000  0.12500000  0.00000000       0.094
   0.37500000  0.12500000  0.00000000       0.188
   0.50000000  0.12500000  0.00000000       0.188
   0.50000000  0.25000000  0.00000000       0.094
  -0.37500000  0.25000000  0.00000000       0.094
 
 position of ions in fractional coordinates (direct lattice) 
   0.00000000  0.00000000  0.21717974
   0.33333334  0.00000000  0.21717974
   0.66666669  0.00000000  0.21717974
   0.00000000  0.33333334  0.21717974
   0.33333331  0.33333334  0.21717974
   0.66666669  0.33333334  0.21717974
   0.00000000  0.66666669  0.21717974
   0.33333334  0.66666669  0.21717974
   0.66666663  0.66666669  0.21717974
   0.11111112  0.11111111  0.31583864
   0.44444442  0.11111111  0.31583864
   0.77777779  0.11111111  0.31583864
   0.11111113  0.44444445  0.31583864
   0.44444448  0.44444445  0.31583864
   0.77777773  0.44444445  0.31583864
   0.11111109  0.77777779  0.31583864
   0.44444445  0.77777779  0.31583864
   0.77777785  0.77777779  0.31583864
   0.88820544  0.22358913  0.41538023
   0.22193969  0.22193968  0.41283923
   0.55612067  0.22193968  0.41283923
   0.88615962  0.55692022  0.41404800
   0.22193965  0.55612067  0.41283923
   0.55692022  0.55692022  0.41404800
   0.88820544  0.88820544  0.41538023
   0.22358916  0.88820544  0.41538023
   0.55692016  0.88615962  0.41404800
   0.00000000  0.00000000  0.51405187
   0.33336383  0.01137859  0.51559083
   0.65525761  0.01137859  0.51559083
   0.01137859  0.33336383  0.51559083
   0.65525761  0.33336383  0.51559083
   0.01137859  0.65525761  0.51559083
   0.33336383  0.65525761  0.51559083
   0.66666663  0.66666669  0.51396648
   0.33333331  0.33333334  0.50197577
   0.33333331  0.33333334  0.57486899
 
 position of ions in cartesian coordinates  (Angst):
   0.00000000  0.00000000  5.28037993
   2.93783769  0.00000000  5.28037993
   5.87567538  0.00000000  5.28037993
   1.46891901  2.54424197  5.28037993
   4.40675643  2.54424197  5.28037993
   7.34459439  2.54424197  5.28037993
   2.93783803  5.08848395  5.28037993
   5.87567571  5.08848395  5.28037993
   8.81351288  5.08848395  5.28037993
   1.46891893  0.84808064  7.67911405
   4.40675623  0.84808064  7.67911405
   7.34459418  0.84808064  7.67911405
   2.93783798  3.39232256  7.67911405
   5.87567574  3.39232256  7.67911405
   8.81351263  3.39232256  7.67911405
   4.40675667  5.93656453  7.67911405
   7.34459449  5.93656453  7.67911405
  10.28243270  5.93656453  7.67911405
   8.81351299  1.70659448 10.09930928
   2.93410255  1.69400469 10.03752891
   5.87941087  1.69400469 10.03752891
  10.26439116  4.25081928 10.06691829
   4.40675655  4.24471653 10.03752891
   7.36263554  4.25081928 10.06691829
  11.74231553  6.77942851 10.09930928
   5.88471138  6.77942851 10.09930928
   8.81351299  6.76381327 10.06691829
   0.00000000  0.00000000 12.49835327
   2.98824904  0.08684969 12.53577053
   5.82526404  0.08684969 12.53577053
   1.56933872  2.54447463 12.53577053
   7.24417468  2.54447463 12.53577053
   2.98784639  5.00140160 12.53577053
   5.82566735  5.00140160 12.53577053
   8.81351288  5.08848395 12.49627727
   4.40675643  2.54424197 12.20474210
   4.40675643  2.54424197 13.97702473
 


--------------------------------------------------------------------------------------------------------


 k-point   1 :   0.0000 0.0000 0.0000  plane waves:   41363
 k-point   2 :   0.1250 0.0000 0.0000  plane waves:   41482
 k-point   3 :   0.2500 0.0000 0.0000  plane waves:   41496
 k-point   4 :   0.3750-0.0000 0.0000  plane waves:   41568
 k-point   5 :   0.5000 0.0000 0.0000  plane waves:   41500
 k-point   6 :   0.2500 0.1250 0.0000  plane waves:   41456
 k-point   7 :   0.3750 0.1250 0.0000  plane waves:   41540
 k-point   8 :   0.5000 0.1250 0.0000  plane waves:   41540
 k-point   9 :   0.5000 0.2500 0.0000  plane waves:   41588
 k-point  10 :  -0.3750 0.2500 0.0000  plane waves:   41554

 maximum and minimum number of plane-waves per node :     41588    41363

 maximum number of plane-waves:     41588
 maximum index in each direction: 
   IXMAX=   16   IYMAX=   16   IZMAX=   44
   IXMIN=  -16   IYMIN=  -16   IZMIN=  -44


 serial   3D FFT for wavefunctions
 parallel 3D FFT for charge:
    minimum data exchange during FFTs selected (reduces bandwidth)


 total amount of memory used by VASP MPI-rank0   130544. kBytes
=======================================================================

   base      :      30000. kBytes
   nonlr-proj:      14421. kBytes
   fftplans  :       4808. kBytes
   grid      :      19857. kBytes
   one-center:        575. kBytes
   wavefun   :      60883. kBytes
 
     INWAV:  cpu time    0.0000: real time    0.0000
 initial charge density was supplied:
 number of electron     396.0000123 magnetization 
 keeping initial charge density in first step


--------------------------------------------------------------------------------------------------------


 Maximum index for non-local projection operator         3054
 Maximum index for augmentation-charges          866 (set IRDMAX)


--------------------------------------------------------------------------------------------------------


 First call to EWALD:  gamma=   0.150
 Maximum number of real-space cells 4x 4x 2
 Maximum number of reciprocal cells 2x 2x 5

    FEWALD:  cpu time    0.0013: real time    0.0013


--------------------------------------- Iteration      1(   1)  ---------------------------------------


    POTLOK:  cpu time    0.0544: real time    0.0548
    SETDIJ:  cpu time    0.0048: real time    0.0049
     EDDAV:  cpu time   10.7030: real time   10.7047
 BZINTS: Fermi energy:    7.373588;  396.000000 electrons
         Band energy: 0.652104E+03;  BLOECHL correction:   -0.018993
       DOS:  cpu time    0.0108: real time    0.0109
    --------------------------------------------
      LOOP:  cpu time   10.7730: real time   10.7752

 eigenvalue-minimisations  :  7560
 total energy-change (2. order) : 0.1957989E+04  (-0.1846124E+05)
 number of electron     396.0000123 magnetization 
 augmentation part      396.0000123 magnetization 

 Free energy of the ion-electron system (eV)
  ---------------------------------------------------
  alpha Z        PSCENC =       935.03937280
  Ewald energy   TEWEN  =    126608.04445990
  -Hartree energ DENC   =   -160367.86965179
  -exchange      EXHF   =         0.00000000
  -V(xc)+E(xc)   XCENC  =       483.33802617
  PAW double counting   =     36284.33997170   -35496.69878465
  entropy T*S    EENTRO =         0.00000000
  eigenvalues    EBANDS =       652.10416697
  atomic energy  EATOM  =     32859.69125309
  Solvation  Ediel_sol  =         0.00000000
  ---------------------------------------------------
  free energy    TOTEN  =      1957.98881418 eV

  energy without entropy =     1957.98881418  energy(sigma->0) =     1957.98881418


--------------------------------------------------------------------------------------------------------




--------------------------------------- Iteration      1(   2)  ---------------------------------------


     EDDAV:  cpu time   10.3739: real time   10.3744
 BZINTS: Fermi energy:    0.538075;  396.000000 electrons
         Band energy:-0.138320E+04;  BLOECHL correction:   -0.068911
       DOS:  cpu time    0.0104: real time    0.0104
    --------------------------------------------
      LOOP:  cpu time   10.3844: real time   10.3849

 eigenvalue-minimisations  :  7308
 total energy-change (2. order) :-0.2035304E+04  (-0.1977643E+04)
 number of electron     396.0000123 magnetization 
 augmentation part      396.0000123 magnetization 

 Free energy of the ion-electron system (eV)
  ---------------------------------------------------
  alpha Z        PSCENC =       935.03937280
  Ewald energy   TEWEN  =    126608.04445990
  -Hartree energ DENC   =   -160367.86965179
  -exchange      EXHF   =         0.00000000
  -V(xc)+E(xc)   XCENC  =       483.33802617
  PAW double counting   =     36284.33997170   -35496.69878465
  entropy T*S    EENTRO =         0.00000000
  eigenvalues    EBANDS =     -1383.20023470
  atomic energy  EATOM  =     32859.69125309
  Solvation  Ediel_sol  =         0.00000000
  ---------------------------------------------------
  free energy    TOTEN  =       -77.31558749 eV

  energy without entropy =      -77.31558749  energy(sigma->0) =      -77.31558749


--------------------------------------------------------------------------------------------------------




--------------------------------------- Iteration      1(   3)  ---------------------------------------


     EDDAV:  cpu time   10.2934: real time   10.2940
 BZINTS: Fermi energy:    0.149614;  396.000000 electrons
         Band energy:-0.142851E+04;  BLOECHL correction:   -0.056118
       DOS:  cpu time    0.0109: real time    0.0109
    --------------------------------------------
      LOOP:  cpu time   10.3043: real time   10.3049

 eigenvalue-minimisations  :  7224
 total energy-change (2. order) :-0.4530644E+02  (-0.4407360E+02)
 number of electron     396.0000123 magnetization 
 augmentation part      396.0000123 magnetization 

 Free energy of the ion-electron system (eV)
  ---------------------------------------------------
  alpha Z        PSCENC =       935.03937280
  Ewald energy   TEWEN  =    126608.04445990
  -Hartree energ DENC   =   -160367.86965179
  -exchange      EXHF   =         0.00000000
  -V(xc)+E(xc)   XCENC  =       483.33802617
  PAW double counting   =     36284.33997170   -35496.69878465
  entropy T*S    EENTRO =         0.00000000
  eigenvalues    EBANDS =     -1428.50667295
  atomic energy  EATOM  =     32859.69125309
  Solvation  Ediel_sol  =         0.00000000
  ---------------------------------------------------
  free energy    TOTEN  =      -122.62202574 eV

  energy without entropy =     -122.62202574  energy(sigma->0) =     -122.62202574


--------------------------------------------------------------------------------------------------------




--------------------------------------- Iteration      1(   4)  ---------------------------------------


     EDDAV:  cpu time    9.1626: real time    9.1631
 BZINTS: Fermi energy:    0.140120;  396.000000 electrons
         Band energy:-0.142939E+04;  BLOECHL correction:   -0.055657
       DOS:  cpu time    0.0102: real time    0.0102
    --------------------------------------------
      LOOP:  cpu time    9.1727: real time    9.1733

 eigenvalue-minimisations  :  6272
 total energy-change (2. order) :-0.8855392E+00  (-0.8821938E+00)
 number of electron     396.0000123 magnetization 
 augmentation part      396.0000123 magnetization 

 Free energy of the ion-electron system (eV)
  ---------------------------------------------------
  alpha Z        PSCENC =       935.03937280
  Ewald energy   TEWEN  =    126608.04445990
  -Hartree energ DENC   =   -160367.86965179
  -exchange      EXHF   =         0.00000000
  -V(xc)+E(xc)   XCENC  =       483.33802617
  PAW double counting   =     36284.33997170   -35496.69878465
  entropy T*S    EENTRO =         0.00000000
  eigenvalues    EBANDS =     -1429.39221217
  atomic energy  EATOM  =     32859.69125309
  Solvation  Ediel_sol  =         0.00000000
  ---------------------------------------------------
  free energy    TOTEN  =      -123.50756496 eV

  energy without entropy =     -123.50756496  energy(sigma->0) =     -123.50756496


--------------------------------------------------------------------------------------------------------




--------------------------------------- Iteration      1(   5)  ---------------------------------------


     EDDAV:  cpu time    9.9592: real time    9.9598
 BZINTS: Fermi energy:    0.139666;  396.000000 electrons
         Band energy:-0.142943E+04;  BLOECHL correction:   -0.055611
       DOS:  cpu time    0.0104: real time    0.0104
    --------------------------------------------
      LOOP:  cpu time    9.9696: real time    9.9702

 eigenvalue-minimisations  :  6916
 total energy-change (2. order) :-0.3358447E-01  (-0.3358726E-01)
 number of electron     396.0000123 magnetization 
 augmentation part      396.0000123 magnetization 

 Free energy of the ion-electron system (eV)
  ---------------------------------------------------
  alpha Z        PSCENC =       935.03937280
  Ewald energy   TEWEN  =    126608.04445990
  -Hartree energ DENC   =   -160367.86965179
  -exchange      EXHF   =         0.00000000
  -V(xc)+E(xc)   XCENC  =       483.33802617
  PAW double counting   =     36284.33997170   -35496.69878465
  entropy T*S    EENTRO =         0.00000000
  eigenvalues    EBANDS =     -1429.42579665
  atomic energy  EATOM  =     32859.69125309
  Solvation  Ediel_sol  =         0.00000000
  ---------------------------------------------------
  free energy    TOTEN  =      -123.54114943 eV

  energy without entropy =     -123.54114943  energy(sigma->0) =     -123.54114943


--------------------------------------------------------------------------------------------------------




--------------------------------------- Iteration      1(   6)  ---------------------------------------


    EDDIAG:  cpu time    1.5292: real time    1.5294
  RMM-DIIS:  cpu time    5.6154: real time    5.6157
    ORTHCH:  cpu time    0.2822: real time    0.2822
 BZINTS: Fermi energy:    0.139659;  396.000000 electrons
         Band energy:-0.142943E+04;  BLOECHL correction:   -0.055612
       DOS:  cpu time    0.0108: real time    0.0108
    --------------------------------------------
      LOOP:  cpu time    7.4376: real time    7.4381

 eigenvalue-minimisations  :  6444
 total energy-change (2. order) :-0.1208864E-02  (-0.1209160E-02)
 number of electron     396.0000123 magnetization 
 augmentation part      396.0000123 magnetization 

 Free energy of the ion-electron system (eV)
  ---------------------------------------------------
  alpha Z        PSCENC =       935.03937280
  Ewald energy   TEWEN  =    126608.04445990
  -Hartree energ DENC   =   -160367.86965179
  -exchange      EXHF   =         0.00000000
  -V(xc)+E(xc)   XCENC  =       483.33802617
  PAW double counting   =     36284.33997170   -35496.69878465
  entropy T*S    EENTRO =         0.00000000
  eigenvalues    EBANDS =     -1429.42700551
  atomic energy  EATOM  =     32859.69125309
  Solvation  Ediel_sol  =         0.00000000
  ---------------------------------------------------
  free energy    TOTEN  =      -123.54235830 eV

  energy without entropy =     -123.54235830  energy(sigma->0) =     -123.54235830


--------------------------------------------------------------------------------------------------------




--------------------------------------- Iteration      1(   7)  ---------------------------------------


    EDDIAG:  cpu time    1.5302: real time    1.5304
  RMM-DIIS:  cpu time    6.5793: real time    6.5795
    ORTHCH:  cpu time    0.2817: real time    0.2817
 BZINTS: Fermi energy:    0.139657;  396.000000 electrons
         Band energy:-0.142943E+04;  BLOECHL correction:   -0.055612
       DOS:  cpu time    0.0106: real time    0.0106
    --------------------------------------------
      LOOP:  cpu time    8.4017: real time    8.4022

 eigenvalue-minimisations  :  7426
 total energy-change (2. order) :-0.4200525E-03  (-0.4173041E-03)
 number of electron     396.0000123 magnetization 
 augmentation part      396.0000123 magnetization 

 Free energy of the ion-electron system (eV)
  ---------------------------------------------------
  alpha Z        PSCENC =       935.03937280
  Ewald energy   TEWEN  =    126608.04445990
  -Hartree energ DENC   =   -160367.86965179
  -exchange      EXHF   =         0.00000000
  -V(xc)+E(xc)   XCENC  =       483.33802617
  PAW double counting   =     36284.33997170   -35496.69878465
  entropy T*S    EENTRO =         0.00000000
  eigenvalues    EBANDS =     -1429.42742556
  atomic energy  EATOM  =     32859.69125309
  Solvation  Ediel_sol  =         0.00000000
  ---------------------------------------------------
  free energy    TOTEN  =      -123.54277835 eV

  energy without entropy =     -123.54277835  energy(sigma->0) =     -123.54277835


--------------------------------------------------------------------------------------------------------




--------------------------------------- Iteration      1(   8)  ---------------------------------------


    EDDIAG:  cpu time    1.5307: real time    1.5308
  RMM-DIIS:  cpu time    6.7395: real time    6.7398
    ORTHCH:  cpu time    0.2815: real time    0.2815
 BZINTS: Fermi energy:    0.139656;  396.000000 electrons
         Band energy:-0.142943E+04;  BLOECHL correction:   -0.055612
       DOS:  cpu time    0.0108: real time    0.0108
    --------------------------------------------
      LOOP:  cpu time    8.5625: real time    8.5629

 eigenvalue-minimisations  :  7423
 total energy-change (2. order) :-0.9610286E-04  (-0.9509829E-04)
 number of electron     396.0000123 magnetization 
 augmentation part      396.0000123 magnetization 

 Free energy of the ion-electron system (eV)
  ---------------------------------------------------
  alpha Z        PSCENC =       935.03937280
  Ewald energy   TEWEN  =    126608.04445990
  -Hartree energ DENC   =   -160367.86965179
  -exchange      EXHF   =         0.00000000
  -V(xc)+E(xc)   XCENC  =       483.33802617
  PAW double counting   =     36284.33997170   -35496.69878465
  entropy T*S    EENTRO =         0.00000000
  eigenvalues    EBANDS =     -1429.42752167
  atomic energy  EATOM  =     32859.69125309
  Solvation  Ediel_sol  =         0.00000000
  ---------------------------------------------------
  free energy    TOTEN  =      -123.54287445 eV

  energy without entropy =     -123.54287445  energy(sigma->0) =     -123.54287445


--------------------------------------------------------------------------------------------------------




--------------------------------------- Iteration      1(   9)  ---------------------------------------


    EDDIAG:  cpu time    1.5298: real time    1.5300
  RMM-DIIS:  cpu time    5.3669: real time    5.3671
    ORTHCH:  cpu time    0.2814: real time    0.2814
 BZINTS: Fermi energy:    0.139656;  396.000000 electrons
         Band energy:-0.142943E+04;  BLOECHL correction:   -0.055612
       DOS:  cpu time    0.0108: real time    0.0108
    --------------------------------------------
      LOOP:  cpu time    7.1889: real time    7.1893

 eigenvalue-minimisations  :  5577
 total energy-change (2. order) :-0.2934039E-04  (-0.2923608E-04)
 number of electron     396.0000123 magnetization 
 augmentation part      396.0000123 magnetization 

 Free energy of the ion-electron system (eV)
  ---------------------------------------------------
  alpha Z        PSCENC =       935.03937280
  Ewald energy   TEWEN  =    126608.04445990
  -Hartree energ DENC   =   -160367.86965179
  -exchange      EXHF   =         0.00000000
  -V(xc)+E(xc)   XCENC  =       483.33802617
  PAW double counting   =     36284.33997170   -35496.69878465
  entropy T*S    EENTRO =         0.00000000
  eigenvalues    EBANDS =     -1429.42755101
  atomic energy  EATOM  =     32859.69125309
  Solvation  Ediel_sol  =         0.00000000
  ---------------------------------------------------
  free energy    TOTEN  =      -123.54290379 eV

  energy without entropy =     -123.54290379  energy(sigma->0) =     -123.54290379


--------------------------------------------------------------------------------------------------------




--------------------------------------- Iteration      1(  10)  ---------------------------------------


    EDDIAG:  cpu time    1.5314: real time    1.5316
  RMM-DIIS:  cpu time    4.5032: real time    4.5034
    ORTHCH:  cpu time    0.2813: real time    0.2813
 BZINTS: Fermi energy:    0.139656;  396.000000 electrons
         Band energy:-0.142943E+04;  BLOECHL correction:   -0.055612
       DOS:  cpu time    0.0104: real time    0.0104
    --------------------------------------------
      LOOP:  cpu time    6.3263: real time    6.3266

 eigenvalue-minimisations  :  4376
 total energy-change (2. order) :-0.4889996E-05  (-0.4809468E-05)
 number of electron     396.0000123 magnetization 
 augmentation part      396.0000123 magnetization 

 Free energy of the ion-electron system (eV)
  ---------------------------------------------------
  alpha Z        PSCENC =       935.03937280
  Ewald energy   TEWEN  =    126608.04445990
  -Hartree energ DENC   =   -160367.86965179
  -exchange      EXHF   =         0.00000000
  -V(xc)+E(xc)   XCENC  =       483.33802617
  PAW double counting   =     36284.33997170   -35496.69878465
  entropy T*S    EENTRO =         0.00000000
  eigenvalues    EBANDS =     -1429.42755590
  atomic energy  EATOM  =     32859.69125309
  Solvation  Ediel_sol  =         0.00000000
  ---------------------------------------------------
  free energy    TOTEN  =      -123.54290868 eV

  energy without entropy =     -123.54290868  energy(sigma->0) =     -123.54290868


--------------------------------------------------------------------------------------------------------




 average (electrostatic) potential at core
  the test charge radii are     1.2098  1.1873  0.6991
  (the norm of the test charge is              1.0000)
       1 -72.9110       2 -72.8879       3 -72.8878       4 -72.8879       5 -72.8949
       6 -72.8876       7 -72.8878       8 -72.8876       9 -72.8870      10 -73.2399
      11 -73.2192      12 -73.2399      13 -73.2192      14 -73.2190      15 -73.2170
      16 -73.2399      17 -73.2170      18 -73.2171      19 -73.1538      20 -73.4552
      21 -73.4554      22 -73.2030      23 -73.4554      24 -73.2030      25 -73.1540
      26 -73.1538      27 -73.2030      28 -72.8453      29 -72.9571      30 -72.9572
      31 -72.9571      32 -72.9571      33 -72.9572      34 -72.9571      35 -72.8178
      36 -47.0471      37 -54.5839
 
 
 
 E-fermi :   0.1397     XC(G=0):  -5.6302     alpha+bet : -5.2748

 Fermi energy:         0.1396561678

 k-point     1 :       0.0000    0.0000    0.0000
  band No.  band energies     occupation 
      1      -9.3143      2.00000
      2      -8.5916      2.00000
      3      -7.4579      2.00000
      4      -6.5816      2.00000
      5      -6.5769      2.00000
      6      -6.5769      2.00000
      7      -6.5352      2.00000
      8      -6.5155      2.00000
      9      -6.4840      2.00000
     10      -6.4747      2.00000
     11      -6.4746      2.00000
     12      -6.0833      2.00000
     13      -6.0833      2.00000
     14      -6.0757      2.00000
     15      -6.0231      2.00000
     16      -5.9972      2.00000
     17      -5.9972      2.00000
     18      -5.7071      2.00000
     19      -5.7067      2.00000
     20      -5.7067      2.00000
     21      -5.6499      2.00000
     22      -5.6309      2.00000
     23      -5.6309      2.00000
     24      -5.5100      2.00000
     25      -5.4967      2.00000
     26      -5.4966      2.00000
     27      -5.4942      2.00000
     28      -5.4941      2.00000
     29      -5.4624      2.00000
     30      -5.3455      2.00000
     31      -5.3455      2.00000
     32      -5.3312      2.00000
     33      -5.3211      2.00000
     34      -5.3211      2.00000
     35      -5.3145      2.00000
     36      -5.3022      2.00000
     37      -5.3022      2.00000
     38      -5.2763      2.00000
     39      -5.2669      2.00000
     40      -5.2516      2.00000
     41      -5.2516      2.00000
     42      -4.8555      2.00000
     43      -4.8554      2.00000
     44      -4.8064      2.00000
     45      -4.8064      2.00000
     46      -4.8020      2.00000
     47      -4.7446      2.00000
     48      -4.7446      2.00000
     49      -4.7390      2.00000
     50      -4.7185      2.00000
     51      -4.7185      2.00000
     52      -4.6442      2.00000
     53      -4.6398      2.00000
     54      -4.6245      2.00000
     55      -4.5576      2.00000
     56      -4.2735      2.00000
     57      -4.2735      2.00000
     58      -4.2691      2.00000
     59      -4.2439      2.00000
     60      -4.2438      2.00000
     61      -4.2426      2.00000
     62      -4.2272      2.00000
     63      -4.1637      2.00000
     64      -4.1637      2.00000
     65      -4.1209      2.00000
     66      -4.1209      2.00000
     67      -4.0876      2.00000
     68      -4.0740      2.00000
     69      -4.0740      2.00000
     70      -4.0281      2.00000
     71      -4.0281      2.00000
     72      -4.0194      2.00000
     73      -3.9913      2.00000
     74      -3.9913      2.00000
     75      -3.9724      2.00000
     76      -3.9606      2.00000
     77      -3.9606      2.00000
     78      -3.9583      2.00000
     79      -3.9583      2.00000
     80      -3.9535      2.00000
     81      -3.9252      2.00000
     82      -3.9252      2.00000
     83      -3.8875      2.00000
     84      -3.8753      2.00000
     85      -3.8753      2.00000
     86      -3.8628      2.00000
     87      -3.8348      2.00000
     88      -3.8348      2.00000
     89      -3.7955      2.00000
     90      -3.7954      2.00000
     91      -3.7596      2.00000
     92      -3.7300      2.00000
     93      -3.7300      2.00000
     94      -3.6757      2.00000
     95      -3.6757      2.00000
     96      -3.5308      2.00000
     97      -3.5308      2.00000
     98      -3.5254      2.00000
     99      -3.5254      2.00000
    100      -3.3945      2.00000
    101      -3.3797      2.00000
    102      -3.3797      2.00000
    103      -3.3588      2.00000
    104      -3.3588      2.00000
    105      -3.3494      2.00000
    106      -3.2398      2.00000
    107      -3.2398      2.00000
    108      -3.1843      2.00000
    109      -3.1684      2.00000
    110      -3.1684      2.00000
    111      -3.1321      2.00000
    112      -3.1268      2.00000
    113      -3.1267      2.00000
    114      -3.0736      2.00000
    115      -3.0510      2.00000
    116      -3.0380      2.00000
    117      -2.9654      2.00000
    118      -2.9654      2.00000
    119      -2.8968      2.00000
    120      -2.8600      2.00000
    121      -2.8600      2.00000
    122      -2.8333      2.00000
    123      -2.8125      2.00000
    124      -2.8125      2.00000
    125      -2.7789      2.00000
    126      -2.7789      2.00000
    127      -2.7612      2.00000
    128      -2.7612      2.00000
    129      -2.6836      2.00000
    130      -2.6836      2.00000
    131      -2.6292      2.00000
    132      -2.6031      2.00000
    133      -2.6031      2.00000
    134      -2.5883      2.00000
    135      -2.5841      2.00000
    136      -2.5841      2.00000
    137      -2.5815      2.00000
    138      -2.5734      2.00000
    139      -2.5734      2.00000
    140      -2.4723      2.00000
    141      -2.4723      2.00000
    142      -2.4498      2.00000
    143      -2.3897      2.00000
    144      -2.3897      2.00000
    145      -2.3689      2.00000
    146      -2.3554      2.00000
    147      -2.3554      2.00000
    148      -2.3345      2.00000
    149      -2.3233      2.00000
    150      -2.3232      2.00000
    151      -2.2945      2.00000
    152      -2.2761      2.00000
    153      -2.2622      2.00000
    154      -2.2622      2.00000
    155      -2.2215      2.00000
    156      -2.2036      2.00000
    157      -2.2036      2.00000
    158      -2.1795      2.00000
    159      -2.1795      2.00000
    160      -2.1722      2.00000
    161      -2.1629      2.00000
    162      -2.1108      2.00000
    163      -2.1108      2.00000
    164      -2.1068      2.00000
    165      -2.0993      2.00000
    166      -2.0993      2.00000
    167      -2.0839      2.00000
    168      -2.0839      2.00000
    169      -2.0678      2.00000
    170      -2.0358      2.00000
    171      -2.0325      2.00000
    172      -2.0324      2.00000
    173      -2.0236      2.00000
    174      -2.0082      2.00000
    175      -1.9997      2.00000
    176      -1.9997      2.00000
    177      -1.9783      2.00000
    178      -1.9571      2.00000
    179      -1.9571      2.00000
    180      -1.9554      2.00000
    181      -1.9249      2.00000
    182      -1.9249      2.00000
    183      -1.9125      2.00000
    184      -1.8760      2.00000
    185      -1.8760      2.00000
    186      -1.7625      2.00000
    187      -1.7625      2.00000
    188      -1.7507      2.00000
    189      -1.7193      2.00000
    190      -1.7193      2.00000
    191      -1.6982      2.00000
    192      -1.4554      2.00000
    193      -1.3456      2.00000
    194      -1.3456      2.00000
    195      -0.7844      2.00000
    196      -0.4885      2.00000
    197      -0.4885      2.00000
    198      -0.4345      2.00000
    199      -0.3121      2.00000
    200      -0.2309      2.00000
    201      -0.2309      2.00000
    202       0.1424      0.00000
    203       0.1424      0.00000
    204       0.6733      0.00000
    205       1.5672      0.00000
    206       1.6545      0.00000
    207       1.7037      0.00000
    208       1.7037      0.00000
    209       1.9227      0.00000
    210       1.9228      0.00000
    211       2.5053      0.00000
    212       2.5053      0.00000
    213       2.9468      0.00000
    214       2.9495      0.00000
    215       2.9495      0.00000
    216       3.0937      0.00000
    217       3.5117      0.00000
    218       3.5594      0.00000
    219       3.5594      0.00000
    220       3.7277      0.00000
    221       4.5087      0.00000
    222       4.7786      0.00000
    223       4.7970      0.00000
    224       4.7971      0.00000
    225       4.8328      0.00000
    226       4.8328      0.00000
    227       4.9633      0.00000
    228       5.0612      0.00000
    229       5.0613      0.00000
    230       5.2279      0.00000
    231       5.2279      0.00000
    232       5.2937      0.00000
    233       5.3994      0.00000
    234       5.5592      0.00000
    235       6.1897      0.00000
    236       6.2492      0.00000
    237       6.4494      0.00000
    238       6.4502      0.00000
    239       6.5112      0.00000
    240       6.5394      0.00000
    241       6.5419      0.00000
    242       6.6092      0.00000
    243       6.6487      0.00000
    244       6.6516      0.00000
    245       6.7060      0.00000
    246       6.7082      0.00000
    247       6.8478      0.00000
    248       6.9246      0.00000
    249       6.9274      0.00000
    250       6.9401      0.00000
    251       7.1654      0.00000
    252       7.2151      0.00000

 k-point     2 :       0.1250    0.0000    0.0000
  band No.  band energies     occupation 
      1      -9.3056      2.00000
      2      -8.5481      2.00000
      3      -7.4111      2.00000
      4      -6.7835      2.00000
      5      -6.6142      2.00000
      6      -6.5991      2.00000
      7      -6.5025      2.00000
      8      -6.4809      2.00000
      9      -6.4229      2.00000
     10      -6.3992      2.00000
     11      -6.3718      2.00000
     12      -6.1109      2.00000
     13      -6.0646      2.00000
     14      -6.0604      2.00000
     15      -6.0319      2.00000
     16      -5.9892      2.00000
     17      -5.9733      2.00000
     18      -5.7384      2.00000
     19      -5.6953      2.00000
     20      -5.6904      2.00000
     21      -5.6451      2.00000
     22      -5.6115      2.00000
     23      -5.6078      2.00000
     24      -5.5828      2.00000
     25      -5.5262      2.00000
     26      -5.5241      2.00000
     27      -5.4504      2.00000
     28      -5.4392      2.00000
     29      -5.4126      2.00000
     30      -5.3944      2.00000
     31      -5.3876      2.00000
     32      -5.3629      2.00000
     33      -5.3553      2.00000
     34      -5.3434      2.00000
     35      -5.3172      2.00000
     36      -5.3018      2.00000
     37      -5.2414      2.00000
     38      -5.2330      2.00000
     39      -5.2098      2.00000
     40      -5.1668      2.00000
     41      -5.1662      2.00000
     42      -4.9075      2.00000
     43      -4.8837      2.00000
     44      -4.8596      2.00000
     45      -4.8586      2.00000
     46      -4.8318      2.00000
     47      -4.8041      2.00000
     48      -4.7686      2.00000
     49      -4.7122      2.00000
     50      -4.7050      2.00000
     51      -4.6665      2.00000
     52      -4.6185      2.00000
     53      -4.6169      2.00000
     54      -4.5930      2.00000
     55      -4.5561      2.00000
     56      -4.3222      2.00000
     57      -4.2952      2.00000
     58      -4.2942      2.00000
     59      -4.2804      2.00000
     60      -4.2482      2.00000
     61      -4.2460      2.00000
     62      -4.2328      2.00000
     63      -4.2153      2.00000
     64      -4.1892      2.00000
     65      -4.1788      2.00000
     66      -4.1649      2.00000
     67      -4.1361      2.00000
     68      -4.1322      2.00000
     69      -4.1250      2.00000
     70      -4.1055      2.00000
     71      -4.0783      2.00000
     72      -4.0737      2.00000
     73      -4.0369      2.00000
     74      -4.0348      2.00000
     75      -4.0270      2.00000
     76      -4.0198      2.00000
     77      -3.9916      2.00000
     78      -3.9456      2.00000
     79      -3.9383      2.00000
     80      -3.9166      2.00000
     81      -3.9009      2.00000
     82      -3.8946      2.00000
     83      -3.8760      2.00000
     84      -3.8546      2.00000
     85      -3.8408      2.00000
     86      -3.8150      2.00000
     87      -3.8113      2.00000
     88      -3.7755      2.00000
     89      -3.7705      2.00000
     90      -3.7450      2.00000
     91      -3.7351      2.00000
     92      -3.6986      2.00000
     93      -3.6829      2.00000
     94      -3.6494      2.00000
     95      -3.6443      2.00000
     96      -3.6189      2.00000
     97      -3.6158      2.00000
     98      -3.4996      2.00000
     99      -3.4761      2.00000
    100      -3.4734      2.00000
    101      -3.4032      2.00000
    102      -3.3916      2.00000
    103      -3.3803      2.00000
    104      -3.3501      2.00000
    105      -3.3346      2.00000
    106      -3.3266      2.00000
[...]
  0.000   0.000   0.000   0.000   0.000   0.000   0.000   0.000   0.000   0.000   0.000   0.000   0.000   0.000   0.000   0.000
  0.000   0.000   0.000   0.000   0.000   0.000   0.000   0.000   0.000   0.000   0.000   0.000   0.000   0.000   0.000   0.000
  0.000   0.000   0.000   0.000   0.000   0.000   0.000   0.000   0.000   0.000   0.000   0.000   0.000   0.000   0.000   0.000
  0.000   0.000   0.000   0.000   0.000   0.000   0.000   0.000   0.000   0.000   0.000   0.000   0.000   0.000   0.000   0.000
  0.000   0.000   0.000   0.000   0.000   0.000   0.000   0.000   0.000   0.000   0.000   0.000   0.000   0.000   0.000   0.000
  0.000   0.000   0.000   0.000   0.000   0.000   0.000   0.000   0.000   0.000   1.000   0.000   0.000   0.000   0.000   0.000
  0.000   0.000   0.000   0.000   0.000   0.000   0.000   0.000   0.000   0.000   0.000   0.000   0.000   0.000   0.000   0.000
  0.000   0.000   0.000   0.000   0.000   0.000   0.000   0.000   0.000   0.000   0.000   0.000   0.000   0.000   0.000   0.000
  0.000   0.000   0.000   0.000   0.000   0.000   0.000   0.000   0.000   0.000   0.000   0.000   0.000   0.000   0.000   0.000
  0.000   0.000   0.000   0.000   0.000   0.000   0.000   0.000   0.000   0.000   0.000   0.000   0.000   0.000   0.000   0.000
  0.000   0.000   0.000   0.000   0.000   0.000   0.000   0.000   0.000   0.000   0.000   0.000   0.000   0.000   0.000   0.000
  0.000   0.000   0.000   0.000   0.000   0.000   0.000   0.000   0.000   0.000   0.000   0.000   0.000   0.000   0.000   0.000
  0.000   0.000   0.000   0.000   0.000   0.000   0.000   0.000   0.000   0.000   0.000   0.000   0.000   0.000   0.000   0.000


------------------------ aborting loop because EDIFF is reached ----------------------------------------





 total charge

# of ion       s       p       d       tot
------------------------------------------
    1        0.545   0.241   8.764   9.550
    2        0.545   0.241   8.764   9.550
    3        0.545   0.241   8.764   9.550
    4        0.545   0.241   8.764   9.550
    5        0.541   0.241   8.764   9.546
    6        0.545   0.241   8.764   9.550
    7        0.545   0.241   8.764   9.550
    8        0.545   0.241   8.764   9.550
    9        0.541   0.241   8.767   9.549
   10        0.519   0.308   8.771   9.598
   11        0.520   0.310   8.776   9.606
   12        0.519   0.308   8.771   9.598
   13        0.520   0.310   8.776   9.606
   14        0.520   0.310   8.776   9.606
   15        0.515   0.309   8.775   9.599
   16        0.519   0.308   8.771   9.598
   17        0.515   0.309   8.775   9.599
   18        0.515   0.309   8.775   9.599
   19        0.517   0.294   8.775   9.586
   20        0.547   0.337   8.752   9.637
   21        0.547   0.337   8.752   9.637
   22        0.509   0.308   8.776   9.593
   23        0.547   0.337   8.752   9.637
   24        0.509   0.308   8.776   9.593
   25        0.517   0.294   8.775   9.586
   26        0.517   0.294   8.775   9.586
   27        0.509   0.308   8.776   9.593
   28        0.542   0.225   8.760   9.527
   29        0.553   0.249   8.751   9.552
   30        0.553   0.249   8.751   9.552
   31        0.553   0.249   8.751   9.552
   32        0.553   0.249   8.751   9.552
   33        0.553   0.249   8.751   9.552
   34        0.553   0.249   8.751   9.552
   35        0.537   0.226   8.759   9.523
   36        0.575   0.511   4.978   6.063
   37        1.006   1.230   0.000   2.236
--------------------------------------------------
tot         20.255  11.452 311.757 343.464
 
    CHARGE:  cpu time    0.3707: real time    0.3708
    FORLOC:  cpu time    0.0111: real time    0.0111
    FORNL :  cpu time    1.5985: real time    1.5988
    STRESS:  cpu time    4.7946: real time    4.7950
    FORCOR:  cpu time    0.0474: real time    0.0476
    FORHAR:  cpu time    0.0183: real time    0.0183
    OFIELD:  cpu time    0.0003: real time    0.0003

  FORCE on cell =-STRESS in cart. coord.  units (eV):
  Direction    XX          YY          ZZ          XY          YZ          ZX
  --------------------------------------------------------------------------------------
  Alpha Z   935.03937   935.03937   935.03937
  Ewald  149163.55113149163.55154************    -0.00032    -0.00009    -0.00015
  Hartree157448.92706157448.92707************     0.00000    -0.00002    -0.00004
  E(xc)   -1772.95438 -1772.95436 -1782.12299    -0.00001    -0.00000    -0.00000
  Local  ************************319189.83107     0.00175     0.00004     0.00006
  n-local   -95.81107   -48.34980   -49.93266    23.71174    -1.46543     1.39429
  augment  2374.11648  2374.11793  2391.78511    -0.00125     0.00002     0.00007
  Kinetic  5491.76545  5503.02284  5549.31502     6.64681     0.01969     0.47702
  Fock        0.00000     0.00000     0.00000     0.00000     0.00000     0.00000
  -------------------------------------------------------------------------------------
  Total     -20.41311   -20.41311     1.94249    -0.00000     0.00000    -0.00000
  in kB     -19.99610   -19.99610     1.90281    -0.00000     0.00000    -0.00000
  external pressure =      -12.70 kB  Pullay stress =        0.00 kB


 VOLUME and BASIS-vectors are now :
 -----------------------------------------------------------------------------
  energy-cutoff  :      500.00
  volume of cell :     1635.59
      direct lattice vectors                 reciprocal lattice vectors
     8.813512802  0.000000000  0.000000000     0.113462137 -0.065507406  0.000000000
     4.406756909  7.632725690  0.000000000     0.000000000  0.131014796  0.000000000
     0.000000000  0.000000000 24.313408842     0.000000000  0.000000000  0.041129568

  length of vectors
     8.813512802  8.813512802 24.313408842     0.131014796  0.131014796  0.041129568


 FORCES acting on ions
    electron-ion (+dipol)            ewald-force                    non-local-force                 convergence-correction
 -----------------------------------------------------------------------------------------------
   -.198E-04 -.163E-04 0.264E+04   0.520E-04 0.434E-04 -.264E+04   0.279E-17 0.517E-17 -.589E+00   -.160E-03 -.106E-03 -.197E+00
   0.768E+00 0.251E+00 0.264E+04   -.786E+00 -.302E+00 -.264E+04   -.301E-01 -.223E-02 -.296E+00   0.510E-01 0.477E-01 -.153E+00
   -.768E+00 0.251E+00 0.264E+04   0.786E+00 -.302E+00 -.264E+04   0.301E-01 -.223E-02 -.296E+00   -.508E-01 0.495E-01 -.153E+00
   0.601E+00 0.540E+00 0.264E+04   -.654E+00 -.529E+00 -.264E+04   -.170E-01 -.249E-01 -.296E+00   0.668E-01 0.203E-01 -.153E+00
   0.777E-05 -.237E-04 0.264E+04   0.951E-04 0.175E-05 -.264E+04   -.184E-17 -.426E-18 -.402E+00   0.418E-02 0.255E-02 -.132E+00
   -.601E+00 0.540E+00 0.264E+04   0.654E+00 -.529E+00 -.264E+04   0.170E-01 -.249E-01 -.296E+00   -.683E-01 0.212E-01 -.153E+00
   -.167E+00 -.791E+00 0.264E+04   0.131E+00 0.831E+00 -.264E+04   0.131E-01 0.272E-01 -.296E+00   0.176E-01 -.687E-01 -.153E+00
   0.167E+00 -.791E+00 0.264E+04   -.131E+00 0.831E+00 -.264E+04   -.131E-01 0.272E-01 -.296E+00   -.158E-01 -.697E-01 -.153E+00
   0.196E-04 -.415E-04 0.264E+04   0.166E-03 -.201E-04 -.264E+04   0.482E-18 0.158E-17 -.467E+00   -.457E-02 -.236E-02 -.212E+00
   0.749E+01 0.432E+01 0.873E+03   -.748E+01 -.432E+01 -.873E+03   -.202E+00 -.117E+00 -.489E+00   0.160E+00 0.925E-01 0.370E+00
   0.146E-04 0.411E+01 0.881E+03   0.148E-03 -.430E+01 -.881E+03   -.591E-09 -.888E-02 -.580E+00   0.354E-02 0.144E+00 0.434E+00
   -.749E+01 0.432E+01 0.873E+03   0.748E+01 -.432E+01 -.873E+03   0.202E+00 -.117E+00 -.489E+00   -.161E+00 0.932E-01 0.368E+00
   0.356E+01 -.205E+01 0.881E+03   -.372E+01 0.215E+01 -.881E+03   -.769E-02 0.444E-02 -.580E+00   0.127E+00 -.689E-01 0.434E+00
   -.356E+01 -.205E+01 0.881E+03   0.372E+01 0.215E+01 -.881E+03   0.769E-02 0.444E-02 -.580E+00   -.120E+00 -.695E-01 0.432E+00
   0.315E-04 0.527E+01 0.878E+03   0.236E-03 -.533E+01 -.878E+03   0.122E-08 0.184E-01 -.385E+00   -.170E-02 -.455E-02 0.329E+00
   -.214E-04 -.865E+01 0.873E+03   0.163E-03 0.864E+01 -.873E+03   0.155E-07 0.234E+00 -.489E+00   -.176E-03 -.186E+00 0.368E+00
   0.456E+01 -.263E+01 0.878E+03   -.462E+01 0.267E+01 -.878E+03   0.159E-01 -.918E-02 -.385E+00   -.455E-02 0.123E-02 0.329E+00
   -.456E+01 -.263E+01 0.878E+03   0.462E+01 0.267E+01 -.878E+03   -.159E-01 -.918E-02 -.385E+00   0.475E-02 0.249E-02 0.329E+00
   -.430E-04 0.365E+01 -.924E+03   0.546E-04 -.372E+01 0.922E+03   -.303E-08 -.456E-01 0.648E+00   0.510E-02 0.642E-01 0.894E+00
   0.592E+01 0.342E+01 -.877E+03   -.600E+01 -.346E+01 0.876E+03   -.679E+00 -.392E+00 -.573E+00   0.456E+00 0.263E+00 0.132E+01
   -.592E+01 0.342E+01 -.877E+03   0.600E+01 -.346E+01 0.876E+03   0.679E+00 -.392E+00 -.573E+00   -.464E+00 0.264E+00 0.132E+01
   -.752E+01 0.434E+01 -.902E+03   0.671E+01 -.387E+01 0.900E+03   0.538E+00 -.311E+00 0.818E+00   0.318E+00 -.185E+00 0.887E+00
   -.107E-04 -.684E+01 -.877E+03   0.140E-03 0.693E+01 0.876E+03   0.522E-07 0.784E+00 -.573E+00   -.369E-02 -.534E+00 0.132E+01
   0.752E+01 0.434E+01 -.902E+03   -.671E+01 -.387E+01 0.900E+03   -.538E+00 -.311E+00 0.818E+00   -.317E+00 -.183E+00 0.886E+00
   -.316E+01 -.183E+01 -.924E+03   0.323E+01 0.186E+01 0.922E+03   0.395E-01 0.228E-01 0.648E+00   -.512E-01 -.296E-01 0.893E+00
   0.316E+01 -.183E+01 -.924E+03   -.323E+01 0.186E+01 0.922E+03   -.395E-01 0.228E-01 0.648E+00   0.585E-01 -.276E-01 0.894E+00
   0.106E-04 -.868E+01 -.902E+03   0.198E-03 0.774E+01 0.900E+03   0.414E-07 0.622E+00 0.818E+00   -.154E-02 0.368E+00 0.887E+00
   -.132E-04 -.124E-04 -.261E+04   0.294E-04 0.329E-04 0.261E+04   -.250E-17 -.278E-17 0.505E+00   0.158E-02 0.895E-03 0.556E+00
   0.215E+02 0.364E+02 -.262E+04   -.212E+02 -.362E+02 0.262E+04   -.823E+00 -.112E+01 0.685E+00   0.317E+00 0.549E+00 0.402E+00
   -.215E+02 0.364E+02 -.262E+04   0.212E+02 -.362E+02 0.262E+04   0.823E+00 -.112E+01 0.685E+00   -.324E+00 0.550E+00 0.403E+00
   0.423E+02 0.428E+00 -.262E+04   -.419E+02 -.261E+00 0.262E+04   -.139E+01 -.150E+00 0.685E+00   0.634E+00 -.295E-04 0.402E+00
   -.423E+02 0.428E+00 -.262E+04   0.419E+02 -.261E+00 0.262E+04   0.139E+01 -.150E+00 0.685E+00   -.641E+00 0.119E-02 0.404E+00
   0.208E+02 -.369E+02 -.262E+04   -.207E+02 0.364E+02 0.262E+04   -.562E+00 0.127E+01 0.685E+00   0.315E+00 -.555E+00 0.403E+00
   -.208E+02 -.369E+02 -.262E+04   0.207E+02 0.364E+02 0.262E+04   0.562E+00 0.127E+01 0.685E+00   -.319E+00 -.555E+00 0.404E+00
   0.339E-04 -.300E-04 -.262E+04   0.141E-03 -.486E-04 0.261E+04   0.510E-17 0.700E-17 0.572E+00   -.323E-02 -.157E-02 0.610E+00
   -.102E-04 -.736E-05 -.146E+04   0.737E-04 0.671E-05 0.146E+04   0.235E-17 -.234E-17 0.125E+01   0.134E-02 0.803E-03 0.319E+00
   0.463E-04 -.289E-04 -.116E+04   0.166E-04 0.104E-05 0.117E+04   -.595E-19 -.592E-18 -.961E+01   0.836E-03 0.503E-03 -.479E+00
 -----------------------------------------------------------------------------------------------
   -.742E-03 -.800E-03 -.632E+01   -.705E-13 0.247E-13 -.387E-11   -.215E-15 -.662E-15 -.809E+01   -.876E-02 -.448E-02 0.147E+02
 
 
 POSITION                                       TOTAL-FORCE (eV/Angst)
 -----------------------------------------------------------------------------------
      0.00000      0.00000      5.28038         0.000000      0.000000     -0.042977
      2.93784      0.00000      5.28038         0.003822     -0.004494     -0.047444
      5.87568      0.00000      5.28038        -0.003822     -0.004494     -0.047444
      1.46892      2.54424      5.28038        -0.001981      0.005556     -0.047444
      4.40676      2.54424      5.28038         0.000000      0.000000     -0.086008
      7.34459      2.54424      5.28038         0.001981      0.005556     -0.047444
      2.93784      5.08848      5.28038        -0.005802     -0.001063     -0.047444
      5.87568      5.08848      5.28038         0.005802     -0.001063     -0.047444
      8.81351      5.08848      5.28038         0.000000      0.000000     -0.031068
      1.46892      0.84808      7.67911        -0.036099     -0.020842      0.114028
      4.40676      0.84808      7.67911        -0.000000     -0.058066     -0.002473
      7.34459      0.84808      7.67911         0.036099     -0.020842      0.114028
      2.93784      3.39232      7.67911        -0.050286      0.029033     -0.002473
      5.87568      3.39232      7.67911         0.050286      0.029033     -0.002473
      8.81351      3.39232      7.67911        -0.000000     -0.055544      0.101599
      4.40676      5.93656      7.67911         0.000000      0.041683      0.114028
      7.34459      5.93656      7.67911        -0.048103      0.027772      0.101599
     10.28243      5.93656      7.67911         0.048103      0.027772      0.101599
      8.81351      1.70659     10.09931        -0.000000     -0.054814     -0.014612
      2.93410      1.69400     10.03753        -0.292761     -0.169026     -0.285887
      5.87941      1.69400     10.03753         0.292761     -0.169026     -0.285887
     10.26439      4.25082     10.06692         0.041072     -0.023713      0.040849
      4.40676      4.24472     10.03753         0.000000      0.338051     -0.285887
      7.36264      4.25082     10.06692        -0.041072     -0.023713      0.040849
     11.74232      6.77943     10.09931         0.047470      0.027407     -0.014612
      5.88471      6.77943     10.09931        -0.047470      0.027407     -0.014612
      8.81351      6.76381     10.06692         0.000000      0.047426      0.040849
      0.00000      0.00000     12.49835         0.000000      0.000000     -0.082434
      2.98825      0.08685     12.53577        -0.141881     -0.284052     -0.171266
      5.82526      0.08685     12.53577         0.141881     -0.284052     -0.171266
      1.56934      2.54447     12.53577        -0.316937      0.019154     -0.171266
      7.24417      2.54447     12.53577         0.316937      0.019154     -0.171266
      2.98785      5.00140     12.53577        -0.175056      0.264898     -0.171266
      5.82567      5.00140     12.53577         0.175056      0.264898     -0.171266
      8.81351      5.08848     12.49628         0.000000      0.000000      0.003040
      4.40676      2.54424     12.20474         0.000000      0.000000      1.656317
      4.40676      2.54424     13.97702         0.000000      0.000000      0.034876
 -----------------------------------------------------------------------------------
    total drift:                               -0.009502     -0.005276      0.255363


--------------------------------------------------------------------------------------------------------



  FREE ENERGIE OF THE ION-ELECTRON SYSTEM (eV)
  ---------------------------------------------------
  free  energy   TOTEN  =      -123.54290868 eV

  energy  without entropy=     -123.54290868  energy(sigma->0) =     -123.54290868
 


--------------------------------------------------------------------------------------------------------


    POTLOK:  cpu time    0.0554: real time    0.0554


--------------------------------------------------------------------------------------------------------


 stress matrix after NEB project (eV)
    -20.41311     -0.00000     -0.00000
     -0.00000    -20.41311      0.00000
      0.00000      0.00000      1.94249
  FORCES: max atom, RMS     0.034876    0.005734
  FORCE total and by dimension    0.034876    0.034876
  Stress total and by dimension   28.933779   20.413113
     LOOP+:  cpu time   95.4646: real time   95.4793
 -----------------------------------------------------------------------------
|                                                                             |
|           W    W    AA    RRRRR   N    N  II  N    N   GGGG   !!!           |
|           W    W   A  A   R    R  NN   N  II  NN   N  G    G  !!!           |
|           W    W  A    A  R    R  N N  N  II  N N  N  G       !!!           |
|           W WW W  AAAAAA  RRRRR   N  N N  II  N  N N  G  GGG   !            |
|           WW  WW  A    A  R   R   N   NN  II  N   NN  G    G                |
|           W    W  A    A  R    R  N    N  II  N    N   GGGG   !!!           |
|                                                                             |
|     Tetrahedron method does not include variations of the Fermi             |
|     occupations, so forces and stress will be inaccurate. We suggest        |
|     using a different smearing scheme ISMEAR = 1 or 2 for metals in         |
|     relaxations.                                                            |
|                                                                             |
 -----------------------------------------------------------------------------

    4ORBIT:  cpu time    0.0000: real time    0.0000



 total charge

# of ion       s       p       d       tot
------------------------------------------
    1        0.545   0.241   8.764   9.550
    2        0.545   0.241   8.764   9.550
    3        0.545   0.241   8.764   9.550
    4        0.545   0.241   8.764   9.550
    5        0.541   0.241   8.764   9.546
    6        0.545   0.241   8.764   9.550
    7        0.545   0.241   8.764   9.550
    8        0.545   0.241   8.764   9.550
    9        0.541   0.241   8.767   9.549
   10        0.519   0.308   8.771   9.598
   11        0.520   0.310   8.776   9.606
   12        0.519   0.308   8.771   9.598
   13        0.520   0.310   8.776   9.606
   14        0.520   0.310   8.776   9.606
   15        0.515   0.309   8.775   9.599
   16        0.519   0.308   8.771   9.598
   17        0.515   0.309   8.775   9.599
   18        0.515   0.309   8.775   9.599
   19        0.517   0.294   8.775   9.586
   20        0.547   0.337   8.752   9.637
   21        0.547   0.337   8.752   9.637
   22        0.509   0.308   8.776   9.593
   23        0.547   0.337   8.752   9.637
   24        0.509   0.308   8.776   9.593
   25        0.517   0.294   8.775   9.586
   26        0.517   0.294   8.775   9.586
   27        0.509   0.308   8.776   9.593
   28        0.542   0.225   8.760   9.527
   29        0.553   0.249   8.751   9.552
   30        0.553   0.249   8.751   9.552
   31        0.553   0.249   8.751   9.552
   32        0.553   0.249   8.751   9.552
   33        0.553   0.249   8.751   9.552
   34        0.553   0.249   8.751   9.552
   35        0.537   0.226   8.759   9.523
   36        0.575   0.511   4.978   6.063
   37        1.006   1.230   0.000   2.236
--------------------------------------------------
tot         20.255  11.452 311.757 343.464
 
 BZINTS: Fermi energy:    0.139656;  396.000000 electrons
         Band energy:-0.142943E+04;  BLOECHL correction:   -0.055612

 total amount of memory used by VASP MPI-rank0   130544. kBytes
=======================================================================

   base      :      30000. kBytes
   nonlr-proj:      14421. kBytes
   fftplans  :       4808. kBytes
   grid      :      19857. kBytes
   one-center:        575. kBytes
   wavefun   :      60883. kBytes
 
  
  
 General timing and accounting informations for this job:
 ========================================================
  
                  Total CPU time used (sec):      103.304
                            User time (sec):       99.803
                          System time (sec):        3.501
                         Elapsed time (sec):      103.651
  
                   Maximum memory used (kb):      395920.
                   Average memory used (kb):          N/A
  
                          Minor page faults:        71583
                          Major page faults:            0
                 Voluntary context switches:         5611
