PROCAR new format
# of k-points:   10         # of bands:  252         # of ions:   37

 k-point     1 :    0.00000000 0.00000000 0.00000000     weight = 0.01562500

band     1 # energy   -9.31426295 # occ.  2.00000000
 
ion      s      p      d    tot
    1  0.000  0.000  0.000  0.000
    2  0.000  0.000  0.000  0.000
    3  0.000  0.000  0.000  0.000
    4  0.000  0.000  0.000  0.000
    5  0.000  0.000  0.000  0.000
    6  0.000  0.000  0.000  0.000
    7  0.000  0.000  0.000  0.000
    8  0.000  0.000  0.000  0.000
    9  0.000  0.000  0.000  0.000
   10  0.002  0.000  0.000  0.002
   11  0.002  0.000  0.000  0.002
   12  0.002  0.000  0.000  0.002
   13  0.002  0.000  0.000  0.002
   14  0.002  0.000  0.000  0.002
   15  0.001  0.000  0.000  0.001
   16  0.002  0.000  0.000  0.002
   17  0.001  0.000  0.000  0.001
   18  0.001  0.000  0.000  0.001
   19  0.003  0.000  0.000  0.003
   20  0.012  0.001  0.004  0.016
   21  0.012  0.001  0.004  0.016
   22  0.003  0.000  0.000  0.003
   23  0.012  0.001  0.004  0.016
   24  0.003  0.000  0.000  0.003
   25  0.003  0.000  0.000  0.003
   26  0.003  0.000  0.000  0.003
   27  0.003  0.000  0.000  0.003
   28  0.001  0.000  0.000  0.001
   29  0.005  0.001  0.001  0.007
   30  0.005  0.000  0.001  0.007
   31  0.005  0.001  0.001  0.007
   32  0.005  0.000  0.001  0.007
   33  0.005  0.001  0.001  0.007
   34  0.005  0.000  0.001  0.007
   35  0.001  0.000  0.000  0.001
   36  0.135  0.031  0.127  0.292
   37  0.323  0.023  0.000  0.345
tot    0.558  0.060  0.146  0.763
 
band     2 # energy   -8.59160660 # occ.  2.00000000
 
ion      s      p      d    tot
    1  0.007  0.001  0.000  0.008
    2  0.007  0.001  0.000  0.008
    3  0.007  0.001  0.000  0.008
    4  0.007  0.001  0.000  0.008
    5  0.007  0.001  0.000  0.008
    6  0.007  0.001  0.000  0.008
    7  0.007  0.001  0.000  0.008
    8  0.007  0.001  0.000  0.008
    9  0.007  0.001  0.000  0.008
   10  0.026  0.000  0.000  0.026
   11  0.027  0.000  0.000  0.028
   12  0.026  0.000  0.000  0.026
   13  0.027  0.000  0.000  0.028
   14  0.027  0.000  0.000  0.028
   15  0.027  0.000  0.000  0.027
   16  0.026  0.000  0.000  0.026
   17  0.027  0.000  0.000  0.027
   18  0.027  0.000  0.000  0.027
   19  0.019  0.000  0.000  0.019
   20  0.017  0.001  0.001  0.019
   21  0.017  0.001  0.001  0.019
   22  0.021  0.000  0.000  0.021
   23  0.017  0.001  0.001  0.019
   24  0.021  0.000  0.000  0.021
   25  0.019  0.000  0.000  0.019
   26  0.019  0.000  0.000  0.019
   27  0.021  0.000  0.000  0.021
   28  0.003  0.000  0.000  0.003
   29  0.002  0.000  0.000  0.003
   30  0.002  0.000  0.000  0.003
   31  0.002  0.000  0.000  0.003
   32  0.002  0.000  0.000  0.003
   33  0.002  0.000  0.000  0.003
   34  0.002  0.000  0.000  0.003
   35  0.003  0.000  0.000  0.003
   36  0.004  0.011  0.023  0.039
   37  0.056  0.003  0.000  0.059
tot    0.550  0.027  0.031  0.608
 
band     3 # energy   -7.45794228 # occ.  2.00000000
 
ion      s      p      d    tot
    1  0.017  0.000  0.001  0.018
    2  0.016  0.000  0.001  0.018
    3  0.016  0.000  0.001  0.018
    4  0.016  0.000  0.001  0.018
    5  0.016  0.000  0.001  0.017
    6  0.016  0.000  0.001  0.018
    7  0.016  0.000  0.001  0.018
    8  0.016  0.000  0.001  0.018
    9  0.016  0.000  0.001  0.017
   10  0.010  0.001  0.002  0.013
   11  0.008  0.002  0.003  0.013
   12  0.010  0.001  0.002  0.013
   13  0.008  0.002  0.003  0.013
   14  0.008  0.002  0.003  0.013
   15  0.008  0.002  0.002  0.012
   16  0.010  0.001  0.002  0.013
   17  0.008  0.002  0.002  0.012
   18  0.008  0.002  0.002  0.012
   19  0.014  0.001  0.004  0.019
   20  0.014  0.001  0.004  0.019
   21  0.014  0.001  0.004  0.019
   22  0.017  0.001  0.004  0.022
   23  0.014  0.001  0.004  0.019
   24  0.017  0.001  0.004  0.022
   25  0.014  0.001  0.004  0.019
   26  0.014  0.001  0.004  0.019
   27  0.017  0.001  0.004  0.022
   28  0.014  0.000  0.000  0.014
   29  0.012  0.001  0.001  0.014
   30  0.012  0.001  0.001  0.014
   31  0.012  0.001  0.001  0.014
   32  0.012  0.001  0.001  0.014
   33  0.012  0.001  0.001  0.014
   34  0.012  0.001  0.001  0.014
   35  0.014  0.001  0.000  0.015
   36  0.002  0.006  0.017  0.025
   37  0.021  0.001  0.000  0.022
tot    0.483  0.038  0.089  0.610
 
band     4 # energy   -6.58159910 # occ.  2.00000000
 
ion      s      p      d    tot
    1  0.001  0.000  0.010  0.012
    2  0.007  0.000  0.008  0.015
    3  0.007  0.000  0.008  0.015
    4  0.007  0.000  0.008  0.015
    5  0.003  0.000  0.005  0.008
    6  0.007  0.000  0.008  0.014
    7  0.007  0.000  0.008  0.015
    8  0.007  0.000  0.008  0.014
    9  0.026  0.001  0.002  0.029
   10  0.008  0.001  0.015  0.024
   11  0.011  0.002  0.007  0.020
   12  0.009  0.001  0.015  0.024
   13  0.011  0.002  0.007  0.020
   14  0.011  0.002  0.007  0.020
   15  0.007  0.001  0.010  0.019
   16  0.009  0.001  0.015  0.024
   17  0.007  0.001  0.010  0.019
   18  0.007  0.001  0.010  0.019
   19  0.000  0.001  0.016  0.017
   20  0.024  0.002  0.015  0.041
   21  0.025  0.002  0.015  0.041
   22  0.006  0.002  0.005  0.012
   23  0.025  0.002  0.015  0.041
   24  0.006  0.002  0.005  0.012
   25  0.000  0.001  0.017  0.018
   26  0.000  0.001  0.016  0.017
   27  0.006  0.002  0.005  0.012
   28  0.012  0.000  0.002  0.014
   29  0.009  0.000  0.008  0.017
   30  0.009  0.000  0.008  0.017
   31  0.009  0.000  0.008  0.017
   32  0.009  0.000  0.008  0.017
   33  0.009  0.000  0.008  0.017
   34  0.009  0.000  0.008  0.017
   35  0.020  0.000  0.003  0.023
   36  0.000  0.004  0.009  0.013
   37  0.001  0.000  0.000  0.001
tot    0.325  0.034  0.328  0.688
 
band     5 # energy   -6.57692406 # occ.  2.00000000
 
ion      s      p      d    tot
    1  0.000  0.000  0.007  0.008
    2  0.003  0.001  0.003  0.007
    3  0.005  0.001  0.003  0.009
    4  0.004  0.001  0.003  0.008
    5  0.000  0.001  0.006  0.007
    6  0.000  0.000  0.002  0.003
    7  0.006  0.001  0.003  0.009
    8  0.000  0.000  0.002  0.003
    9  0.000  0.000  0.001  0.001
   10  0.000  0.000  0.032  0.032
   11  0.036  0.002  0.015  0.053
   12  0.025  0.002  0.012  0.039
   13  0.037  0.001  0.015  0.053
   14  0.000  0.004  0.025  0.029
   15  0.001  0.001  0.009  0.011
   16  0.025  0.002  0.012  0.039
   17  0.001  0.001  0.009  0.011
   18  0.000  0.003  0.004  0.007
   19  0.007  0.001  0.010  0.018
   20  0.000  0.002  0.037  0.039
   21  0.052  0.001  0.018  0.071
   22  0.013  0.001  0.010  0.024
   23  0.051  0.001  0.019  0.071
   24  0.000  0.000  0.027  0.028
   25  0.000  0.004  0.003  0.007
   26  0.007  0.001  0.010  0.019
   27  0.013  0.001  0.010  0.024
   28  0.000  0.000  0.001  0.001
   29  0.000  0.000  0.002  0.003
   30  0.005  0.001  0.004  0.010
   31  0.000  0.000  0.002  0.002
   32  0.005  0.001  0.004  0.010
   33  0.005  0.001  0.004  0.010
   34  0.005  0.001  0.004  0.010
   35  0.000  0.000  0.004  0.004
   36  0.000  0.003  0.010  0.013
   37  0.000  0.000  0.000  0.000
tot    0.306  0.043  0.345  0.694
 
band     6 # energy   -6.57690083 # occ.  2.00000000
 
ion      s      p      d    tot
    1  0.000  0.000  0.007  0.008
    2  0.003  0.001  0.002  0.006
    3  0.001  0.000  0.003  0.004
    4  0.003  0.001  0.002  0.005
    5  0.000  0.001  0.006  0.007
    6  0.006  0.001  0.003  0.010
    7  0.001  0.000  0.003  0.004
    8  0.006  0.001  0.003  0.010
    9  0.000  0.000  0.001  0.001
   10  0.034  0.002  0.006  0.042
   11  0.013  0.003  0.022  0.037
   12  0.008  0.001  0.025  0.034
   13  0.012  0.003  0.022  0.037
   14  0.049  0.001  0.011  0.060
   15  0.000  0.002  0.006  0.009
   16  0.009  0.001  0.025  0.034
   17  0.000  0.002  0.006  0.009
   18  0.001  0.000  0.011  0.013
   19  0.002  0.003  0.005  0.011
   20  0.069  0.001  0.012  0.082
   21  0.017  0.002  0.031  0.049
   22  0.004  0.001  0.022  0.027
   23  0.017  0.002  0.030  0.050
   24  0.017  0.002  0.005  0.023
   25  0.009  0.000  0.013  0.022
   26  0.002  0.003  0.005  0.011
   27  0.004  0.001  0.022  0.027
   28  0.000  0.000  0.001  0.001
   29  0.007  0.001  0.005  0.013
   30  0.002  0.001  0.003  0.005
   31  0.007  0.001  0.005  0.013
   32  0.002  0.000  0.003  0.005
   33  0.002  0.001  0.003  0.005
   34  0.002  0.000  0.003  0.005
   35  0.000  0.000  0.004  0.004
   36  0.000  0.003  0.010  0.013
   37  0.000  0.000  0.000  0.000
tot    0.306  0.043  0.345  0.694
 
band     7 # energy   -6.53517118 # occ.  2.00000000
 
ion      s      p      d    tot
    1  0.023  0.000  0.012  0.035
    2  0.014  0.000  0.016  0.030
    3  0.014  0.000  0.016  0.030
    4  0.014  0.000  0.016  0.030
    5  0.016  0.000  0.016  0.033
    6  0.014  0.000  0.016  0.030
    7  0.014  0.000  0.016  0.030
    8  0.014  0.000  0.016  0.030
    9  0.006  0.000  0.018  0.024
   10  0.002  0.000  0.031  0.033
   11  0.004  0.000  0.026  0.030
   12  0.002  0.000  0.031  0.033
   13  0.004  0.000  0.026  0.030
   14  0.004  0.000  0.026  0.030
   15  0.020  0.001  0.018  0.040
   16  0.002  0.000  0.031  0.033
   17  0.020  0.001  0.018  0.040
   18  0.020  0.001  0.018  0.040
   19  0.002  0.000  0.011  0.013
   20  0.009  0.000  0.013  0.022
   21  0.009  0.000  0.013  0.022
   22  0.001  0.001  0.010  0.011
   23  0.009  0.000  0.013  0.022
   24  0.001  0.001  0.010  0.011
   25  0.002  0.000  0.011  0.013
   26  0.002  0.000  0.011  0.013
   27  0.001  0.001  0.010  0.011
   28  0.000  0.000  0.000  0.001
   29  0.000  0.000  0.001  0.002
   30  0.000  0.000  0.001  0.002
   31  0.000  0.000  0.001  0.002
   32  0.000  0.000  0.001  0.002
   33  0.000  0.000  0.001  0.002
   34  0.000  0.000  0.001  0.002
   35  0.002  0.000  0.000  0.003
   36  0.000  0.002  0.001  0.003
   37  0.002  0.000  0.000  0.002
tot    0.248  0.011  0.481  0.741
 
band     8 # energy   -6.51550080 # occ.  2.00000000
 
ion      s      p      d    tot
    1  0.000  0.000  0.000  0.000
    2  0.001  0.000  0.004  0.005
    3  0.001  0.000  0.004  0.005
    4  0.001  0.000  0.004  0.005
    5  0.013  0.001  0.000  0.014
    6  0.001  0.000  0.004  0.005
    7  0.001  0.000  0.004  0.005
    8  0.001  0.000  0.004  0.005
    9  0.002  0.001  0.003  0.005
   10  0.002  0.001  0.011  0.014
   11  0.015  0.001  0.001  0.018
   12  0.002  0.001  0.011  0.014
   13  0.015  0.001  0.001  0.018
   14  0.015  0.001  0.001  0.018
   15  0.008  0.000  0.015  0.024
   16  0.002  0.001  0.011  0.014
   17  0.008  0.000  0.015  0.024
   18  0.008  0.000  0.015  0.024
   19  0.022  0.001  0.011  0.034
   20  0.002  0.001  0.028  0.031
   21  0.002  0.001  0.028  0.031
   22  0.004  0.001  0.019  0.024
   23  0.002  0.001  0.028  0.031
   24  0.004  0.001  0.019  0.024
   25  0.022  0.001  0.011  0.034
   26  0.022  0.001  0.011  0.034
   27  0.004  0.001  0.019  0.024
   28  0.001  0.001  0.014  0.016
   29  0.012  0.000  0.013  0.026
   30  0.012  0.000  0.013  0.026
   31  0.012  0.000  0.013  0.026
   32  0.012  0.000  0.013  0.026
   33  0.012  0.000  0.013  0.026
   34  0.012  0.000  0.013  0.026
   35  0.011  0.000  0.006  0.017
   36  0.015  0.002  0.030  0.047
   37  0.007  0.001  0.000  0.007
tot    0.286  0.029  0.407  0.722
 
band     9 # energy   -6.48401546 # occ.  2.00000000
 
ion      s      p      d    tot
    1  0.014  0.002  0.001  0.016
    2  0.000  0.001  0.005  0.005
    3  0.000  0.001  0.005  0.005
    4  0.000  0.001  0.005  0.005
    5  0.006  0.001  0.002  0.009
    6  0.000  0.001  0.005  0.005
    7  0.000  0.001  0.005  0.005
    8  0.000  0.001  0.005  0.005
    9  0.000  0.000  0.000  0.001
   10  0.025  0.002  0.003  0.030
   11  0.009  0.000  0.026  0.036
   12  0.025  0.002  0.003  0.030
   13  0.009  0.000  0.026  0.036
   14  0.009  0.000  0.026  0.036
   15  0.002  0.002  0.012  0.016
   16  0.025  0.002  0.003  0.030
   17  0.002  0.002  0.012  0.016
   18  0.002  0.002  0.012  0.016
   19  0.009  0.002  0.008  0.020
   20  0.002  0.002  0.025  0.029
   21  0.002  0.002  0.025  0.029
   22  0.022  0.001  0.018  0.041
   23  0.002  0.002  0.025  0.029
   24  0.022  0.001  0.018  0.041
   25  0.009  0.002  0.008  0.020
   26  0.009  0.002  0.008  0.020
   27  0.022  0.001  0.018  0.041
   28  0.023  0.001  0.002  0.026
   29  0.006  0.000  0.007  0.013
   30  0.006  0.000  0.007  0.013
   31  0.006  0.000  0.007  0.013
   32  0.006  0.000  0.007  0.013
   33  0.006  0.000  0.007  0.013
   34  0.006  0.000  0.007  0.013
   35  0.000  0.001  0.012  0.013
   36  0.002  0.001  0.008  0.011
   37  0.004  0.000  0.000  0.004
tot    0.294  0.035  0.373  0.703
 
band    10 # energy   -6.47467869 # occ.  2.00000000
 
ion      s      p      d    tot
    1  0.000  0.001  0.003  0.004
    2  0.004  0.001  0.004  0.009
    3  0.008  0.001  0.004  0.013
    4  0.004  0.001  0.004  0.010
    5  0.000  0.000  0.005  0.005
    6  0.001  0.000  0.003  0.004
    7  0.008  0.001  0.004  0.013
    8  0.000  0.000  0.003  0.004
    9  0.000  0.001  0.011  0.012
   10  0.026  0.000  0.016  0.042
   11  0.002  0.001  0.021  0.024
   12  0.006  0.004  0.007  0.016
   13  0.002  0.001  0.021  0.024
   14  0.008  0.001  0.008  0.017
   15  0.016  0.001  0.033  0.051
   16  0.007  0.003  0.007  0.017
   17  0.015  0.001  0.034  0.050
   18  0.063  0.002  0.006  0.070
   19  0.010  0.001  0.027  0.038
   20  0.001  0.001  0.014  0.015
   21  0.000  0.002  0.012  0.014
   22  0.008  0.003  0.015  0.027
   23  0.000  0.002  0.012  0.014
   24  0.035  0.001  0.012  0.047
   25  0.040  0.002  0.003  0.045
   26  0.010  0.001  0.028  0.038
   27  0.009  0.003  0.015  0.027
   28  0.000  0.000  0.006  0.007
   29  0.000  0.000  0.002  0.002
   30  0.003  0.000  0.002  0.005
   31  0.000  0.000  0.002  0.002
   32  0.004  0.001  0.003  0.007
   33  0.002  0.000  0.002  0.004
   34  0.004  0.001  0.003  0.007
   35  0.000  0.001  0.004  0.004
   36  0.000  0.000  0.001  0.001
   37  0.000  0.000  0.000  0.000
tot    0.297  0.041  0.355  0.693
 
band    11 # energy   -6.47464853 # occ.  2.00000000
 
ion      s      p      d    tot
    1  0.000  0.001  0.003  0.004
    2  0.004  0.001  0.003  0.008
    3  0.001  0.000  0.004  0.005
    4  0.004  0.001  0.003  0.008
    5  0.000  0.000  0.005  0.005
    6  0.008  0.001  0.004  0.014
    7  0.001  0.000  0.004  0.005
    8  0.008  0.001  0.004  0.014
    9  0.000  0.001  0.011  0.012
   10  0.000  0.005  0.004  0.008
   11  0.006  0.001  0.012  0.020
   12  0.020  0.001  0.013  0.034
   13  0.006  0.001  0.012  0.019
   14  0.000  0.002  0.025  0.027
   15  0.047  0.001  0.015  0.063
   16  0.019  0.001  0.013  0.033
   17  0.048  0.001  0.015  0.064
   18  0.000  0.001  0.043  0.044
   19  0.029  0.002  0.011  0.042
   20  0.000  0.002  0.012  0.014
   21  0.001  0.001  0.013  0.015
   22  0.026  0.001  0.013  0.041
   23  0.000  0.001  0.013  0.015
   24  0.000  0.004  0.016  0.020
   25  0.000  0.000  0.035  0.036
   26  0.030  0.002  0.011  0.043
   27  0.026  0.001  0.013  0.040
   28  0.000  0.000  0.006  0.007
   29  0.004  0.001  0.002  0.007
   30  0.002  0.000  0.002  0.005
   31  0.004  0.001  0.002  0.007
   32  0.000  0.000  0.001  0.002
   33  0.002  0.000  0.002  0.005
   34  0.000  0.000  0.001  0.002
   35  0.000  0.001  0.004  0.004
   36  0.000  0.000  0.001  0.001
   37  0.000  0.000  0.000  0.000
tot    0.297  0.041  0.355  0.693
 
band    12 # energy   -6.08333339 # occ.  2.00000000
 
ion      s      p      d    tot
    1  0.000  0.001  0.004  0.005
    2  0.001  0.001  0.005  0.007
    3  0.009  0.001  0.004  0.015
    4  0.001  0.001  0.005  0.007
    5  0.000  0.001  0.010  0.011
    6  0.004  0.001  0.004  0.009
    7  0.009  0.001  0.004  0.015
    8  0.004  0.001  0.004  0.008
    9  0.000  0.000  0.008  0.008
   10  0.000  0.001  0.049  0.050
   11  0.018  0.001  0.020  0.039
   12  0.007  0.001  0.019  0.027
   13  0.018  0.001  0.020  0.039
   14  0.000  0.000  0.050  0.050
   15  0.002  0.000  0.019  0.021
   16  0.007  0.001  0.019  0.027
   17  0.002  0.000  0.019  0.021
   18  0.000  0.001  0.012  0.013
   19  0.003  0.000  0.017  0.020
   20  0.000  0.000  0.081  0.081
   21  0.015  0.001  0.025  0.041
   22  0.004  0.001  0.018  0.024
   23  0.015  0.001  0.026  0.041
   24  0.000  0.001  0.033  0.034
   25  0.000  0.001  0.009  0.010
   26  0.003  0.000  0.017  0.020
   27  0.004  0.001  0.019  0.024
   28  0.000  0.000  0.007  0.007
   29  0.004  0.001  0.005  0.009
   30  0.009  0.001  0.005  0.015
   31  0.004  0.001  0.005  0.010
   32  0.001  0.000  0.004  0.005
   33  0.009  0.001  0.005  0.015
   34  0.001  0.000  0.004  0.005
   35  0.000  0.000  0.002  0.003
   36  0.000  0.003  0.009  0.012
   37  0.000  0.000  0.000  0.000
tot    0.154  0.031  0.565  0.750
 
band    13 # energy   -6.08332949 # occ.  2.00000000
 
ion      s      p      d    tot
    1  0.000  0.001  0.004  0.005
    2  0.009  0.001  0.004  0.014
    3  0.000  0.000  0.004  0.005
    4  0.009  0.001  0.004  0.014
    5  0.000  0.001  0.010  0.011
    6  0.006  0.001  0.005  0.012
    7  0.000  0.000  0.004  0.005
    8  0.006  0.001  0.005  0.012
    9  0.000  0.000  0.008  0.008
   10  0.009  0.002  0.009  0.020
   11  0.006  0.000  0.040  0.047
   12  0.002  0.001  0.039  0.042
   13  0.006  0.000  0.040  0.047
   14  0.024  0.001  0.010  0.036
   15  0.001  0.001  0.014  0.016
   16  0.002  0.001  0.039  0.042
   17  0.001  0.001  0.014  0.016
   18  0.003  0.000  0.022  0.024
   19  0.001  0.001  0.012  0.014
   20  0.020  0.001  0.006  0.028
   21  0.005  0.000  0.063  0.068
   22  0.001  0.001  0.028  0.030
   23  0.005  0.000  0.062  0.067
   24  0.005  0.001  0.014  0.020
   25  0.004  0.000  0.019  0.023
   26  0.001  0.001  0.012  0.013
   27  0.001  0.001  0.028  0.030
   28  0.000  0.000  0.007  0.007
   29  0.005  0.001  0.004  0.010
   30  0.000  0.000  0.004  0.005
   31  0.005  0.001  0.004  0.010
   32  0.008  0.001  0.005  0.015
   33  0.000  0.000  0.004  0.005
   34  0.008  0.001  0.005  0.015
   35  0.000  0.000  0.002  0.003
   36  0.000  0.003  0.009  0.012
   37  0.000  0.000  0.000  0.000
tot    0.154  0.031  0.565  0.750
 
band    14 # energy   -6.07574784 # occ.  2.00000000
 
ion      s      p      d    tot
    1  0.016  0.002  0.001  0.020
    2  0.000  0.001  0.006  0.007
    3  0.000  0.001  0.006  0.007
    4  0.000  0.001  0.006  0.007
    5  0.001  0.000  0.002  0.004
    6  0.000  0.001  0.006  0.007
    7  0.000  0.001  0.006  0.007
    8  0.000  0.001  0.006  0.007
    9  0.007  0.000  0.000  0.008
   10  0.008  0.001  0.010  0.019
   11  0.006  0.001  0.034  0.040
   12  0.008  0.001  0.010  0.019
   13  0.006  0.001  0.034  0.040
   14  0.006  0.001  0.033  0.040
   15  0.000  0.000  0.030  0.031
   16  0.008  0.001  0.010  0.019
   17  0.000  0.000  0.030  0.031
   18  0.000  0.000  0.030  0.031
   19  0.008  0.001  0.005  0.014
   20  0.000  0.000  0.052  0.052
   21  0.000  0.000  0.052  0.052
   22  0.009  0.001  0.031  0.041
   23  0.000  0.000  0.052  0.052
   24  0.009  0.001  0.031  0.041
   25  0.008  0.001  0.005  0.014
   26  0.008  0.001  0.005  0.014
   27  0.009  0.001  0.031  0.041
   28  0.017  0.002  0.000  0.019
   29  0.000  0.001  0.009  0.009
   30  0.000  0.001  0.009  0.009
   31  0.000  0.001  0.009  0.009
   32  0.000  0.001  0.009  0.009
   33  0.000  0.001  0.009  0.009
   34  0.000  0.001  0.009  0.009
   35  0.001  0.001  0.004  0.006
   36  0.005  0.001  0.002  0.008
   37  0.001  0.000  0.000  0.001
tot    0.144  0.027  0.586  0.757
 
band    15 # energy   -6.02306820 # occ.  2.00000000
 
ion      s      p      d    tot
    1  0.001  0.000  0.002  0.002
    2  0.000  0.001  0.009  0.010
    3  0.000  0.001  0.009  0.010
    4  0.000  0.001  0.009  0.010
    5  0.018  0.002  0.000  0.019
    6  0.000  0.001  0.009  0.010
    7  0.000  0.001  0.009  0.010
    8  0.000  0.001  0.009  0.010
    9  0.012  0.002  0.002  0.015
   10  0.002  0.000  0.042  0.045
   11  0.004  0.001  0.021  0.026
   12  0.002  0.000  0.042  0.045
   13  0.004  0.001  0.021  0.026
   14  0.004  0.001  0.021  0.026
   15  0.012  0.002  0.013  0.027
   16  0.002  0.000  0.042  0.045
   17  0.012  0.002  0.013  0.027
   18  0.012  0.002  0.013  0.027
   19  0.005  0.000  0.035  0.041
   20  0.010  0.002  0.014  0.026
   21  0.010  0.002  0.014  0.026
   22  0.003  0.001  0.024  0.027
   23  0.010  0.002  0.014  0.026
   24  0.003  0.001  0.024  0.027
   25  0.005  0.000  0.035  0.041
   26  0.005  0.000  0.035  0.041
   27  0.003  0.001  0.024  0.027
   28  0.000  0.000  0.003  0.003
   29  0.000  0.000  0.007  0.008
   30  0.000  0.000  0.007  0.008
   31  0.000  0.000  0.007  0.008
   32  0.000  0.000  0.007  0.008
   33  0.000  0.000  0.007  0.008
   34  0.000  0.000  0.007  0.008
   35  0.007  0.001  0.001  0.009
   36  0.010  0.007  0.001  0.018
   37  0.007  0.000  0.000  0.007
tot    0.160  0.037  0.555  0.752
 
band    16 # energy   -5.99718064 # occ.  2.00000000
 
ion      s      p      d    tot
    1  0.000  0.001  0.014  0.015
    2  0.001  0.001  0.005  0.006
    3  0.009  0.001  0.004  0.014
    4  0.000  0.001  0.005  0.006
    5  0.000  0.000  0.006  0.006
    6  0.005  0.001  0.005  0.010
    7  0.009  0.001  0.004  0.014
    8  0.005  0.001  0.004  0.010
    9  0.000  0.001  0.006  0.007
   10  0.012  0.000  0.017  0.029
   11  0.000  0.001  0.017  0.018
   12  0.003  0.000  0.029  0.033
   13  0.000  0.001  0.017  0.019
   14  0.000  0.001  0.022  0.023
   15  0.003  0.001  0.048  0.051
   16  0.003  0.000  0.030  0.033
   17  0.003  0.001  0.046  0.050
   18  0.013  0.002  0.006  0.021
   19  0.005  0.001  0.052  0.057
   20  0.000  0.000  0.025  0.026
   21  0.000  0.001  0.023  0.025
   22  0.006  0.001  0.026  0.032
   23  0.000  0.001  0.023  0.025
   24  0.022  0.001  0.018  0.041
   25  0.020  0.001  0.004  0.025
   26  0.005  0.001  0.051  0.056
   27  0.005  0.001  0.026  0.032
   28  0.000  0.001  0.005  0.006
   29  0.002  0.000  0.004  0.006
   30  0.007  0.001  0.002  0.010
   31  0.002  0.000  0.004  0.006
   32  0.002  0.001  0.005  0.007
   33  0.007  0.001  0.002  0.010
   34  0.002  0.001  0.005  0.008
   35  0.000  0.001  0.008  0.009
   36  0.000  0.000  0.003  0.003
   37  0.000  0.000  0.000  0.000
tot    0.148  0.028  0.574  0.750
 
band    17 # energy   -5.99717874 # occ.  2.00000000
 
ion      s      p      d    tot
    1  0.000  0.001  0.014  0.015
    2  0.009  0.001  0.004  0.014
    3  0.001  0.000  0.005  0.006
    4  0.009  0.001  0.004  0.014
    5  0.000  0.000  0.006  0.006
    6  0.005  0.001  0.005  0.011
    7  0.001  0.000  0.005  0.006
    8  0.004  0.001  0.005  0.010
    9  0.000  0.001  0.006  0.007
   10  0.000  0.001  0.033  0.034
   11  0.000  0.001  0.020  0.021
   12  0.009  0.000  0.022  0.031
   13  0.000  0.001  0.020  0.021
   14  0.000  0.001  0.016  0.017
   15  0.010  0.002  0.019  0.031
   16  0.009  0.000  0.021  0.031
   17  0.009  0.002  0.020  0.032
   18  0.000  0.000  0.060  0.061
   19  0.015  0.001  0.019  0.035
   20  0.000  0.002  0.023  0.025
   21  0.000  0.001  0.025  0.025
   22  0.016  0.001  0.021  0.038
   23  0.000  0.001  0.025  0.026
   24  0.000  0.001  0.028  0.029
   25  0.000  0.000  0.067  0.067
   26  0.015  0.001  0.020  0.036
   27  0.017  0.001  0.020  0.038
   28  0.000  0.001  0.005  0.006
   29  0.005  0.001  0.004  0.010
   30  0.000  0.000  0.005  0.006
   31  0.005  0.001  0.004  0.010
   32  0.005  0.001  0.003  0.009
   33  0.000  0.000  0.005  0.006
   34  0.005  0.001  0.003  0.008
   35  0.000  0.001  0.008  0.009
   36  0.000  0.000  0.003  0.003
   37  0.000  0.000  0.000  0.000
tot    0.148  0.028  0.574  0.750
 
band    18 # energy   -5.70710564 # occ.  2.00000000
 
ion      s      p      d    tot
    1  0.010  0.000  0.007  0.017
    2  0.000  0.001  0.017  0.018
    3  0.000  0.001  0.017  0.018
    4  0.000  0.001  0.017  0.018
    5  0.003  0.000  0.002  0.006
    6  0.000  0.001  0.017  0.018
    7  0.000  0.001  0.017  0.017
    8  0.000  0.001  0.017  0.018
    9  0.024  0.001  0.002  0.027
   10  0.001  0.000  0.021  0.022
   11  0.000  0.000  0.024  0.024
   12  0.001  0.000  0.021  0.022
   13  0.000  0.000  0.024  0.024
   14  0.000  0.000  0.024  0.024
   15  0.000  0.000  0.030  0.031
   16  0.001  0.000  0.021  0.022
   17  0.000  0.000  0.030  0.031
   18  0.000  0.000  0.030  0.031
   19  0.000  0.000  0.025  0.026
   20  0.000  0.000  0.037  0.037
   21  0.000  0.000  0.037  0.038
   22  0.000  0.000  0.027  0.027
   23  0.000  0.000  0.037  0.038
   24  0.000  0.000  0.027  0.027
   25  0.000  0.000  0.026  0.026
   26  0.000  0.000  0.025  0.026
   27  0.000  0.000  0.027  0.027
   28  0.001  0.000  0.009  0.010
   29  0.000  0.001  0.019  0.020
   30  0.000  0.001  0.019  0.020
   31  0.000  0.001  0.019  0.020
   32  0.000  0.001  0.019  0.020
   33  0.000  0.001  0.019  0.020
   34  0.000  0.001  0.019  0.020
   35  0.015  0.001  0.000  0.016
   36  0.010  0.000  0.011  0.022
   37  0.000  0.000  0.000  0.000
tot    0.067  0.017  0.739  0.823
 
band    19 # energy   -5.70670271 # occ.  2.00000000
 
ion      s      p      d    tot
    1  0.000  0.000  0.019  0.019
    2  0.006  0.000  0.011  0.017
    3  0.007  0.001  0.007  0.015
    4  0.006  0.000  0.011  0.017
    5  0.000  0.001  0.017  0.018
    6  0.000  0.000  0.010  0.010
    7  0.007  0.001  0.007  0.014
    8  0.000  0.000  0.010  0.010
    9  0.000  0.001  0.004  0.005
   10  0.000  0.000  0.009  0.009
   11  0.001  0.000  0.051  0.052
   12  0.000  0.000  0.020  0.020
   13  0.001  0.000  0.051  0.052
   14  0.000  0.000  0.055  0.055
   15  0.000  0.000  0.018  0.019
   16  0.000  0.000  0.020  0.021
   17  0.000  0.000  0.018  0.018
   18  0.000  0.000  0.009  0.009
   19  0.000  0.000  0.012  0.013
   20  0.000  0.000  0.046  0.046
   21  0.001  0.000  0.081  0.083
   22  0.001  0.000  0.020  0.021
   23  0.001  0.000  0.082  0.083
   24  0.000  0.000  0.028  0.028
   25  0.000  0.000  0.005  0.005
   26  0.000  0.000  0.012  0.013
   27  0.001  0.000  0.020  0.021
   28  0.000  0.001  0.004  0.004
   29  0.000  0.000  0.006  0.006
   30  0.008  0.001  0.012  0.021
   31  0.000  0.000  0.006  0.006
   32  0.006  0.001  0.016  0.022
   33  0.008  0.001  0.012  0.021
   34  0.006  0.001  0.016  0.023
   35  0.000  0.000  0.017  0.017
   36  0.000  0.003  0.012  0.015
   37  0.000  0.000  0.000  0.000
tot    0.060  0.017  0.754  0.831
 
band    20 # energy   -5.70669973 # occ.  2.00000000
 
ion      s      p      d    tot
    1  0.000  0.000  0.019  0.019
    2  0.003  0.001  0.007  0.011
    3  0.002  0.000  0.011  0.013
    4  0.003  0.001  0.007  0.011
    5  0.000  0.001  0.017  0.018
    6  0.009  0.001  0.008  0.018
    7  0.002  0.000  0.011  0.014
    8  0.009  0.001  0.008  0.018
    9  0.000  0.001  0.004  0.005
   10  0.000  0.001  0.024  0.024
   11  0.000  0.000  0.054  0.054
   12  0.000  0.000  0.013  0.013
   13  0.000  0.000  0.054  0.054
   14  0.001  0.000  0.050  0.051
   15  0.000  0.000  0.012  0.012
   16  0.000  0.000  0.013  0.013
   17  0.000  0.000  0.012  0.013
   18  0.000  0.000  0.021  0.021
   19  0.000  0.000  0.008  0.008
   20  0.001  0.000  0.094  0.095
   21  0.000  0.000  0.058  0.059
   22  0.000  0.000  0.025  0.026
   23  0.000  0.000  0.057  0.058
   24  0.001  0.000  0.017  0.019
   25  0.000  0.000  0.015  0.015
   26  0.000  0.000  0.008  0.008
   27  0.000  0.000  0.025  0.026
   28  0.000  0.001  0.004  0.004
   29  0.009  0.001  0.017  0.027
   30  0.001  0.000  0.011  0.012
   31  0.009  0.001  0.017  0.027
   32  0.003  0.001  0.007  0.011
   33  0.001  0.000  0.010  0.012
   34  0.003  0.001  0.007  0.010
   35  0.000  0.000  0.017  0.017
   36  0.000  0.003  0.012  0.015
   37  0.000  0.000  0.000  0.000
tot    0.060  0.017  0.754  0.831
 
band    21 # energy   -5.64992237 # occ.  2.00000000
 
ion      s      p      d    tot
    1  0.009  0.001  0.000  0.009
    2  0.000  0.001  0.014  0.015
    3  0.000  0.001  0.014  0.015
    4  0.000  0.001  0.014  0.015
    5  0.013  0.000  0.010  0.022
    6  0.000  0.001  0.014  0.015
    7  0.000  0.001  0.014  0.015
    8  0.000  0.001  0.014  0.015
    9  0.001  0.000  0.010  0.011
   10  0.000  0.000  0.027  0.027
   11  0.000  0.000  0.030  0.031
   12  0.000  0.000  0.027  0.027
   13  0.000  0.000  0.030  0.031
   14  0.000  0.000  0.031  0.031
   15  0.000  0.000  0.037  0.037
   16  0.000  0.000  0.027  0.027
   17  0.000  0.000  0.037  0.037
   18  0.000  0.000  0.037  0.037
   19  0.000  0.000  0.024  0.025
   20  0.000  0.000  0.028  0.029
   21  0.000  0.000  0.028  0.029
   22  0.001  0.000  0.028  0.029
   23  0.000  0.000  0.028  0.029
   24  0.001  0.000  0.028  0.030
   25  0.000  0.000  0.024  0.025
   26  0.000  0.000  0.024  0.025
   27  0.001  0.000  0.028  0.029
   28  0.017  0.000  0.004  0.022
   29  0.000  0.000  0.020  0.020
   30  0.000  0.000  0.020  0.020
   31  0.000  0.000  0.020  0.020
   32  0.000  0.000  0.020  0.020
   33  0.000  0.000  0.020  0.020
   34  0.000  0.000  0.020  0.020
   35  0.011  0.000  0.007  0.018
   36  0.001  0.002  0.000  0.003