 vasp.6.2.0 18Jan21 (build Jun 12 2021 23:27:24) complex                        
  
 executed on             LinuxIFC date 2022.05.27  05:18:11
 running on   28 total cores
 distrk:  each k-point on   28 cores,    1 groups
 distr:  one band on NCORE=   1 cores,   28 groups


--------------------------------------------------------------------------------------------------------


 INCAR:
   ISMEAR = -5
   SIGMA = 0.1
   ISPIN = 1
   EDIFF = 1.d-5
   EDIFFG = -0.01
   NSW = 0
   NELM = 150
   ENCUT = 500
   ISIF = 2
   IBRION = 2
   LREAL = Auto
   ALGO = Fast
   ICHARG = 11
   LORBIT = 10
   LCHARG = .F.
   LWAVE = .F.

 POTCAR:    PAW_PBE Au 04Oct2007                  
 POTCAR:    PAW_PBE Ta 17Jan2003                  
 POTCAR:    PAW_PBE H 15Jun2001                   
 -----------------------------------------------------------------------------
|                                                                             |
|           W    W    AA    RRRRR   N    N  II  N    N   GGGG   !!!           |
|           W    W   A  A   R    R  NN   N  II  NN   N  G    G  !!!           |
|           W    W  A    A  R    R  N N  N  II  N N  N  G       !!!           |
|           W WW W  AAAAAA  RRRRR   N  N N  II  N  N N  G  GGG   !            |
|           WW  WW  A    A  R   R   N   NN  II  N   NN  G    G                |
|           W    W  A    A  R    R  N    N  II  N    N   GGGG   !!!           |
|                                                                             |
|     For optimal performance we recommend to set                             |
|       NCORE = 2 up to number-of-cores-per-socket                            |
|     NCORE specifies how many cores store one orbital (NPAR=cpu/NCORE).      |
|     This setting can greatly improve the performance of VASP for DFT.       |
|     The default, NCORE=1 might be grossly inefficient on modern             |
|     multi-core architectures or massively parallel machines. Do your        |
|     own testing! More info at https://www.vasp.at/wiki/index.php/NCORE      |
|     Unfortunately you need to use the default for GW and RPA                |
|     calculations (for HF NCORE is supported but not extensively tested      |
|     yet).                                                                   |
|                                                                             |
 -----------------------------------------------------------------------------

 POTCAR:    PAW_PBE Au 04Oct2007                  
   VRHFIN =Au: s1d10                                                                                
   LEXCH  = PE                                                                                      
   EATOM  =   926.0867 eV,   68.0654 Ry                                                             
                                                                                                    
   TITEL  = PAW_PBE Au 04Oct2007                                                                    
   LULTRA =        F    use ultrasoft PP ?                                                          
   IUNSCR =        1    unscreen: 0-lin 1-nonlin 2-no                                               
   RPACOR =    2.330    partial core radius                                                         
   POMASS =  196.966; ZVAL   =   11.000    mass and valenz                                          
   RCORE  =    2.500    outmost cutoff radius                                                       
   RWIGS  =    2.840; RWIGS  =    1.503    wigner-seitz radius (au A)                               
   ENMAX  =  229.943; ENMIN  =  172.457 eV                                                          
   ICORE  =        3    local potential                                                             
   LCOR   =        T    correct aug charges                                                         
   LPAW   =        T    paw PP                                                                      
   EAUG   =  356.670                                                                                
   DEXC   =    0.000                                                                                
   RMAX   =    2.562    core radius for proj-oper                                                   
   RAUG   =    1.300    factor for augmentation sphere                                              
   RDEP   =    2.598    radius for radial grids                                                     
   RDEPT  =    2.193    core radius for aug-charge                                                  
                                                                                                    
   Atomic configuration                                                                             
   16 entries                                                                                       
     n  l   j            E        occ.                                                              
     1  0  0.50    -80748.5001   2.0000                                                             
     2  0  0.50    -14244.7466   2.0000                                                             
     2  1  1.50    -12310.9591   6.0000                                                             
     3  0  0.50     -3362.1768   2.0000                                                             
     3  1  1.50     -2801.5463   6.0000                                                             
     3  2  2.50     -2203.8206  10.0000                                                             
     4  0  0.50      -729.8168   2.0000                                                             
     4  1  1.50      -546.0527   6.0000                                                             
     4  2  2.50      -325.7302  10.0000                                                             
     4  3  3.50       -81.1472  14.0000                                                             
     5  0  0.50      -108.3201   2.0000                                                             
     5  1  1.50       -59.7479   6.0000                                                             
     5  2  2.50        -6.8783  10.0000                                                             
     6  0  0.50        -5.7602   1.0000                                                             
     6  1  1.50        -6.8029   0.0000                                                             
     5  3  2.50        -1.3606   0.0000                                                             
   Description                                                                                      
     l       E           TYP  RCUT    TYP  RCUT                                                     
     2     -6.8782861     23  2.500                                                                 
     2     -8.2388687     23  2.500                                                                 
     0     -5.7601759     23  2.500                                                                 
     0     -0.8493231     23  2.500                                                                 
     1     -2.7211652     23  2.500                                                                 
     1     27.2116520     23  2.500                                                                 
     3     -1.3605826     23  2.500                                                                 
  local pseudopotential read in
  partial core-charges read in
  partial kinetic energy density read in
  atomic valenz-charges read in
  non local Contribution for L=           2  read in
    real space projection operators read in
  non local Contribution for L=           2  read in
    real space projection operators read in
  non local Contribution for L=           0  read in
    real space projection operators read in
  non local Contribution for L=           0  read in
    real space projection operators read in
  non local Contribution for L=           1  read in
    real space projection operators read in
  non local Contribution for L=           1  read in
    real space projection operators read in
    PAW grid and wavefunctions read in
 
   number of l-projection  operators is LMAX  =           6
   number of lm-projection operators is LMMAX =          18
 
 POTCAR:    PAW_PBE Ta 17Jan2003                  
   VRHFIN =Ta:  6s5d                                                                                
   LEXCH  = PE                                                                                      
   EATOM  =   130.6506 eV,    9.6025 Ry                                                             
                                                                                                    
   TITEL  = PAW_PBE Ta 17Jan2003                                                                    
   LULTRA =        F    use ultrasoft PP ?                                                          
   IUNSCR =        1    unscreen: 0-lin 1-nonlin 2-no                                               
   RPACOR =    2.330    partial core radius                                                         
   POMASS =  180.948; ZVAL   =    5.000    mass and valenz                                          
   RCORE  =    2.900    outmost cutoff radius                                                       
   RWIGS  =    2.840; RWIGS  =    1.503    wigner-seitz radius (au A)                               
   ENMAX  =  223.667; ENMIN  =  167.750 eV                                                          
   RCLOC  =    2.205    cutoff for local pot                                                        
   LCOR   =        T    correct aug charges                                                         
   LPAW   =        T    paw PP                                                                      
   EAUG   =  332.075                                                                                
   DEXC   =    0.000                                                                                
   RMAX   =    2.970    core radius for proj-oper                                                   
   RAUG   =    1.300    factor for augmentation sphere                                              
   RDEP   =    3.060    radius for radial grids                                                     
   RDEPT  =    2.354    core radius for aug-charge                                                  
                                                                                                    
   Atomic configuration                                                                             
   16 entries                                                                                       
     n  l   j            E        occ.                                                              
     1  0  0.50    -67341.2807   2.0000                                                             
     2  0  0.50    -11566.9376   2.0000                                                             
     2  1  1.50    -10134.1182   6.0000                                                             
     3  0  0.50     -2648.5620   2.0000                                                             
     3  1  1.50     -2222.6012   6.0000                                                             
     3  2  2.50     -1726.3120  10.0000                                                             
     4  0  0.50      -538.6961   2.0000                                                             
     4  1  1.50      -399.0129   6.0000                                                             
     4  2  2.50      -220.3959  10.0000                                                             
     4  3  3.50       -23.0374  14.0000                                                             
     5  0  0.50       -71.2901   2.0000                                                             
     5  1  1.50       -37.8225   6.0000                                                             
     5  2  2.50        -2.6455   4.0000                                                             
     6  0  0.50        -4.9623   1.0000                                                             
     6  1  1.50        -1.3606   0.0000                                                             
     5  3  2.50        -1.3606   0.0000                                                             
   Description                                                                                      
     l       E           TYP  RCUT    TYP  RCUT                                                     
     2     -2.6455043     23  2.500                                                                 
     2     -0.6258895     23  2.500                                                                 
     0     -4.9622780     23  2.500                                                                 
     0      4.7531321     23  2.500                                                                 
     1     -1.3605826     23  2.900                                                                 
     1     27.2116520     23  2.900                                                                 
  local pseudopotential read in
  partial core-charges read in
  partial kinetic energy density read in
  atomic valenz-charges read in
  non local Contribution for L=           2  read in
    real space projection operators read in
  non local Contribution for L=           2  read in
    real space projection operators read in
  non local Contribution for L=           0  read in
    real space projection operators read in
  non local Contribution for L=           0  read in
    real space projection operators read in
  non local Contribution for L=           1  read in
    real space projection operators read in
  non local Contribution for L=           1  read in
    real space projection operators read in
    PAW grid and wavefunctions read in
 
   number of l-projection  operators is LMAX  =           6
   number of lm-projection operators is LMMAX =          18
 
 POTCAR:    PAW_PBE H 15Jun2001                   
   VRHFIN =H: ultrasoft test                                                                        
   LEXCH  = PE                                                                                      
   EATOM  =    12.4884 eV,    0.9179 Ry                                                             
                                                                                                    
   TITEL  = PAW_PBE H 15Jun2001                                                                     
   LULTRA =        F    use ultrasoft PP ?                                                          
   IUNSCR =        0    unscreen: 0-lin 1-nonlin 2-no                                               
   RPACOR =    0.000    partial core radius                                                         
   POMASS =    1.000; ZVAL   =    1.000    mass and valenz                                          
   RCORE  =    1.100    outmost cutoff radius                                                       
   RWIGS  =    0.700; RWIGS  =    0.370    wigner-seitz radius (au A)                               
   ENMAX  =  250.000; ENMIN  =  200.000 eV                                                          
   RCLOC  =    0.701    cutoff for local pot                                                        
   LCOR   =        T    correct aug charges                                                         
   LPAW   =        T    paw PP                                                                      
   EAUG   =  400.000                                                                                
   RMAX   =    1.123    core radius for proj-oper                                                   
   RAUG   =    1.200    factor for augmentation sphere                                              
   RDEP   =    1.112    radius for radial grids                                                     
   RDEPT  =    0.926    core radius for aug-charge                                                  
                                                                                                    
   Atomic configuration                                                                             
    2 entries                                                                                       
     n  l   j            E        occ.                                                              
     1  0  0.50        -6.4927   1.0000                                                             
     2  1  0.50        -3.4015   0.0000                                                             
   Description                                                                                      
     l       E           TYP  RCUT    TYP  RCUT                                                     
     0     -6.4927494     23  1.100                                                                 
     0      6.8029130     23  1.100                                                                 
     1     -4.0817478     23  1.100                                                                 
  local pseudopotential read in
  atomic valenz-charges read in
  non local Contribution for L=           0  read in
    real space projection operators read in
  non local Contribution for L=           0  read in
    real space projection operators read in
  non local Contribution for L=           1  read in
    real space projection operators read in
    PAW grid and wavefunctions read in
 
   number of l-projection  operators is LMAX  =           3
   number of lm-projection operators is LMMAX =           5
 
 Optimization of the real space projectors (new method)

 maximal supplied QI-value         = 15.12
 optimisation between [QCUT,QGAM] = [ 11.34, 22.83] = [ 36.00,145.93] Ry 
 Optimized for a Real-space Cutoff    1.39 Angstroem

   l    n(q)    QCUT    max X(q) W(low)/X(q) W(high)/X(q)  e(spline) 
   2      9    11.338    60.898    0.39E-03    0.42E-03    0.21E-06
   2      9    11.338    58.894    0.40E-03    0.42E-03    0.22E-06
   0      9    11.338   109.617    0.13E-03    0.20E-04    0.13E-06
   0      9    11.338    75.026    0.13E-03    0.20E-04    0.13E-06
   1      9    11.338    16.344    0.33E-04    0.24E-03    0.18E-06
   1      9    11.338    10.160    0.26E-04    0.19E-03    0.15E-06
 Optimization of the real space projectors (new method)

 maximal supplied QI-value         = 12.85
 optimisation between [QCUT,QGAM] = [ 11.44, 22.87] = [ 36.63,146.51] Ry 
 Optimized for a Real-space Cutoff    1.61 Angstroem

   l    n(q)    QCUT    max X(q) W(low)/X(q) W(high)/X(q)  e(spline) 
   2     10    11.437    62.315    0.14E-03    0.26E-03    0.80E-06
   2     10    11.437    52.185    0.14E-03    0.26E-03    0.80E-06
   0     11    11.437   103.837    0.25E-04    0.17E-04    0.84E-07
   0     11    11.437    59.728    0.20E-04    0.15E-04    0.73E-07
   1     11    11.437    13.958    0.47E-03    0.12E-03    0.89E-06
   1     11    11.437     8.441    0.33E-03    0.88E-04    0.61E-06
 Optimization of the real space projectors (new method)

 maximal supplied QI-value         = 34.20
 optimisation between [QCUT,QGAM] = [ 11.29, 22.57] = [ 35.68,142.71] Ry 
 Optimized for a Real-space Cutoff    1.16 Angstroem

   l    n(q)    QCUT    max X(q) W(low)/X(q) W(high)/X(q)  e(spline) 
   0      8    11.287    19.460    0.40E-03    0.73E-03    0.16E-06
   0      8    11.287    12.209    0.38E-03    0.70E-03    0.15E-06
   1      7    11.287     4.655    0.22E-03    0.25E-04    0.22E-06
  PAW_PBE Au 04Oct2007                  :
 energy of atom  1       EATOM= -926.0867
 kinetic energy error for atom=    0.0042 (will be added to EATOM!!)
  PAW_PBE Ta 17Jan2003                  :
 energy of atom  2       EATOM= -130.6506
 kinetic energy error for atom=    0.0012 (will be added to EATOM!!)
  PAW_PBE H 15Jun2001                   :
 energy of atom  3       EATOM=  -12.4884
 kinetic energy error for atom=    0.0020 (will be added to EATOM!!)
 
 
 POSCAR: Au-Ta-H2
  positions in direct lattice
  velocities in cartesian coordinates
 exchange correlation table for  LEXCH =        8
   RHO(1)=    0.500       N(1)  =     2000
   RHO(2)=  100.500       N(2)  =     4000

 VTST: version 3.2, (02/03/18)

 CHAIN: initializing optimizer
 
 OPT: Using VASP Conjugate-Gradient optimizer
 CHAIN: Read ICHAIN            0
 
 POSCAR: Au-Ta-H2
  positions in direct lattice
  velocities in cartesian coordinates
 


--------------------------------------------------------------------------------------------------------


 ion  position               nearest neighbor table
   1  0.000  0.000  0.238-  16 2.94  12 2.94   6 2.94   8 2.94   7 2.94   3 2.94  10 2.94   4 2.94
                             2 2.94
   2  0.333  0.000  0.238-   9 2.94  11 2.94  17 2.94  10 2.94   8 2.94   4 2.94   5 2.94   1 2.94
                             3 2.94
   3  0.667  0.000  0.238-   7 2.94  18 2.94  12 2.94   1 2.94  11 2.94   5 2.94   6 2.94   9 2.94
                             2 2.94
   4  0.000  0.333  0.238-  10 2.94   6 2.94   5 2.94  13 2.94   2 2.94  15 2.94   9 2.94   1 2.94
                             7 2.94
   5  0.333  0.333  0.238-  13 2.94   7 2.94  11 2.94   4 2.94   2 2.94  14 2.94   3 2.94   8 2.94
                             6 2.94
   6  0.667  0.333  0.238-  15 2.94  14 2.94   1 2.94  12 2.94   4 2.94   9 2.94   8 2.94   3 2.94
                             5 2.94
   7  0.000  0.667  0.238-  18 2.94   3 2.94  16 2.94   5 2.94   1 2.94  13 2.94   8 2.94   4 2.94
                             9 2.94
   8  0.333  0.667  0.238-   9 2.94  17 2.94   1 2.94   2 2.94  14 2.94  16 2.94   6 2.94   7 2.94
                             5 2.94
   9  0.667  0.667  0.238-   2 2.94   8 2.94  17 2.94   6 2.94  15 2.94   4 2.94   3 2.94  18 2.94
                             7 2.94
  10  0.111  0.111  0.346-  20 2.91  11 2.94  17 2.94   2 2.94   4 2.94   1 2.94  12 2.94  16 2.94
                            13 2.94  15 2.94  26 2.96  19 2.96
  11  0.444  0.111  0.346-  20 2.91  21 2.91  13 2.94   2 2.94  10 2.94  17 2.94   5 2.94   3 2.94
                            18 2.94  14 2.94  12 2.94  27 2.94
  12  0.778  0.111  0.346-  21 2.91  16 2.94  18 2.94   1 2.94  14 2.94  15 2.94   3 2.94   6 2.94
                            10 2.94  11 2.94  25 2.96  19 2.96
  13  0.111  0.444  0.346-  23 2.91  20 2.91   5 2.94  18 2.94  11 2.94   7 2.94   4 2.94  16 2.94
                            10 2.94  14 2.94  15 2.94  22 2.94
  14  0.444  0.444  0.346-  21 2.91  23 2.91  15 2.94   6 2.94  12 2.94   8 2.94  17 2.94   5 2.94
                            16 2.94  13 2.94  11 2.94  24 2.94
  15  0.778  0.444  0.346-  24 2.92  22 2.92  14 2.94   6 2.94  17 2.94  12 2.94   9 2.94   4 2.94
                            10 2.94  13 2.94  18 2.94  19 2.95
  16  0.111  0.778  0.346-  23 2.91  18 2.94  12 2.94   7 2.94   1 2.94   8 2.94  13 2.94  10 2.94
                            14 2.94  17 2.94  25 2.96  26 2.96
  17  0.444  0.778  0.346-  27 2.92  24 2.92   9 2.94  15 2.94   2 2.94  10 2.94  11 2.94   8 2.94
                            14 2.94  16 2.94  18 2.94  26 2.95
  18  0.778  0.778  0.346-  22 2.92  27 2.92  16 2.94   7 2.94  13 2.94  12 2.94   3 2.94  11 2.94
                             9 2.94  15 2.94  17 2.94  25 2.95
  19  0.888  0.223  0.455-  24 2.93  22 2.93  21 2.93  20 2.93  28 2.95  15 2.95  26 2.95  25 2.95
                            10 2.96  12 2.96  32 3.06  31 3.06
  20  0.222  0.222  0.453-  36 2.74  10 2.91  11 2.91  13 2.91  26 2.93  19 2.93  23 2.95  21 2.95
                            27 2.95  22 2.95  29 2.99  31 2.99
  21  0.556  0.222  0.453-  36 2.74  12 2.91  14 2.91  11 2.91  25 2.93  19 2.93  20 2.95  23 2.95
                            27 2.95  24 2.95  30 2.99  32 2.99
  22  0.886  0.557  0.454-  24 2.91  27 2.91  18 2.92  15 2.92  25 2.93  19 2.93  13 2.94  23 2.95
                            20 2.95  35 2.96  33 3.03  31 3.03
  23  0.222  0.556  0.453-  36 2.74  16 2.91  13 2.91  14 2.91  25 2.93  26 2.93  20 2.95  21 2.95
                            22 2.95  24 2.95  33 2.99  34 2.99
  24  0.557  0.557  0.454-  27 2.91  22 2.91  15 2.92  17 2.92  26 2.93  19 2.93  14 2.94  21 2.95
                            23 2.95  35 2.96  32 3.03  34 3.03
  25  0.888  0.888  0.455-  22 2.93  27 2.93  23 2.93  21 2.93  28 2.95  18 2.95  19 2.95  26 2.95
                            16 2.96  12 2.96  33 3.06  30 3.06
  26  0.223  0.888  0.455-  27 2.93  24 2.93  20 2.93  23 2.93  28 2.95  17 2.95  19 2.95  25 2.95
                            10 2.96  16 2.96  29 3.06  34 3.06
  27  0.557  0.886  0.454-  24 2.91  22 2.91  17 2.92  18 2.92  26 2.93  25 2.93  11 2.94  20 2.95
                            21 2.95  35 2.96  29 3.03  30 3.03
  28  0.000  0.000  0.563-  25 2.95  19 2.95  26 2.95  34 3.00  32 3.00  33 3.00  30 3.00  31 3.00
                            29 3.00
  29  0.334  0.012  0.567-  30 2.82  31 2.84  36 2.85  35 2.99  20 2.99  28 3.00  27 3.03  26 3.06
                            34 3.16
  30  0.654  0.012  0.567-  29 2.82  32 2.84  36 2.85  35 2.99  21 2.99  28 3.00  27 3.03  25 3.06
                            33 3.16
  31  0.012  0.334  0.567-  33 2.82  29 2.84  36 2.85  35 2.99  20 2.99  28 3.00  22 3.03  19 3.06
                            32 3.16
  32  0.654  0.334  0.567-  34 2.82  30 2.84  36 2.85  35 2.99  21 2.99  28 3.00  24 3.03  19 3.06
                            31 3.16
  33  0.012  0.654  0.567-  31 2.82  34 2.84  36 2.85  35 2.99  23 2.99  28 3.00  22 3.03  25 3.06
                            30 3.16
  34  0.334  0.654  0.567-  32 2.82  33 2.84  36 2.85  35 2.99  23 2.99  28 3.00  24 3.03  26 3.06
                            29 3.16
  35  0.667  0.667  0.563-  24 2.96  27 2.96  22 2.96  29 2.99  34 2.99  32 2.99  31 2.99  30 2.99
                            33 2.99
  36  0.333  0.333  0.550-  37 1.99  38 1.99  20 2.74  23 2.74  21 2.74  33 2.85  31 2.85  29 2.85
                            30 2.85  34 2.85  32 2.85
  37  0.286  0.334  0.637-  38 0.83  36 1.99
  38  0.380  0.334  0.637-  37 0.83  36 1.99
 
  LATTYP: Found a hexagonal cell.
 ALAT       =     8.8135128021
 C/A-ratio  =     2.5184286595
  
  Lattice vectors:
  
 A1 = (  -4.4067569092,  -7.6327256898,   0.0000000000)
 A2 = (   8.8135128021,   0.0000000000,   0.0000000000)
 A3 = (   0.0000000000,   0.0000000000,  22.1962032318)


Analysis of symmetry for initial positions (statically):
=====================================================================
 Subroutine PRICEL returns:
 Original cell was already a primitive cell.
 

 Routine SETGRP: Setting up the symmetry group for a 
 hexagonal supercell.


 Subroutine GETGRP returns: Found  2 space group operations
 (whereof  2 operations were pure point group operations)
 out of a pool of 24 trial point group operations.


The static configuration has the point symmetry C_1h.


Analysis of symmetry for dynamics (positions and initial velocities):
=====================================================================
 Subroutine PRICEL returns:
 Original cell was already a primitive cell.
 

 Routine SETGRP: Setting up the symmetry group for a 
 hexagonal supercell.


 Subroutine GETGRP returns: Found  2 space group operations
 (whereof  2 operations were pure point group operations)
 out of a pool of 24 trial point group operations.


The dynamic configuration has the point symmetry C_1h.


Analysis of constrained symmetry for selective dynamics:
=====================================================================
 Subroutine PRICEL returns:
 Original cell was already a primitive cell.
 

 Routine SETGRP: Setting up the symmetry group for a 
 hexagonal supercell.


 Subroutine GETGRP returns: Found  2 space group operations
 (whereof  2 operations were pure point group operations)
 out of a pool of 24 trial point group operations.


The constrained configuration has the point symmetry C_1h.


 Subroutine INISYM returns: Found  2 space group operations
 (whereof  2 operations are pure point group operations),
 and found     1 'primitive' translations


----------------------------------------------------------------------------------------

                                     Primitive cell                                     

  volume of cell :    1493.1636

  direct lattice vectors                    reciprocal lattice vectors
     8.813512802  0.000000000  0.000000000     0.113462137 -0.065507406  0.000000000
     4.406756909  7.632725690  0.000000000     0.000000000  0.131014796  0.000000000
     0.000000000  0.000000000 22.196203232     0.000000000  0.000000000  0.045052750

  length of vectors
     8.813512802  8.813512802 22.196203232     0.131014796  0.131014796  0.045052750

  position of ions in fractional coordinates (direct lattice)
     0.000000000  0.000000000  0.237895638
     0.333333343  0.000000000  0.237895638
     0.666666687  0.000000000  0.237895638
     1.000000000  0.333333343  0.237895638
     0.333333313  0.333333343  0.237895638
     0.666666687  0.333333343  0.237895638
     1.000000000  0.666666687  0.237895638
     0.333333343  0.666666687  0.237895638
     0.666666627  0.666666687  0.237895638
     0.111111119  0.111111112  0.345965207
     0.444444418  0.111111112  0.345965207
     0.777777791  0.111111112  0.345965207
     0.111111127  0.444444448  0.345965207
     0.444444478  0.444444448  0.345965207
     0.777777731  0.444444448  0.345965207
     0.111111090  0.777777791  0.345965207
     0.444444448  0.777777791  0.345965207
     0.777777851  0.777777791  0.345965207
     0.888414265  0.223171486  0.454944397
     0.221838703  0.221838688  0.452655714
     0.556322654  0.221838688  0.452655714
     0.886428238  0.556785911  0.453611097
     0.221838658  0.556322654  0.452655714
     0.556785911  0.556785911  0.453611097
     0.888414265  0.888414265  0.454944397
     0.223171516  0.888414265  0.454944397
     0.556785851  0.886428238  0.453611097
     0.000000000  0.000000000  0.563183635
     0.334249517  0.011962823  0.566601328
     0.653787689  0.011962823  0.566601328
     0.011962823  0.334249517  0.566601328
     0.653787689  0.334249517  0.566601328
     0.011962823  0.653787689  0.566601328
     0.334249517  0.653787689  0.566601328
     0.666666627  0.666666687  0.563477734
     0.333333313  0.333333343  0.549669651
     0.285979777  0.333745196  0.637246373
     0.380274996  0.333745196  0.637246373

  ion indices of the primitive-cell ions
   primitive index   ion index
                 1           1
                 2           2
                 3           3
                 4           4
                 5           5
                 6           6
                 7           7
                 8           8
                 9           9
                10          10
                11          11
                12          12
                13          13
                14          14
                15          15
                16          16
                17          17
                18          18
                19          19
                20          20
                21          21
                22          22
                23          23
                24          24
                25          25
                26          26
                27          27
                28          28
                29          29
                30          30
                31          31
                32          32
                33          33
                34          34
                35          35
                36          36
                37          37
                38          38

----------------------------------------------------------------------------------------

 
 
 KPOINTS: Automatic mesh                          

Automatic generation of k-mesh.
 Grid dimensions read from file:
 generate k-points for:    8    8    1

 Generating k-lattice:

  Cartesian coordinates                     Fractional coordinates (reciprocal lattice)
     0.014182767 -0.008188426  0.000000000     0.125000000 -0.000000000  0.000000000
     0.000000000  0.016376850  0.000000000     0.000000000  0.125000000  0.000000000
     0.000000000  0.000000000  0.045052750     0.000000000  0.000000000  1.000000000

  Length of vectors
     0.016376850  0.016376850  0.045052750

  Shift w.r.t. Gamma in fractional coordinates (k-lattice)
     0.000000000  0.000000000  0.000000000

 TETIRR: Found    100 inequivalent tetrahedra from      384
 
 Subroutine IBZKPT returns following result:
 ===========================================
 
 Found     21 irreducible k-points:
 
 Following reciprocal coordinates:
            Coordinates               Weight
  0.000000  0.000000  0.000000      1.000000
  0.125000 -0.000000  0.000000      4.000000
  0.000000  0.125000  0.000000      2.000000
  0.250000 -0.000000  0.000000      4.000000
  0.000000  0.250000  0.000000      2.000000
  0.375000  0.000000  0.000000      4.000000
  0.000000  0.375000  0.000000      2.000000
  0.500000 -0.000000  0.000000      2.000000
  0.000000  0.500000  0.000000      1.000000
  0.250000  0.125000  0.000000      2.000000
  0.125000  0.250000  0.000000      4.000000
  0.375000  0.125000  0.000000      4.000000
  0.250000  0.375000  0.000000      4.000000
 -0.125000  0.250000  0.000000      4.000000
  0.500000  0.125000  0.000000      4.000000
  0.375000  0.500000  0.000000      4.000000
 -0.125000  0.375000  0.000000      4.000000
  0.500000  0.250000  0.000000      2.000000
  0.250000  0.500000  0.000000      4.000000
 -0.375000  0.250000  0.000000      4.000000
 -0.250000  0.375000  0.000000      2.000000
 
 Following cartesian coordinates:
            Coordinates               Weight
  0.000000  0.000000  0.000000      1.000000
  0.014183 -0.008188  0.000000      4.000000
  0.000000  0.016377  0.000000      2.000000
  0.028366 -0.016377  0.000000      4.000000
  0.000000  0.032754  0.000000      2.000000
  0.042548 -0.024565  0.000000      4.000000
  0.000000  0.049131  0.000000      2.000000
  0.056731 -0.032754  0.000000      2.000000
  0.000000  0.065507  0.000000      1.000000
  0.028366 -0.000000  0.000000      2.000000
  0.014183  0.024565  0.000000      4.000000
  0.042548 -0.008188  0.000000      4.000000
  0.028366  0.032754  0.000000      4.000000
 -0.014183  0.040942  0.000000      4.000000
  0.056731 -0.016377  0.000000      4.000000
  0.042548  0.040942  0.000000      4.000000
 -0.014183  0.057319  0.000000      4.000000
  0.056731 -0.000000  0.000000      2.000000
  0.028366  0.049131  0.000000      4.000000
 -0.042548  0.057319  0.000000      4.000000
 -0.028366  0.065507  0.000000      2.000000
 


--------------------------------------------------------------------------------------------------------




 Dimension of arrays:
   k-points           NKPTS =     21   k-points in BZ     NKDIM =     21   number of bands    NBANDS=    252
   number of dos      NEDOS =    301   number of ions     NIONS =     38
   non local maximal  LDIM  =      6   non local SUM 2l+1 LMDIM =     18
   total plane-waves  NPLWV = 290304
   max r-space proj   IRMAX =   3455   max aug-charges    IRDMAX=  13433
   dimension x,y,z NGX =    48 NGY =   48 NGZ =  126
   dimension x,y,z NGXF=    96 NGYF=   96 NGZF=  252
   support grid    NGXF=    96 NGYF=   96 NGZF=  252
   ions per type =              35   1   2
   NGX,Y,Z   is equivalent  to a cutoff of   9.05,  9.05,  9.44 a.u.
   NGXF,Y,Z  is equivalent  to a cutoff of  18.11, 18.11, 18.87 a.u.

 SYSTEM =  unknown system                          
 POSCAR =  Au-Ta-H2                                

 Startparameter for this run:
   NWRITE =      2    write-flag & timer
   PREC   = normal    normal or accurate (medium, high low for compatibility)
   ISTART =      0    job   : 0-new  1-cont  2-samecut
   ICHARG =     11    charge: 1-file 2-atom 10-const
   ISPIN  =      1    spin polarized calculation?
   LNONCOLLINEAR =      F non collinear calculations
   LSORBIT =      F    spin-orbit coupling
   INIWAV =      1    electr: 0-lowe 1-rand  2-diag
   LASPH  =      F    aspherical Exc in radial PAW
   METAGGA=      F    non-selfconsistent MetaGGA calc.

 Electronic Relaxation 1
   ENCUT  =  500.0 eV  36.75 Ry    6.06 a.u.  16.07 16.07 40.47*2*pi/ulx,y,z
   ENINI  =  500.0     initial cutoff
   ENAUG  =  400.0 eV  augmentation charge cutoff
   NELM   =    150;   NELMIN=  2; NELMDL= -5     # of ELM steps 
   EDIFF  = 0.1E-04   stopping-criterion for ELM
   LREAL  =      T    real-space projection
   NLSPLINE    = F    spline interpolate recip. space projectors
   LCOMPAT=      F    compatible to vasp.4.4
   GGA_COMPAT  = T    GGA compatible to vasp.4.4-vasp.4.6
   LMAXPAW     = -100 max onsite density
   LMAXMIX     =    2 max onsite mixed and CHGCAR
   VOSKOWN=      0    Vosko Wilk Nusair interpolation
   ROPT   =   -0.00050  -0.00050  -0.00050
 Ionic relaxation
   EDIFFG = -.1E-01   stopping-criterion for IOM
   NSW    =      0    number of steps for IOM
   NBLOCK =      1;   KBLOCK =      1    inner block; outer block 
   IBRION =     -1    ionic relax: 0-MD 1-quasi-New 2-CG
   NFREE  =      1    steps in history (QN), initial steepest desc. (CG)
   ISIF   =      2    stress and relaxation
   IWAVPR =     10    prediction:  0-non 1-charg 2-wave 3-comb
   ISYM   =      2    0-nonsym 1-usesym 2-fastsym
   LCORR  =      T    Harris-Foulkes like correction to forces

   POTIM  = 0.5000    time-step for ionic-motion
   TEIN   =    0.0    initial temperature
   TEBEG  =    0.0;   TEEND  =   0.0 temperature during run
   SMASS  =  -3.00    Nose mass-parameter (am)
   estimated Nose-frequenzy (Omega)   =  0.10E-29 period in steps = 0.13E+47 mass=  -0.178E-26a.u.
   SCALEE = 1.0000    scale energy and forces
   NPACO  =    256;   APACO  = 16.0  distance and # of slots for P.C.
   PSTRESS=    0.0 pullay stress

  Mass of Ions in am
   POMASS = 196.97180.95  1.00
  Ionic Valenz
   ZVAL   =  11.00  5.00  1.00
  Atomic Wigner-Seitz radii
   RWIGS  =  -1.00 -1.00 -1.00
  virtual crystal weights 
   VCA    =   1.00  1.00  1.00
   NELECT =     392.0000    total number of electrons
   NUPDOWN=      -1.0000    fix difference up-down

 DOS related values:
   EMIN   =  10.00;   EMAX   =-10.00  energy-range for DOS
   EFERMI =   0.00
   ISMEAR =    -5;   SIGMA  =   0.10  broadening in eV -4-tet -1-fermi 0-gaus

 Electronic relaxation 2 (details)
   IALGO  =     68    algorithm
   LDIAG  =      T    sub-space diagonalisation (order eigenvalues)
   LSUBROT=      F    optimize rotation matrix (better conditioning)
   TURBO    =      0    0=normal 1=particle mesh
   IRESTART =      0    0=no restart 2=restart with 2 vectors
   NREBOOT  =      0    no. of reboots
   NMIN     =      0    reboot dimension
   EREF     =   0.00    reference energy to select bands
   IMIX   =      4    mixing-type and parameters
     AMIX     =   0.40;   BMIX     =  1.00
     AMIX_MAG =   1.60;   BMIX_MAG =  1.00
     AMIN     =   0.10
     WC   =   100.;   INIMIX=   1;  MIXPRE=   1;  MAXMIX= -45

 Intra band minimization:
   WEIMIN = 0.0000     energy-eigenvalue tresh-hold
   EBREAK =  0.99E-08  absolut break condition
   DEPER  =   0.30     relativ break condition  

   TIME   =   0.40     timestep for ELM

  volume/ion in A,a.u.               =      39.29       265.17
  Fermi-wavevector in a.u.,A,eV,Ry     =   1.048257  1.980918 14.950660  1.098843
  Thomas-Fermi vector in A             =   2.183171
 
 Write flags
   LWAVE        =      F    write WAVECAR
   LDOWNSAMPLE  =      F    k-point downsampling of WAVECAR
   LCHARG       =      F    write CHGCAR
   LVTOT        =      F    write LOCPOT, total local potential
   LVHAR        =      F    write LOCPOT, Hartree potential only
   LELF         =      F    write electronic localiz. function (ELF)
   LORBIT       =     10    0 simple, 1 ext, 2 COOP (PROOUT), +10 PAW based schemes


 Dipole corrections
   LMONO  =      F    monopole corrections only (constant potential shift)
   LDIPOL =      F    correct potential (dipole corrections)
   IDIPOL =      0    1-x, 2-y, 3-z, 4-all directions 
   EPSILON=  1.0000000 bulk dielectric constant

 Exchange correlation treatment:
   GGA     =    --    GGA type
   LEXCH   =     8    internal setting for exchange type
   VOSKOWN=      0    Vosko Wilk Nusair interpolation
   LHFCALC =     F    Hartree Fock is set to
   LHFONE  =     F    Hartree Fock one center treatment
   AEXX    =    0.0000 exact exchange contribution

 Linear response parameters
   LEPSILON=     F    determine dielectric tensor
   LRPA    =     F    only Hartree local field effects (RPA)
   LNABLA  =     F    use nabla operator in PAW spheres
   LVEL    =     F    velocity operator in full k-point grid
   LINTERFAST=   F  fast interpolation
   KINTER  =     0    interpolate to denser k-point grid
   CSHIFT  =0.1000    complex shift for real part using Kramers Kronig
   OMEGAMAX=  -1.0    maximum frequency
   DEG_THRESHOLD= 0.2000000E-02 threshold for treating states as degnerate
   RTIME   =   -0.100 relaxation time in fs
  (WPLASMAI=    0.000 imaginary part of plasma frequency in eV, 0.658/RTIME)
   DFIELD  = 0.0000000 0.0000000 0.0000000 field for delta impulse in time
 
 Orbital magnetization related:
   ORBITALMAG=     F  switch on orbital magnetization
   LCHIMAG   =     F  perturbation theory with respect to B field
   DQ        =  0.001000  dq finite difference perturbation B field
   LLRAUG    =     F  two centre corrections for induced B field



--------------------------------------------------------------------------------------------------------


 Static calculation
 charge density and potential remain constant during run
 non-spin polarized calculation
 RMM-DIIS sequential band-by-band and
  variant of blocked Davidson during initial phase
 perform sub-space diagonalisation
    before iterative eigenvector-optimisation
 no mixing
 using additional bands           56
 real space projection scheme for non local part
 use partial core corrections
 calculate Harris-corrections to forces 
   (improved forces if not selfconsistent)
 use gradient corrections 
 WARNING: stress and forces are not correct
  (second derivative of E(xc) not defined)
 use of overlap-Matrix (Vanderbilt PP)
 Fermi weights with tetrahedron method with Bloechl corrections


--------------------------------------------------------------------------------------------------------


  energy-cutoff  :      500.00
  volume of cell :     1493.16
      direct lattice vectors                 reciprocal lattice vectors
     8.813512802  0.000000000  0.000000000     0.113462137 -0.065507406  0.000000000
     4.406756909  7.632725690  0.000000000     0.000000000  0.131014796  0.000000000
     0.000000000  0.000000000 22.196203232     0.000000000  0.000000000  0.045052750

  length of vectors
     8.813512802  8.813512802 22.196203232     0.131014796  0.131014796  0.045052750


 
 k-points in units of 2pi/SCALE and weight: Automatic mesh                          
   0.00000000  0.00000000  0.00000000       0.016
   0.01418277 -0.00818843  0.00000000       0.062
   0.00000000  0.01637685  0.00000000       0.031
   0.02836553 -0.01637685  0.00000000       0.062
   0.00000000  0.03275370  0.00000000       0.031
   0.04254830 -0.02456528  0.00000000       0.062
   0.00000000  0.04913055  0.00000000       0.031
   0.05673107 -0.03275370  0.00000000       0.031
   0.00000000  0.06550740  0.00000000       0.016
   0.02836553 -0.00000000  0.00000000       0.031
   0.01418277  0.02456527  0.00000000       0.062
   0.04254830 -0.00818843  0.00000000       0.062
   0.02836553  0.03275370  0.00000000       0.062
  -0.01418277  0.04094212  0.00000000       0.062
   0.05673107 -0.01637685  0.00000000       0.062
   0.04254830  0.04094212  0.00000000       0.062
  -0.01418277  0.05731897  0.00000000       0.062
   0.05673107 -0.00000000  0.00000000       0.031
   0.02836553  0.04913055  0.00000000       0.062
  -0.04254830  0.05731898  0.00000000       0.062
  -0.02836553  0.06550740  0.00000000       0.031
 
 k-points in reciprocal lattice and weights: Automatic mesh                          
   0.00000000  0.00000000  0.00000000       0.016
   0.12500000 -0.00000000  0.00000000       0.062
   0.00000000  0.12500000  0.00000000       0.031
   0.25000000 -0.00000000  0.00000000       0.062
   0.00000000  0.25000000  0.00000000       0.031
   0.37500000  0.00000000  0.00000000       0.062
   0.00000000  0.37500000  0.00000000       0.031
   0.50000000 -0.00000000  0.00000000       0.031
   0.00000000  0.50000000  0.00000000       0.016
   0.25000000  0.12500000  0.00000000       0.031
   0.12500000  0.25000000  0.00000000       0.062
   0.37500000  0.12500000  0.00000000       0.062
   0.25000000  0.37500000  0.00000000       0.062
  -0.12500000  0.25000000  0.00000000       0.062
   0.50000000  0.12500000  0.00000000       0.062
   0.37500000  0.50000000  0.00000000       0.062
  -0.12500000  0.37500000  0.00000000       0.062
   0.50000000  0.25000000  0.00000000       0.031
   0.25000000  0.50000000  0.00000000       0.062
  -0.37500000  0.25000000  0.00000000       0.062
  -0.25000000  0.37500000  0.00000000       0.031
 
 position of ions in fractional coordinates (direct lattice) 
   0.00000000  0.00000000  0.23789564
   0.33333334  0.00000000  0.23789564
   0.66666669  0.00000000  0.23789564
   0.00000000  0.33333334  0.23789564
   0.33333331  0.33333334  0.23789564
   0.66666669  0.33333334  0.23789564
   0.00000000  0.66666669  0.23789564
   0.33333334  0.66666669  0.23789564
   0.66666663  0.66666669  0.23789564
   0.11111112  0.11111111  0.34596521
   0.44444442  0.11111111  0.34596521
   0.77777779  0.11111111  0.34596521
   0.11111113  0.44444445  0.34596521
   0.44444448  0.44444445  0.34596521
   0.77777773  0.44444445  0.34596521
   0.11111109  0.77777779  0.34596521
   0.44444445  0.77777779  0.34596521
   0.77777785  0.77777779  0.34596521
   0.88841427  0.22317149  0.45494440
   0.22183870  0.22183869  0.45265571
   0.55632265  0.22183869  0.45265571
   0.88642824  0.55678591  0.45361110
   0.22183866  0.55632265  0.45265571
   0.55678591  0.55678591  0.45361110
   0.88841427  0.88841427  0.45494440
   0.22317152  0.88841427  0.45494440
   0.55678585  0.88642824  0.45361110
   0.00000000  0.00000000  0.56318363
   0.33424952  0.01196282  0.56660133
   0.65378769  0.01196282  0.56660133
   0.01196282  0.33424952  0.56660133
   0.65378769  0.33424952  0.56660133
   0.01196282  0.65378769  0.56660133
   0.33424952  0.65378769  0.56660133
   0.66666663  0.66666669  0.56347773
   0.33333331  0.33333334  0.54966965
   0.28597978  0.33374520  0.63724637
   0.38027500  0.33374520  0.63724637
 
 position of ions in cartesian coordinates  (Angst):
   0.00000000  0.00000000  5.28037993
   2.93783769  0.00000000  5.28037993
   5.87567538  0.00000000  5.28037993
   1.46891901  2.54424197  5.28037993
   4.40675643  2.54424197  5.28037993
   7.34459439  2.54424197  5.28037993
   2.93783803  5.08848395  5.28037993
   5.87567571  5.08848395  5.28037993
   8.81351288  5.08848395  5.28037993
   1.46891893  0.84808064  7.67911405
   4.40675623  0.84808064  7.67911405
   7.34459418  0.84808064  7.67911405
   2.93783798  3.39232256  7.67911405
   5.87567574  3.39232256  7.67911405
   8.81351263  3.39232256  7.67911405
   4.40675667  5.93656453  7.67911405
   7.34459449  5.93656453  7.67911405
  10.28243270  5.93656453  7.67911405
   8.81351299  1.70340673 10.09803830
   2.93276742  1.69323385 10.04723822
   5.88074600  1.69323385 10.04723822
  10.26616678  4.24979413 10.06844409
   4.40675655  4.24625821 10.04723822
   7.36085992  4.24979413 10.06844409
  11.74507620  6.78102238 10.09803830
   5.88195071  6.78102238 10.09803830
   8.81351299  6.76586358 10.06844409
   0.00000000  0.00000000 12.50053841
   2.99862966  0.09130895 12.57639823
   5.81488342  0.09130895 12.57639823
   1.57839087  2.55123488 12.57639823
   7.23512254  2.55123488 12.57639823
   2.98651791  4.99018209 12.57639823
   5.82699582  4.99018209 12.57639823
   8.81351288  5.08848395 12.50706630
   4.40675643  2.54424197 12.20057929
   3.99122037  2.54738553 14.14445001
   4.82229250  2.54738553 14.14445001
 


--------------------------------------------------------------------------------------------------------


 k-point   1 :   0.0000 0.0000 0.0000  plane waves:   37827
 k-point   2 :   0.1250-0.0000 0.0000  plane waves:   37876
 k-point   3 :   0.0000 0.1250 0.0000  plane waves:   37876
 k-point   4 :   0.2500-0.0000 0.0000  plane waves:   37924
 k-point   5 :   0.0000 0.2500 0.0000  plane waves:   37924
 k-point   6 :   0.3750 0.0000 0.0000  plane waves:   37904
 k-point   7 :   0.0000 0.3750 0.0000  plane waves:   37904
 k-point   8 :   0.5000-0.0000 0.0000  plane waves:   37912
 k-point   9 :   0.0000 0.5000 0.0000  plane waves:   37912
 k-point  10 :   0.2500 0.1250 0.0000  plane waves:   37858
 k-point  11 :   0.1250 0.2500 0.0000  plane waves:   37858
 k-point  12 :   0.3750 0.1250 0.0000  plane waves:   37928
 k-point  13 :   0.2500 0.3750 0.0000  plane waves:   37928
 k-point  14 :  -0.1250 0.2500 0.0000  plane waves:   37928
 k-point  15 :   0.5000 0.1250 0.0000  plane waves:   37924
 k-point  16 :   0.3750 0.5000 0.0000  plane waves:   37924
 k-point  17 :  -0.1250 0.3750 0.0000  plane waves:   37924
 k-point  18 :   0.5000 0.2500 0.0000  plane waves:   37926
 k-point  19 :   0.2500 0.5000 0.0000  plane waves:   37926
 k-point  20 :  -0.3750 0.2500 0.0000  plane waves:   37916
 k-point  21 :  -0.2500 0.3750 0.0000  plane waves:   37916

 maximum and minimum number of plane-waves per node :     37928    37827

 maximum number of plane-waves:     37928
 maximum index in each direction: 
   IXMAX=   16   IYMAX=   16   IZMAX=   40
   IXMIN=  -16   IYMIN=  -16   IZMIN=  -40


 serial   3D FFT for wavefunctions
 parallel 3D FFT for charge:
    minimum data exchange during FFTs selected (reduces bandwidth)


 total amount of memory used by VASP MPI-rank0   184106. kBytes
=======================================================================

   base      :      30000. kBytes
   nonlr-proj:      14545. kBytes
   fftplans  :       4330. kBytes
   grid      :      17879. kBytes
   one-center:        590. kBytes
   wavefun   :     116762. kBytes
 
     INWAV:  cpu time    0.0000: real time    0.0000
 initial charge density was supplied:
 number of electron     391.9999977 magnetization 
 keeping initial charge density in first step


--------------------------------------------------------------------------------------------------------


 Maximum index for non-local projection operator         3282
 Maximum index for augmentation-charges          855 (set IRDMAX)


--------------------------------------------------------------------------------------------------------


 First call to EWALD:  gamma=   0.155
 Maximum number of real-space cells 4x 4x 2
 Maximum number of reciprocal cells 2x 2x 5

    FEWALD:  cpu time    0.0013: real time    0.0013


--------------------------------------- Iteration      1(   1)  ---------------------------------------


    POTLOK:  cpu time    0.0535: real time    0.0538
    SETDIJ:  cpu time    0.0055: real time    0.0055
     EDDAV:  cpu time   15.0484: real time   15.0500
 BZINTS: Fermi energy:   11.121259;  392.000000 electrons
         Band energy: 0.149469E+04;  BLOECHL correction:   -0.025134
       DOS:  cpu time    0.0309: real time    0.0309
    --------------------------------------------
      LOOP:  cpu time   15.1383: real time   15.1402

 eigenvalue-minimisations  : 10584
 total energy-change (2. order) : 0.2534693E+04  (-0.1769863E+05)
 number of electron     391.9999977 magnetization 
 augmentation part      391.9999977 magnetization 

 Free energy of the ion-electron system (eV)
  ---------------------------------------------------
  alpha Z        PSCENC =      1003.37689311
  Ewald energy   TEWEN  =     93932.70388291
  -Hartree energ DENC   =   -127721.31329224
  -exchange      EXHF   =         0.00000000
  -V(xc)+E(xc)   XCENC  =       456.71759312
  PAW double counting   =     35587.55566888   -34787.54498654
  entropy T*S    EENTRO =         0.00000000
  eigenvalues    EBANDS =      1494.68870467
  atomic energy  EATOM  =     32568.50842746
  Solvation  Ediel_sol  =         0.00000000
  ---------------------------------------------------
  free energy    TOTEN  =      2534.69289137 eV

  energy without entropy =     2534.69289137  energy(sigma->0) =     2534.69289137


--------------------------------------------------------------------------------------------------------




--------------------------------------- Iteration      1(   2)  ---------------------------------------


     EDDAV:  cpu time   16.3819: real time   16.3821
 BZINTS: Fermi energy:    1.481116;  392.000000 electrons
         Band energy:-0.104396E+04;  BLOECHL correction:   -0.032588
       DOS:  cpu time    0.0283: real time    0.0283
    --------------------------------------------
      LOOP:  cpu time   16.4102: real time   16.4104

 eigenvalue-minimisations  : 11788
 total energy-change (2. order) :-0.2538648E+04  (-0.2331091E+04)
 number of electron     391.9999977 magnetization 
 augmentation part      391.9999977 magnetization 

 Free energy of the ion-electron system (eV)
  ---------------------------------------------------
  alpha Z        PSCENC =      1003.37689311
  Ewald energy   TEWEN  =     93932.70388291
  -Hartree energ DENC   =   -127721.31329224
  -exchange      EXHF   =         0.00000000
  -V(xc)+E(xc)   XCENC  =       456.71759312
  PAW double counting   =     35587.55566888   -34787.54498654
  entropy T*S    EENTRO =         0.00000000
  eigenvalues    EBANDS =     -1043.95942282
  atomic energy  EATOM  =     32568.50842746
  Solvation  Ediel_sol  =         0.00000000
  ---------------------------------------------------
  free energy    TOTEN  =        -3.95523612 eV

  energy without entropy =       -3.95523612  energy(sigma->0) =       -3.95523612


--------------------------------------------------------------------------------------------------------




--------------------------------------- Iteration      1(   3)  ---------------------------------------


     EDDAV:  cpu time   17.0673: real time   17.0674
 BZINTS: Fermi energy:    0.826072;  392.000000 electrons
         Band energy:-0.116258E+04;  BLOECHL correction:   -0.034473
       DOS:  cpu time    0.0283: real time    0.0283
    --------------------------------------------
      LOOP:  cpu time   17.0956: real time   17.0957

 eigenvalue-minimisations  : 12348
 total energy-change (2. order) :-0.1186255E+03  (-0.1145057E+03)
 number of electron     391.9999977 magnetization 
 augmentation part      391.9999977 magnetization 

 Free energy of the ion-electron system (eV)
  ---------------------------------------------------
  alpha Z        PSCENC =      1003.37689311
  Ewald energy   TEWEN  =     93932.70388291
  -Hartree energ DENC   =   -127721.31329224
  -exchange      EXHF   =         0.00000000
  -V(xc)+E(xc)   XCENC  =       456.71759312
  PAW double counting   =     35587.55566888   -34787.54498654
  entropy T*S    EENTRO =         0.00000000
  eigenvalues    EBANDS =     -1162.58493714
  atomic energy  EATOM  =     32568.50842746
  Solvation  Ediel_sol  =         0.00000000
  ---------------------------------------------------
  free energy    TOTEN  =      -122.58075045 eV

  energy without entropy =     -122.58075045  energy(sigma->0) =     -122.58075045


--------------------------------------------------------------------------------------------------------




--------------------------------------- Iteration      1(   4)  ---------------------------------------


     EDDAV:  cpu time   17.0147: real time   17.0148
 BZINTS: Fermi energy:    0.809235;  392.000000 electrons
         Band energy:-0.116494E+04;  BLOECHL correction:   -0.034319
       DOS:  cpu time    0.0291: real time    0.0291
    --------------------------------------------
      LOOP:  cpu time   17.0438: real time   17.0439

 eigenvalue-minimisations  : 12320
 total energy-change (2. order) :-0.2354904E+01  (-0.2349635E+01)
 number of electron     391.9999977 magnetization 
 augmentation part      391.9999977 magnetization 

 Free energy of the ion-electron system (eV)
  ---------------------------------------------------
  alpha Z        PSCENC =      1003.37689311
  Ewald energy   TEWEN  =     93932.70388291
  -Hartree energ DENC   =   -127721.31329224
  -exchange      EXHF   =         0.00000000
  -V(xc)+E(xc)   XCENC  =       456.71759312
  PAW double counting   =     35587.55566888   -34787.54498654
  entropy T*S    EENTRO =         0.00000000
  eigenvalues    EBANDS =     -1164.93984072
  atomic energy  EATOM  =     32568.50842746
  Solvation  Ediel_sol  =         0.00000000
  ---------------------------------------------------
  free energy    TOTEN  =      -124.93565403 eV

  energy without entropy =     -124.93565403  energy(sigma->0) =     -124.93565403


--------------------------------------------------------------------------------------------------------




--------------------------------------- Iteration      1(   5)  ---------------------------------------


     EDDAV:  cpu time   17.7139: real time   17.7142
 BZINTS: Fermi energy:    0.808833;  392.000000 electrons
         Band energy:-0.116499E+04;  BLOECHL correction:   -0.034304
       DOS:  cpu time    0.0291: real time    0.0291
    --------------------------------------------
      LOOP:  cpu time   17.7430: real time   17.7432

 eigenvalue-minimisations  : 12936
 total energy-change (2. order) :-0.5450161E-01  (-0.5448993E-01)
 number of electron     391.9999977 magnetization 
 augmentation part      391.9999977 magnetization 

 Free energy of the ion-electron system (eV)
  ---------------------------------------------------
  alpha Z        PSCENC =      1003.37689311
  Ewald energy   TEWEN  =     93932.70388291
  -Hartree energ DENC   =   -127721.31329224
  -exchange      EXHF   =         0.00000000
  -V(xc)+E(xc)   XCENC  =       456.71759312
  PAW double counting   =     35587.55566888   -34787.54498654
  entropy T*S    EENTRO =         0.00000000
  eigenvalues    EBANDS =     -1164.99434233
  atomic energy  EATOM  =     32568.50842746
  Solvation  Ediel_sol  =         0.00000000
  ---------------------------------------------------
  free energy    TOTEN  =      -124.99015564 eV

  energy without entropy =     -124.99015564  energy(sigma->0) =     -124.99015564


--------------------------------------------------------------------------------------------------------




--------------------------------------- Iteration      1(   6)  ---------------------------------------


    EDDIAG:  cpu time    2.9376: real time    2.9380
  RMM-DIIS:  cpu time    8.2367: real time    8.2367
    ORTHCH:  cpu time    0.5478: real time    0.5478
 BZINTS: Fermi energy:    0.808822;  392.000000 electrons
         Band energy:-0.116500E+04;  BLOECHL correction:   -0.034304
       DOS:  cpu time    0.0290: real time    0.0290
    --------------------------------------------
      LOOP:  cpu time   11.7511: real time   11.7516

 eigenvalue-minimisations  : 10652
 total energy-change (2. order) :-0.1698047E-02  (-0.1698393E-02)
 number of electron     391.9999977 magnetization 
 augmentation part      391.9999977 magnetization 

 Free energy of the ion-electron system (eV)
  ---------------------------------------------------
  alpha Z        PSCENC =      1003.37689311
  Ewald energy   TEWEN  =     93932.70388291
  -Hartree energ DENC   =   -127721.31329224
  -exchange      EXHF   =         0.00000000
  -V(xc)+E(xc)   XCENC  =       456.71759312
  PAW double counting   =     35587.55566888   -34787.54498654
  entropy T*S    EENTRO =         0.00000000
  eigenvalues    EBANDS =     -1164.99604038
  atomic energy  EATOM  =     32568.50842746
  Solvation  Ediel_sol  =         0.00000000
  ---------------------------------------------------
  free energy    TOTEN  =      -124.99185368 eV

  energy without entropy =     -124.99185368  energy(sigma->0) =     -124.99185368


--------------------------------------------------------------------------------------------------------




--------------------------------------- Iteration      1(   7)  ---------------------------------------


    EDDIAG:  cpu time    2.9412: real time    2.9413
  RMM-DIIS:  cpu time   11.4631: real time   11.4631
    ORTHCH:  cpu time    0.5484: real time    0.5484
 BZINTS: Fermi energy:    0.808818;  392.000000 electrons
         Band energy:-0.116500E+04;  BLOECHL correction:   -0.034304
       DOS:  cpu time    0.0290: real time    0.0290
    --------------------------------------------
      LOOP:  cpu time   14.9817: real time   14.9819

 eigenvalue-minimisations  : 14924
 total energy-change (2. order) :-0.5444718E-03  (-0.5433497E-03)
 number of electron     391.9999977 magnetization 
 augmentation part      391.9999977 magnetization 

 Free energy of the ion-electron system (eV)
  ---------------------------------------------------
  alpha Z        PSCENC =      1003.37689311
  Ewald energy   TEWEN  =     93932.70388291
  -Hartree energ DENC   =   -127721.31329224
  -exchange      EXHF   =         0.00000000
  -V(xc)+E(xc)   XCENC  =       456.71759312
  PAW double counting   =     35587.55566888   -34787.54498654
  entropy T*S    EENTRO =         0.00000000
  eigenvalues    EBANDS =     -1164.99658485
  atomic energy  EATOM  =     32568.50842746
  Solvation  Ediel_sol  =         0.00000000
  ---------------------------------------------------
  free energy    TOTEN  =      -124.99239816 eV

  energy without entropy =     -124.99239816  energy(sigma->0) =     -124.99239816


--------------------------------------------------------------------------------------------------------




--------------------------------------- Iteration      1(   8)  ---------------------------------------


    EDDIAG:  cpu time    2.9395: real time    2.9397
  RMM-DIIS:  cpu time    9.3038: real time    9.3038
    ORTHCH:  cpu time    0.5490: real time    0.5490
 BZINTS: Fermi energy:    0.808818;  392.000000 electrons
         Band energy:-0.116500E+04;  BLOECHL correction:   -0.034304
       DOS:  cpu time    0.0278: real time    0.0278
    --------------------------------------------
      LOOP:  cpu time   12.8200: real time   12.8202

 eigenvalue-minimisations  : 11975
 total energy-change (2. order) :-0.3040228E-04  (-0.3005196E-04)
 number of electron     391.9999977 magnetization 
 augmentation part      391.9999977 magnetization 

 Free energy of the ion-electron system (eV)
  ---------------------------------------------------
  alpha Z        PSCENC =      1003.37689311
  Ewald energy   TEWEN  =     93932.70388291
  -Hartree energ DENC   =   -127721.31329224
  -exchange      EXHF   =         0.00000000
  -V(xc)+E(xc)   XCENC  =       456.71759312
  PAW double counting   =     35587.55566888   -34787.54498654
  entropy T*S    EENTRO =         0.00000000
  eigenvalues    EBANDS =     -1164.99661526
  atomic energy  EATOM  =     32568.50842746
  Solvation  Ediel_sol  =         0.00000000
  ---------------------------------------------------
  free energy    TOTEN  =      -124.99242856 eV

  energy without entropy =     -124.99242856  energy(sigma->0) =     -124.99242856


--------------------------------------------------------------------------------------------------------




--------------------------------------- Iteration      1(   9)  ---------------------------------------


    EDDIAG:  cpu time    2.9394: real time    2.9395
  RMM-DIIS:  cpu time    7.1065: real time    7.1065
    ORTHCH:  cpu time    0.5487: real time    0.5487
 BZINTS: Fermi energy:    0.808818;  392.000000 electrons
         Band energy:-0.116500E+04;  BLOECHL correction:   -0.034304
       DOS:  cpu time    0.0290: real time    0.0290
    --------------------------------------------
      LOOP:  cpu time   10.6236: real time   10.6237

 eigenvalue-minimisations  :  7697
 total energy-change (2. order) :-0.4978021E-05  (-0.4941236E-05)
 number of electron     391.9999977 magnetization 
 augmentation part      391.9999977 magnetization 

 Free energy of the ion-electron system (eV)
  ---------------------------------------------------
  alpha Z        PSCENC =      1003.37689311
  Ewald energy   TEWEN  =     93932.70388291
  -Hartree energ DENC   =   -127721.31329224
  -exchange      EXHF   =         0.00000000
  -V(xc)+E(xc)   XCENC  =       456.71759312
  PAW double counting   =     35587.55566888   -34787.54498654
  entropy T*S    EENTRO =         0.00000000
  eigenvalues    EBANDS =     -1164.99662023
  atomic energy  EATOM  =     32568.50842746
  Solvation  Ediel_sol  =         0.00000000
  ---------------------------------------------------
  free energy    TOTEN  =      -124.99243354 eV

  energy without entropy =     -124.99243354  energy(sigma->0) =     -124.99243354


--------------------------------------------------------------------------------------------------------




 average (electrostatic) potential at core
  the test charge radii are     1.2098  1.2538  0.5201
  (the norm of the test charge is              1.0000)
       1 -72.2258       2 -72.2176       3 -72.2176       4 -72.2147       5 -72.1980
       6 -72.2144       7 -72.2146       8 -72.2144       9 -72.2109      10 -72.5722
      11 -72.5252      12 -72.5722      13 -72.5228      14 -72.5226      15 -72.5399
      16 -72.5758      17 -72.5345      18 -72.5346      19 -72.5092      20 -72.9080
      21 -72.9082      22 -72.4968      23 -72.9117      24 -72.4969      25 -72.5038
      26 -72.5037      27 -72.4815      28 -72.2254      29 -72.4136      30 -72.4137
      31 -72.4253      32 -72.4254      33 -72.4232      34 -72.4231      35 -72.2134
      36 -42.0275      37 -37.7803      38 -37.7803
 
 
 
 E-fermi :   0.8088     XC(G=0):  -6.1637     alpha+bet : -5.7668

 Fermi energy:         0.8088177882

 k-point     1 :       0.0000    0.0000    0.0000
  band No.  band energies     occupation 
      1      -8.1119      2.00000
      2      -7.5653      2.00000
      3      -6.7471      2.00000
      4      -5.9313      2.00000
      5      -5.9078      2.00000
      6      -5.9060      2.00000
      7      -5.8694      2.00000
      8      -5.8558      2.00000
      9      -5.8132      2.00000
     10      -5.7976      2.00000
     11      -5.7970      2.00000
     12      -5.4227      2.00000
     13      -5.4219      2.00000
     14      -5.4042      2.00000
     15      -5.3585      2.00000
     16      -5.3221      2.00000
     17      -5.3213      2.00000
     18      -5.0585      2.00000
     19      -5.0554      2.00000
     20      -5.0546      2.00000
     21      -5.0044      2.00000
     22      -4.9765      2.00000
     23      -4.9758      2.00000
     24      -4.8684      2.00000
     25      -4.8410      2.00000
     26      -4.8394      2.00000
     27      -4.8393      2.00000
     28      -4.8368      2.00000
     29      -4.8065      2.00000
     30      -4.7025      2.00000
     31      -4.7017      2.00000
     32      -4.6930      2.00000
     33      -4.6670      2.00000
     34      -4.6455      2.00000
     35      -4.6447      2.00000
     36      -4.6424      2.00000
     37      -4.6421      2.00000
     38      -4.6101      2.00000
     39      -4.5991      2.00000
     40      -4.5985      2.00000
     41      -4.5962      2.00000
     42      -4.1830      2.00000
     43      -4.1804      2.00000
     44      -4.1445      2.00000
     45      -4.1404      2.00000
     46      -4.1400      2.00000
     47      -4.0954      2.00000
     48      -4.0842      2.00000
     49      -4.0835      2.00000
     50      -4.0445      2.00000
     51      -4.0441      2.00000
     52      -3.9688      2.00000
     53      -3.9685      2.00000
     54      -3.9477      2.00000
     55      -3.8676      2.00000
     56      -3.6787      2.00000
     57      -3.6350      2.00000
     58      -3.6347      2.00000
     59      -3.5954      2.00000
     60      -3.5945      2.00000
     61      -3.5901      2.00000
     62      -3.5719      2.00000
     63      -3.5054      2.00000
     64      -3.5052      2.00000
     65      -3.4581      2.00000
     66      -3.4554      2.00000
     67      -3.4316      2.00000
     68      -3.4135      2.00000
     69      -3.4102      2.00000
     70      -3.3935      2.00000
     71      -3.3934      2.00000
     72      -3.3846      2.00000
     73      -3.3266      2.00000
     74      -3.3186      2.00000
     75      -3.3181      2.00000
     76      -3.3017      2.00000
     77      -3.3016      2.00000
     78      -3.2900      2.00000
     79      -3.2892      2.00000
     80      -3.2880      2.00000
     81      -3.2447      2.00000
     82      -3.2378      2.00000
     83      -3.2248      2.00000
     84      -3.2152      2.00000
     85      -3.2149      2.00000
     86      -3.1942      2.00000
     87      -3.1736      2.00000
     88      -3.1473      2.00000
     89      -3.1456      2.00000
     90      -3.1419      2.00000
     91      -3.1153      2.00000
     92      -3.1141      2.00000
     93      -3.0789      2.00000
     94      -3.0430      2.00000
     95      -3.0428      2.00000
     96      -2.8587      2.00000
     97      -2.8582      2.00000
     98      -2.8549      2.00000
     99      -2.8546      2.00000
    100      -2.7429      2.00000
    101      -2.7317      2.00000
    102      -2.7261      2.00000
    103      -2.7063      2.00000
    104      -2.7031      2.00000
    105      -2.7004      2.00000
    106      -2.5990      2.00000
    107      -2.5968      2.00000
    108      -2.5516      2.00000
    109      -2.5118      2.00000
    110      -2.5116      2.00000
    111      -2.5112      2.00000
    112      -2.4615      2.00000
    113      -2.4592      2.00000
    114      -2.4084      2.00000
    115      -2.3829      2.00000
    116      -2.3742      2.00000
    117      -2.3060      2.00000
    118      -2.2939      2.00000
    119      -2.2457      2.00000
    120      -2.2085      2.00000
    121      -2.2032      2.00000
    122      -2.1944      2.00000
    123      -2.1937      2.00000
    124      -2.1735      2.00000
    125      -2.1359      2.00000
    126      -2.1354      2.00000
    127      -2.0948      2.00000
    128      -2.0942      2.00000
    129      -2.0296      2.00000
    130      -2.0251      2.00000
    131      -1.9947      2.00000
    132      -1.9571      2.00000
    133      -1.9569      2.00000
    134      -1.9562      2.00000
    135      -1.9419      2.00000
    136      -1.9404      2.00000
    137      -1.9388      2.00000
    138      -1.9227      2.00000
    139      -1.9216      2.00000
    140      -1.8116      2.00000
    141      -1.8107      2.00000
    142      -1.7929      2.00000
    143      -1.7713      2.00000
    144      -1.7666      2.00000
    145      -1.7642      2.00000
    146      -1.7319      2.00000
    147      -1.7318      2.00000
    148      -1.7299      2.00000
    149      -1.6774      2.00000
    150      -1.6768      2.00000
    151      -1.6729      2.00000
    152      -1.6505      2.00000
    153      -1.5944      2.00000
    154      -1.5943      2.00000
    155      -1.5940      2.00000
    156      -1.5800      2.00000
    157      -1.5779      2.00000
    158      -1.5580      2.00000
    159      -1.5325      2.00000
    160      -1.5279      2.00000
    161      -1.5188      2.00000
    162      -1.4797      2.00000
    163      -1.4787      2.00000
    164      -1.4709      2.00000
    165      -1.4444      2.00000
    166      -1.4432      2.00000
    167      -1.4427      2.00000
    168      -1.4397      2.00000
    169      -1.4348      2.00000
    170      -1.4343      2.00000
    171      -1.3652      2.00000
    172      -1.3650      2.00000
    173      -1.3492      2.00000
    174      -1.3449      2.00000
    175      -1.3333      2.00000
    176      -1.3310      2.00000
    177      -1.3309      2.00000
    178      -1.3161      2.00000
    179      -1.3155      2.00000
    180      -1.3070      2.00000
    181      -1.2815      2.00000
    182      -1.2549      2.00000
    183      -1.2539      2.00000
    184      -1.2038      2.00000
    185      -1.2025      2.00000
    186      -1.1069      2.00000
    187      -1.0968      2.00000
    188      -1.0959      2.00000
    189      -1.0610      2.00000
    190      -1.0602      2.00000
    191      -1.0546      2.00000
    192      -0.2505      2.00000
    193      -0.1700      2.00000
    194      -0.0776      2.00000
    195      -0.0029      2.00000
    196       0.1465      2.00000
    197       0.1483      2.00000
    198       0.2085      2.00000
    199       0.9500      0.00000
    200       1.0496      0.00000
    201       1.1605      0.00000
    202       1.5549      0.00000
    203       1.5689      0.00000
    204       1.8630      0.00000
    205       2.2772      0.00000
    206       2.3236      0.00000
    207       2.3241      0.00000
    208       2.9080      0.00000
    209       2.9296      0.00000
    210       3.5635      0.00000
    211       3.6095      0.00000
    212       3.6323      0.00000
    213       3.6803      0.00000
    214       3.7687      0.00000
    215       3.7947      0.00000
    216       4.1188      0.00000
    217       4.1231      0.00000
    218       4.7054      0.00000
    219       5.1206      0.00000
    220       5.1963      0.00000
    221       5.3348      0.00000
    222       5.4128      0.00000
    223       5.4465      0.00000
    224       5.4630      0.00000
    225       5.5212      0.00000
    226       5.5677      0.00000
    227       5.6054      0.00000
    228       5.8106      0.00000
    229       5.8124      0.00000
    230       5.8508      0.00000
    231       6.1775      0.00000
    232       6.4726      0.00000
    233       6.5508      0.00000
    234       6.9084      0.00000
    235       6.9429      0.00000
    236       6.9761      0.00000
    237       7.0545      0.00000
    238       7.0704      0.00000
    239       7.1577      0.00000
    240       7.1583      0.00000
    241       7.1923      0.00000
    242       7.2757      0.00000
    243       7.2786      0.00000
    244       7.2831      0.00000
    245       7.3907      0.00000
    246       7.4209      0.00000
    247       7.5316      0.00000
    248       7.5777      0.00000
    249       7.6223      0.00000
    250       7.6308      0.00000
    251       7.8923      0.00000
    252       7.9257      0.00000

 k-point     2 :       0.1250   -0.0000    0.0000
  band No.  band energies     occupation 
      1      -8.0683      2.00000
      2      -7.5509      2.00000
      3      -6.7055      2.00000
      4      -6.1100      2.00000
      5      -5.9423      2.00000
      6      -5.9333      2.00000
      7      -5.8502      2.00000
      8      -5.8223      2.00000
      9      -5.7470      2.00000
     10      -5.7239      2.00000
     11      -5.7047      2.00000
     12      -5.4473      2.00000
     13      -5.3996      2.00000
     14      -5.3955      2.00000
     15      -5.3636      2.00000
     16      -5.3174      2.00000
     17      -5.2973      2.00000
     18      -5.0793      2.00000
     19      -5.0424      2.00000
     20      -5.0379      2.00000
     21      -4.9932      2.00000
     22      -4.9599      2.00000
     23      -4.9526      2.00000
     24      -4.9397      2.00000
     25      -4.8787      2.00000
     26      -4.8700      2.00000
     27      -4.7880      2.00000
     28      -4.7818      2.00000
     29      -4.7608      2.00000
     30      -4.7293      2.00000
     31      -4.7255      2.00000
     32      -4.7094      2.00000
     33      -4.6906      2.00000
     34      -4.6872      2.00000
     35      -4.6677      2.00000
     36      -4.6550      2.00000
     37      -4.5973      2.00000
     38      -4.5813      2.00000
     39      -4.5568      2.00000
     40      -4.5033      2.00000
     41      -4.4942      2.00000
     42      -4.2340      2.00000
     43      -4.2135      2.00000
     44      -4.1927      2.00000
     45      -4.1807      2.00000
     46      -4.1694      2.00000
     47      -4.1462      2.00000
     48      -4.1010      2.00000
     49      -4.0550      2.00000
     50      -4.0379      2.00000
     51      -4.0058      2.00000
     52      -3.9584      2.00000
     53      -3.9430      2.00000
     54      -3.9244      2.00000
     55      -3.8707      2.00000
     56      -3.7059      2.00000
     57      -3.6609      2.00000
     58      -3.6453      2.00000
     59      -3.6270      2.00000
     60      -3.6009      2.00000
     61      -3.5904      2.00000
     62      -3.5874      2.00000
     63      -3.5589      2.00000
     64      -3.5294      2.00000
     65      -3.5129      2.00000
     66      -3.5079      2.00000
     67      -3.4854      2.00000
     68      -3.4821      2.00000
     69      -3.4666      2.00000
     70      -3.4374      2.00000
     71      -3.4259      2.00000
     72      -3.4211      2.00000
     73      -3.3873      2.00000
     74      -3.3757      2.00000
     75      -3.3704      2.00000
     76      -3.3621      2.00000
     77      -3.3406      2.00000
     78      -3.2930      2.00000
     79      -3.2816      2.00000
     80      -3.2498      2.00000
     81      -3.2450      2.00000
     82      -3.2147      2.00000
     83      -3.2118      2.00000
     84      -3.1882      2.00000
     85      -3.1777      2.00000
     86      -3.1696      2.00000
     87      -3.1460      2.00000
     88      -3.1061      2.00000
     89      -3.0995      2.00000
[...]
  0.000   0.000   0.000   0.000   0.000   0.000   0.000   0.000   0.000   0.000   0.000   0.000   0.000   0.000   0.000   0.000
  0.000   0.000   0.000   0.000   0.000   0.000   0.000   0.000   0.000   0.000   0.000   0.000   0.000   0.000   0.000   0.000
  0.000   0.000   0.000   0.000   0.000   0.000   0.000   0.000   0.000   0.000   1.000   0.000   0.000   0.000   0.000   0.000
  0.000   0.000   0.000   0.000   0.000   0.000   0.000   0.000   0.000   0.000   0.000   0.000   0.000   0.000   0.000   0.000
  0.000   0.000   0.000   0.000   0.000   0.000   0.000   0.000   0.000   0.000   0.000   0.000   0.000   0.000   0.000   0.000
  0.000   0.000   0.000   0.000   0.000   0.000   0.000   0.000   0.000   0.000   0.000   0.000   0.000   0.000   0.000   0.000
  0.000   0.000   0.000   0.000   0.000   0.000   0.000   0.000   0.000   0.000   0.000   0.000   0.000   0.000   0.000   0.000
  0.000   0.000   0.000   0.000   0.000   0.000   0.000   0.000   0.000   0.000   0.000   0.000   0.000   0.000   0.000   0.000
  0.000   0.000   0.000   0.000   0.000   0.000   0.000   0.000   0.000   0.000   0.000   0.000   0.000   0.000   0.000   0.000
  0.000   0.000   0.000   0.000   0.000   0.000   0.000   0.000   0.000   0.000   0.000   0.000   0.000   0.000   0.000   0.000


------------------------ aborting loop because EDIFF is reached ----------------------------------------





 total charge

# of ion       s       p       d       tot
------------------------------------------
    1        0.549   0.236   8.768   9.553
    2        0.541   0.241   8.764   9.547
    3        0.541   0.241   8.764   9.547
    4        0.540   0.241   8.767   9.548
    5        0.549   0.240   8.760   9.549
    6        0.540   0.241   8.767   9.548
    7        0.540   0.241   8.766   9.548
    8        0.540   0.241   8.766   9.548
    9        0.543   0.239   8.768   9.550
   10        0.528   0.306   8.767   9.600
   11        0.522   0.306   8.779   9.608
   12        0.528   0.306   8.767   9.600
   13        0.522   0.306   8.780   9.608
   14        0.522   0.306   8.780   9.608
   15        0.515   0.307   8.774   9.597
   16        0.528   0.306   8.766   9.600
   17        0.516   0.307   8.775   9.597
   18        0.516   0.307   8.775   9.597
   19        0.518   0.295   8.767   9.581
   20        0.581   0.345   8.721   9.647
   21        0.581   0.345   8.721   9.647
   22        0.506   0.305   8.778   9.589
   23        0.583   0.344   8.721   9.648
   24        0.506   0.305   8.778   9.589
   25        0.519   0.294   8.768   9.581
   26        0.519   0.294   8.768   9.581
   27        0.508   0.304   8.780   9.591
   28        0.538   0.225   8.756   9.519
   29        0.594   0.252   8.728   9.574
   30        0.594   0.252   8.728   9.574
   31        0.589   0.255   8.728   9.572
   32        0.589   0.255   8.728   9.572
   33        0.593   0.252   8.729   9.574
   34        0.593   0.252   8.729   9.574
   35        0.539   0.226   8.758   9.522
   36        0.608   0.654   3.027   4.289
   37        0.559   0.030   0.000   0.589
   38        0.559   0.030   0.000   0.589
--------------------------------------------------
tot         20.757  10.434 309.561 340.752
 
    CHARGE:  cpu time    0.6179: real time    0.6180
    FORLOC:  cpu time    0.0102: real time    0.0102
    FORNL :  cpu time    3.0086: real time    3.0089
    STRESS:  cpu time    9.0233: real time    9.0235
    FORCOR:  cpu time    0.0499: real time    0.0500
    FORHAR:  cpu time    0.0167: real time    0.0168
    OFIELD:  cpu time    0.0002: real time    0.0003

  FORCE on cell =-STRESS in cart. coord.  units (eV):
  Direction    XX          YY          ZZ          XY          YZ          ZX
  --------------------------------------------------------------------------------------
  Alpha Z  1003.37689  1003.37689  1003.37689
  Ewald  116264.63894116247.42057************    -0.00033    -0.07211    -0.00017
  Hartree124769.83292124768.20495************     0.00000    -0.00661    -0.00005
  E(xc)   -1754.87716 -1754.83781 -1763.13136     0.00001     0.02063     0.00000
  Local  ************************253312.67370     0.00181     0.20794     0.00013
  n-local   -53.32524   -51.78434   -23.31897     4.64469    -0.17310     0.07027
  augment  2364.07308  2363.86875  2385.68724    -0.00129     0.01854     0.00005
  Kinetic  5408.38750  5412.02279  5477.45459     1.18457    -0.10611     0.06137
  Fock        0.00000     0.00000     0.00000     0.00000     0.00000     0.00000
  -------------------------------------------------------------------------------------
  Total     -22.61356   -22.49534     2.76709    -0.00000    -0.11082    -0.00000
  in kB     -24.26454   -24.13769     2.96911    -0.00000    -0.11891    -0.00000
  external pressure =      -15.14 kB  Pullay stress =        0.00 kB


 VOLUME and BASIS-vectors are now :
 -----------------------------------------------------------------------------
  energy-cutoff  :      500.00
  volume of cell :     1493.16
      direct lattice vectors                 reciprocal lattice vectors
     8.813512802  0.000000000  0.000000000     0.113462137 -0.065507406  0.000000000
     4.406756909  7.632725690  0.000000000     0.000000000  0.131014796  0.000000000
     0.000000000  0.000000000 22.196203232     0.000000000  0.000000000  0.045052750

  length of vectors
     8.813512802  8.813512802 22.196203232     0.131014796  0.131014796  0.045052750


 FORCES acting on ions
    electron-ion (+dipol)            ewald-force                    non-local-force                 convergence-correction
 -----------------------------------------------------------------------------------------------
   -.198E-04 0.139E-01 0.245E+04   0.519E-04 -.143E-02 -.245E+04   -.125E-08 -.188E-01 -.769E+00   -.188E-03 -.561E-03 -.205E+00
   0.444E+00 -.287E+00 0.245E+04   -.489E+00 0.928E-01 -.245E+04   0.587E-01 0.164E+00 -.304E+00   -.115E-01 0.142E-01 -.202E+00
   -.444E+00 -.287E+00 0.245E+04   0.489E+00 0.928E-01 -.245E+04   -.587E-01 0.164E+00 -.304E+00   0.118E-01 0.161E-01 -.201E+00
   0.336E-02 0.560E+00 0.245E+04   -.163E+00 -.471E+00 -.245E+04   0.164E+00 -.563E-01 -.347E+00   -.114E-01 -.237E-01 -.220E+00
   0.750E-05 -.112E-01 0.245E+04   0.951E-04 -.157E-03 -.245E+04   0.348E-09 0.523E-02 0.242E+00   0.419E-02 0.154E-02 -.172E+00
   -.341E-02 0.560E+00 0.245E+04   0.163E+00 -.471E+00 -.245E+04   -.164E+00 -.563E-01 -.347E+00   0.995E-02 -.228E-01 -.219E+00
   -.497E+00 -.259E+00 0.245E+04   0.326E+00 0.378E+00 -.245E+04   0.133E+00 -.121E+00 -.311E+00   0.198E-01 0.993E-02 -.214E+00
   0.497E+00 -.259E+00 0.245E+04   -.326E+00 0.378E+00 -.245E+04   -.133E+00 -.121E+00 -.311E+00   -.180E-01 0.890E-02 -.214E+00
   0.197E-04 -.376E-02 0.245E+04   0.166E-03 0.160E-02 -.245E+04   0.868E-09 0.130E-01 -.450E+00   -.454E-02 -.914E-02 -.154E+00
   0.469E+01 0.274E+01 0.785E+03   -.431E+01 -.250E+01 -.784E+03   -.405E+00 -.243E+00 -.647E+00   -.219E-01 -.180E-01 -.146E+00
   0.141E-04 0.363E+00 0.787E+03   0.148E-03 -.296E+00 -.787E+03   -.274E-08 -.412E-01 -.614E-01   0.373E-02 -.715E-01 -.117E+00
   -.469E+01 0.274E+01 0.785E+03   0.431E+01 -.250E+01 -.784E+03   0.405E+00 -.243E+00 -.647E+00   0.208E-01 -.175E-01 -.147E+00
   0.276E+00 -.171E+00 0.787E+03   -.244E+00 0.149E+00 -.787E+03   0.978E-03 0.222E-01 -.630E-01   -.676E-01 0.332E-01 -.111E+00
   -.276E+00 -.171E+00 0.787E+03   0.244E+00 0.149E+00 -.787E+03   -.978E-03 0.222E-01 -.630E-01   0.746E-01 0.324E-01 -.113E+00
   0.320E-04 0.529E+01 0.790E+03   0.235E-03 -.537E+01 -.789E+03   -.146E-08 -.220E-01 -.549E+00   -.166E-02 0.187E-01 -.130E+00
   -.210E-04 -.549E+01 0.785E+03   0.162E-03 0.498E+01 -.784E+03   0.334E-07 0.501E+00 -.578E+00   -.240E-03 0.561E-01 -.128E+00
   0.455E+01 -.265E+01 0.790E+03   -.466E+01 0.270E+01 -.789E+03   0.169E-01 0.909E-03 -.516E+00   0.219E-01 -.160E-01 -.132E+00
   -.455E+01 -.265E+01 0.790E+03   0.466E+01 0.270E+01 -.789E+03   -.169E-01 0.909E-03 -.516E+00   -.214E-01 -.145E-01 -.131E+00
   -.435E-04 -.190E+01 -.901E+03   0.560E-04 0.201E+01 0.900E+03   -.225E-08 -.339E-01 0.561E+00   0.511E-02 -.528E-01 0.102E+00
   -.138E+02 -.791E+01 -.887E+03   0.150E+02 0.860E+01 0.888E+03   -.122E+01 -.658E+00 -.164E+01   -.666E-01 -.476E-01 0.149E-01
   0.138E+02 -.791E+01 -.887E+03   -.150E+02 0.860E+01 0.888E+03   0.122E+01 -.658E+00 -.164E+01   0.591E-01 -.478E-01 0.145E-01
   -.172E+02 0.982E+01 -.883E+03   0.168E+02 -.960E+01 0.882E+03   0.438E+00 -.262E+00 0.590E+00   -.255E-01 0.243E-01 0.156E-01
   -.923E-05 0.158E+02 -.887E+03   0.137E-03 -.173E+02 0.888E+03   0.958E-07 0.144E+01 -.159E+01   -.381E-02 0.720E-01 0.171E-01
   0.172E+02 0.982E+01 -.883E+03   -.168E+02 -.960E+01 0.882E+03   -.438E+00 -.262E+00 0.590E+00   0.269E-01 0.255E-01 0.150E-01
   0.170E+01 0.998E+00 -.901E+03   -.178E+01 -.106E+01 0.900E+03   0.255E-01 0.290E-01 0.534E+00   0.445E-01 0.279E-01 0.103E+00
   -.170E+01 0.998E+00 -.901E+03   0.178E+01 -.106E+01 0.900E+03   -.255E-01 0.290E-01 0.534E+00   -.439E-01 0.299E-01 0.104E+00
   0.106E-04 -.198E+02 -.883E+03   0.198E-03 0.194E+02 0.882E+03   0.338E-07 0.508E+00 0.598E+00   -.283E-03 -.362E-01 0.208E-01
   -.106E-04 0.291E+00 -.243E+04   0.278E-04 -.294E+00 0.243E+04   -.717E-09 -.108E-01 0.603E+00   0.157E-02 -.311E-02 0.792E-01
   0.321E+01 -.376E+01 -.245E+04   -.169E+01 0.591E+01 0.245E+04   -.150E+01 -.219E+01 -.549E+00   -.740E-01 -.647E-01 0.784E-01
   -.321E+01 -.376E+01 -.245E+04   0.169E+01 0.591E+01 0.245E+04   0.150E+01 -.219E+01 -.549E+00   0.676E-01 -.639E-01 0.787E-01
   -.865E+00 0.512E+01 -.245E+04   0.341E+01 -.498E+01 0.245E+04   -.254E+01 -.105E+00 -.457E+00   -.764E-01 -.291E-01 0.812E-01
   0.865E+00 0.512E+01 -.245E+04   -.341E+01 -.498E+01 0.245E+04   0.254E+01 -.105E+00 -.457E+00   0.700E-01 -.281E-01 0.824E-01
   -.563E+01 -.140E+01 -.245E+04   0.683E+01 -.881E+00 0.245E+04   -.125E+01 0.229E+01 -.519E+00   -.163E-01 0.851E-01 0.846E-01
   0.563E+01 -.140E+01 -.245E+04   -.683E+01 -.881E+00 0.245E+04   0.125E+01 0.229E+01 -.519E+00   0.115E-01 0.852E-01 0.852E-01
   0.339E-04 -.351E+00 -.244E+04   0.142E-03 0.319E+00 0.244E+04   0.321E-08 0.483E-01 0.637E+00   -.296E-02 0.271E-02 0.898E-01
   -.222E-04 0.184E-01 -.102E+04   0.527E-04 -.544E-01 0.102E+04   -.119E-08 -.179E-01 0.955E+00   0.437E-03 0.727E-03 0.257E-01
   0.139E+02 0.363E-01 -.255E+03   -.178E+02 -.340E-01 0.256E+03   0.389E+01 -.394E-03 -.106E+01   -.587E-02 0.652E-03 0.149E-01
   -.139E+02 0.363E-01 -.255E+03   0.178E+02 -.340E-01 0.256E+03   -.389E+01 -.394E-03 -.106E+01   0.599E-02 0.659E-03 0.149E-01
 -----------------------------------------------------------------------------------------------
   -.814E-03 -.100E+00 0.130E+02   -.462E-13 0.220E-12 -.574E-11   0.804E-08 0.121E+00 -.110E+02   -.147E-01 -.212E-01 -.183E+01
 
 
 POSITION                                       TOTAL-FORCE (eV/Angst)
 -----------------------------------------------------------------------------------
      0.00000      0.00000      5.28038        -0.000000     -0.006951     -0.163414
      2.93784      0.00000      5.28038         0.001703     -0.015008     -0.053300
      5.87568      0.00000      5.28038        -0.001703     -0.015008     -0.053300
      1.46892      2.54424      5.28038        -0.006083      0.009195     -0.056884
      4.40676      2.54424      5.28038        -0.000000     -0.004532     -0.083330
      7.34459      2.54424      5.28038         0.006083      0.009195     -0.056884
      2.93784      5.08848      5.28038        -0.018959      0.007500     -0.051817
      5.87568      5.08848      5.28038         0.018959      0.007500     -0.051817
      8.81351      5.08848      5.28038         0.000000      0.001762     -0.069642
      1.46892      0.84808      7.67911        -0.042469     -0.020451      0.119752
      4.40676      0.84808      7.67911        -0.000000     -0.045340     -0.007522
      7.34459      0.84808      7.67911         0.042469     -0.020451      0.119752
      2.93784      3.39232      7.67911        -0.038686      0.032973     -0.018504
      5.87568      3.39232      7.67911         0.038686      0.032973     -0.018504
      8.81351      3.39232      7.67911        -0.000000     -0.088454      0.106775
      4.40676      5.93656      7.67911         0.000000      0.052738      0.115591
      7.34459      5.93656      7.67911        -0.073460      0.036330      0.114004
     10.28243      5.93656      7.67911         0.073460      0.036330      0.114004
      8.81351      1.70341     10.09804         0.000000      0.017277      0.047332
      2.93277      1.69323     10.04724        -0.031767     -0.019470     -0.130843
      5.88075      1.69323     10.04724         0.031767     -0.019470     -0.130843
     10.26617      4.24979     10.06844         0.006799     -0.008972      0.026611
      4.40676      4.24626     10.04724         0.000000      0.053506     -0.101980
      7.36086      4.24979     10.06844        -0.006799     -0.008972      0.026611
     11.74508      6.78102     10.09804        -0.009260     -0.001488      0.003031
      5.88195      6.78102     10.09804         0.009260     -0.001488      0.003031
      8.81351      6.76586     10.06844         0.000000      0.025775      0.022360
      0.00000      0.00000     12.50054        -0.000000     -0.016422     -0.026984
      2.99863      0.09131     12.57640        -0.047292     -0.105359     -0.048218
      5.81488      0.09131     12.57640         0.047292     -0.105359     -0.048218
      1.57839      2.55123     12.57640        -0.070604      0.007250     -0.007443
      7.23512      2.55123     12.57640         0.070604      0.007250     -0.007443
      2.98652      4.99018     12.57640        -0.063621      0.097158     -0.070903
      5.82700      4.99018     12.57640         0.063621      0.097158     -0.070903
      8.81351      5.08848     12.50707         0.000000      0.019321     -0.002280
      4.40676      2.54424     12.20058        -0.000000     -0.053126      0.535259
      3.99122      2.54739     14.14445         0.001716      0.002565     -0.011567
      4.82229      2.54739     14.14445        -0.001716      0.002565     -0.011567
 -----------------------------------------------------------------------------------
    total drift:                               -0.015519     -0.000635      0.198669


--------------------------------------------------------------------------------------------------------



  FREE ENERGIE OF THE ION-ELECTRON SYSTEM (eV)
  ---------------------------------------------------
  free  energy   TOTEN  =      -124.99243354 eV

  energy  without entropy=     -124.99243354  energy(sigma->0) =     -124.99243354
 


--------------------------------------------------------------------------------------------------------


    POTLOK:  cpu time    0.0448: real time    0.0448


--------------------------------------------------------------------------------------------------------


 stress matrix after NEB project (eV)
    -22.61356     -0.00000     -0.00000
     -0.00000    -22.49534     -0.11082
     -0.00000     -0.11082      2.76709
  FORCES: max atom, RMS     0.011971    0.002746
  FORCE total and by dimension    0.016930    0.011567
  Stress total and by dimension   32.017099   22.613559
     LOOP+:  cpu time  146.4592: real time  146.4702
 -----------------------------------------------------------------------------
|                                                                             |
|           W    W    AA    RRRRR   N    N  II  N    N   GGGG   !!!           |
|           W    W   A  A   R    R  NN   N  II  NN   N  G    G  !!!           |
|           W    W  A    A  R    R  N N  N  II  N N  N  G       !!!           |
|           W WW W  AAAAAA  RRRRR   N  N N  II  N  N N  G  GGG   !            |
|           WW  WW  A    A  R   R   N   NN  II  N   NN  G    G                |
|           W    W  A    A  R    R  N    N  II  N    N   GGGG   !!!           |
|                                                                             |
|     Tetrahedron method does not include variations of the Fermi             |
|     occupations, so forces and stress will be inaccurate. We suggest        |
|     using a different smearing scheme ISMEAR = 1 or 2 for metals in         |
|     relaxations.                                                            |
|                                                                             |
 -----------------------------------------------------------------------------

    4ORBIT:  cpu time    0.0000: real time    0.0000



 total charge

# of ion       s       p       d       tot
------------------------------------------
    1        0.549   0.236   8.768   9.553
    2        0.541   0.241   8.764   9.547
    3        0.541   0.241   8.764   9.547
    4        0.540   0.241   8.767   9.548
    5        0.549   0.240   8.760   9.549
    6        0.540   0.241   8.767   9.548
    7        0.540   0.241   8.766   9.548
    8        0.540   0.241   8.766   9.548
    9        0.543   0.239   8.768   9.550
   10        0.528   0.306   8.767   9.600
   11        0.522   0.306   8.779   9.608
   12        0.528   0.306   8.767   9.600
   13        0.522   0.306   8.780   9.608
   14        0.522   0.306   8.780   9.608
   15        0.515   0.307   8.774   9.597
   16        0.528   0.306   8.766   9.600
   17        0.516   0.307   8.775   9.597
   18        0.516   0.307   8.775   9.597
   19        0.518   0.295   8.767   9.581
   20        0.581   0.345   8.721   9.647
   21        0.581   0.345   8.721   9.647
   22        0.506   0.305   8.778   9.589
   23        0.583   0.344   8.721   9.648
   24        0.506   0.305   8.778   9.589
   25        0.519   0.294   8.768   9.581
   26        0.519   0.294   8.768   9.581
   27        0.508   0.304   8.780   9.591
   28        0.538   0.225   8.756   9.519
   29        0.594   0.252   8.728   9.574
   30        0.594   0.252   8.728   9.574
   31        0.589   0.255   8.728   9.572
   32        0.589   0.255   8.728   9.572
   33        0.593   0.252   8.729   9.574
   34        0.593   0.252   8.729   9.574
   35        0.539   0.226   8.758   9.522
   36        0.608   0.654   3.027   4.289
   37        0.559   0.030   0.000   0.589
   38        0.559   0.030   0.000   0.589
--------------------------------------------------
tot         20.757  10.434 309.561 340.752
 
 BZINTS: Fermi energy:    0.808818;  392.000000 electrons
         Band energy:-0.116500E+04;  BLOECHL correction:   -0.034304

 total amount of memory used by VASP MPI-rank0   184106. kBytes
=======================================================================

   base      :      30000. kBytes
   nonlr-proj:      14545. kBytes
   fftplans  :       4330. kBytes
   grid      :      17879. kBytes
   one-center:        590. kBytes
   wavefun   :     116762. kBytes
 
  
  
 General timing and accounting informations for this job:
 ========================================================
  
                  Total CPU time used (sec):      160.164
                            User time (sec):      154.584
                          System time (sec):        5.581
                         Elapsed time (sec):      160.588
  
                   Maximum memory used (kb):      457312.
                   Average memory used (kb):          N/A
  
                          Minor page faults:        93737
                          Major page faults:            0
                 Voluntary context switches:         5685
