 vasp.6.2.0 18Jan21 (build Jun 12 2021 23:27:24) complex                        
  
 executed on             LinuxIFC date 2022.05.27  06:18:17
 running on   28 total cores
 distrk:  each k-point on   28 cores,    1 groups
 distr:  one band on NCORE=   1 cores,   28 groups


--------------------------------------------------------------------------------------------------------


 INCAR:
   ISMEAR = -5
   SIGMA = 0.1
   ISPIN = 1
   EDIFF = 1.d-5
   EDIFFG = -0.01
   NSW = 0
   NELM = 150
   ENCUT = 500
   ISIF = 2
   IBRION = 2
   LREAL = Auto
   ALGO = Fast
   ICHARG = 11
   LORBIT = 10
   LCHARG = .F.
   LWAVE = .F.

 POTCAR:    PAW_PBE Cu 22Jun2005                  
 POTCAR:    PAW_PBE Re 17Jan2003                  
 POTCAR:    PAW_PBE C 08Apr2002                   
 POTCAR:    PAW_PBE O 08Apr2002                   
 -----------------------------------------------------------------------------
|                                                                             |
|           W    W    AA    RRRRR   N    N  II  N    N   GGGG   !!!           |
|           W    W   A  A   R    R  NN   N  II  NN   N  G    G  !!!           |
|           W    W  A    A  R    R  N N  N  II  N N  N  G       !!!           |
|           W WW W  AAAAAA  RRRRR   N  N N  II  N  N N  G  GGG   !            |
|           WW  WW  A    A  R   R   N   NN  II  N   NN  G    G                |
|           W    W  A    A  R    R  N    N  II  N    N   GGGG   !!!           |
|                                                                             |
|     For optimal performance we recommend to set                             |
|       NCORE = 2 up to number-of-cores-per-socket                            |
|     NCORE specifies how many cores store one orbital (NPAR=cpu/NCORE).      |
|     This setting can greatly improve the performance of VASP for DFT.       |
|     The default, NCORE=1 might be grossly inefficient on modern             |
|     multi-core architectures or massively parallel machines. Do your        |
|     own testing! More info at https://www.vasp.at/wiki/index.php/NCORE      |
|     Unfortunately you need to use the default for GW and RPA                |
|     calculations (for HF NCORE is supported but not extensively tested      |
|     yet).                                                                   |
|                                                                             |
 -----------------------------------------------------------------------------

 POTCAR:    PAW_PBE Cu 22Jun2005                  
   VRHFIN =Cu: d10 p1                                                                               
   LEXCH  = PE                                                                                      
   EATOM  =  1390.9808 eV,  102.2342 Ry                                                             
                                                                                                    
   TITEL  = PAW_PBE Cu 22Jun2005                                                                    
   LULTRA =        F    use ultrasoft PP ?                                                          
   IUNSCR =        1    unscreen: 0-lin 1-nonlin 2-no                                               
   RPACOR =    2.000    partial core radius                                                         
   POMASS =   63.546; ZVAL   =   11.000    mass and valenz                                          
   RCORE  =    2.300    outmost cutoff radius                                                       
   RWIGS  =    2.200; RWIGS  =    1.164    wigner-seitz radius (au A)                               
   ENMAX  =  295.446; ENMIN  =  221.585 eV                                                          
   ICORE  =        3    local potential                                                             
   LCOR   =        T    correct aug charges                                                         
   LPAW   =        T    paw PP                                                                      
   EAUG   =  586.980                                                                                
   DEXC   =    0.000                                                                                
   RMAX   =    2.344    core radius for proj-oper                                                   
   RAUG   =    1.300    factor for augmentation sphere                                              
   RDEP   =    2.302    radius for radial grids                                                     
   RDEPT  =    1.771    core radius for aug-charge                                                  
                                                                                                    
   Atomic configuration                                                                             
    9 entries                                                                                       
     n  l   j            E        occ.                                                              
     1  0  0.50     -8850.2468   2.0000                                                             
     2  0  0.50     -1062.3498   2.0000                                                             
     2  1  1.50      -916.8226   6.0000                                                             
     3  0  0.50      -114.6929   2.0000                                                             
     3  1  1.50       -72.1325   6.0000                                                             
     3  2  2.50        -5.0394  10.0000                                                             
     4  0  0.50        -4.6097   1.0000                                                             
     4  1  0.50        -4.0817   0.0000                                                             
     4  3  2.50        -1.3606   0.0000                                                             
   Description                                                                                      
     l       E           TYP  RCUT    TYP  RCUT                                                     
     2     -5.0393973     23  2.200                                                                 
     2     10.8846608     23  2.200                                                                 
     0     -4.6097109     23  2.200                                                                 
     0      8.2520465     23  2.200                                                                 
     1     -2.7211652     23  2.200                                                                 
     1     21.7055443     23  2.200                                                                 
     3      2.7211652     23  2.300                                                                 
  local pseudopotential read in
  partial core-charges read in
  partial kinetic energy density read in
  atomic valenz-charges read in
  non local Contribution for L=           2  read in
    real space projection operators read in
  non local Contribution for L=           2  read in
    real space projection operators read in
  non local Contribution for L=           0  read in
    real space projection operators read in
  non local Contribution for L=           0  read in
    real space projection operators read in
  non local Contribution for L=           1  read in
    real space projection operators read in
  non local Contribution for L=           1  read in
    real space projection operators read in
    PAW grid and wavefunctions read in
 
   number of l-projection  operators is LMAX  =           6
   number of lm-projection operators is LMMAX =          18
 
 POTCAR:    PAW_PBE Re 17Jan2003                  
   VRHFIN =Re: 5p6s5d                                                                               
   LEXCH  = PE                                                                                      
   EATOM  =   299.6589 eV,   22.0243 Ry                                                             
                                                                                                    
   TITEL  = PAW_PBE Re 17Jan2003                                                                    
   LULTRA =        F    use ultrasoft PP ?                                                          
   IUNSCR =        1    unscreen: 0-lin 1-nonlin 2-no                                               
   RPACOR =    2.250    partial core radius                                                         
   POMASS =  186.207; ZVAL   =    7.000    mass and valenz                                          
   RCORE  =    2.700    outmost cutoff radius                                                       
   RWIGS  =    2.710; RWIGS  =    1.434    wigner-seitz radius (au A)                               
   ENMAX  =  226.216; ENMIN  =  169.662 eV                                                          
   RCLOC  =    2.105    cutoff for local pot                                                        
   LCOR   =        T    correct aug charges                                                         
   LPAW   =        T    paw PP                                                                      
   EAUG   =  370.280                                                                                
   DEXC   =    0.000                                                                                
   RMAX   =    2.768    core radius for proj-oper                                                   
   RAUG   =    1.300    factor for augmentation sphere                                              
   RDEP   =    2.719    radius for radial grids                                                     
   RDEPT  =    2.204    core radius for aug-charge                                                  
                                                                                                    
   Atomic configuration                                                                             
   16 entries                                                                                       
     n  l   j            E        occ.                                                              
     1  0  0.50    -71633.0043   2.0000                                                             
     2  0  0.50    -12416.1215   2.0000                                                             
     2  1  1.50    -10832.4223   6.0000                                                             
     3  0  0.50     -2872.9330   2.0000                                                             
     3  1  1.50     -2406.1720   6.0000                                                             
     3  2  2.50     -1877.8916  10.0000                                                             
     4  0  0.50      -597.8463   2.0000                                                             
     4  1  1.50      -444.8000   6.0000                                                             
     4  2  2.50      -252.9938  10.0000                                                             
     4  3  3.50       -40.1243  14.0000                                                             
     5  0  0.50       -83.0609   2.0000                                                             
     5  1  1.50       -44.9781   6.0000                                                             
     5  2  2.50        -4.0055   6.0000                                                             
     6  0  0.50        -5.2962   1.0000                                                             
     6  1  1.50        -2.7212   0.0000                                                             
     5  3  2.50        -1.3606   0.0000                                                             
   Description                                                                                      
     l       E           TYP  RCUT    TYP  RCUT                                                     
     2     -4.0054887     23  2.500                                                                 
     2     -2.6236470     23  2.500                                                                 
     0     -5.2961782     23  2.600                                                                 
     0      4.1641227     23  2.600                                                                 
     1     -2.7211652     23  2.700                                                                 
     1     27.2116520     23  2.700                                                                 
  local pseudopotential read in
  partial core-charges read in
  partial kinetic energy density read in
  kinetic energy density of atom read in
  atomic valenz-charges read in
  non local Contribution for L=           2  read in
    real space projection operators read in
  non local Contribution for L=           2  read in
    real space projection operators read in
  non local Contribution for L=           0  read in
    real space projection operators read in
  non local Contribution for L=           0  read in
    real space projection operators read in
  non local Contribution for L=           1  read in
    real space projection operators read in
  non local Contribution for L=           1  read in
    real space projection operators read in
    PAW grid and wavefunctions read in
 
   number of l-projection  operators is LMAX  =           6
   number of lm-projection operators is LMMAX =          18
 
 POTCAR:    PAW_PBE C 08Apr2002                   
   VRHFIN =C: s2p2                                                                                  
   LEXCH  = PE                                                                                      
   EATOM  =   147.1560 eV,   10.8157 Ry                                                             
                                                                                                    
   TITEL  = PAW_PBE C 08Apr2002                                                                     
   LULTRA =        F    use ultrasoft PP ?                                                          
   IUNSCR =        1    unscreen: 0-lin 1-nonlin 2-no                                               
   RPACOR =    1.200    partial core radius                                                         
   POMASS =   12.011; ZVAL   =    4.000    mass and valenz                                          
   RCORE  =    1.500    outmost cutoff radius                                                       
   RWIGS  =    1.630; RWIGS  =    0.863    wigner-seitz radius (au A)                               
   ENMAX  =  400.000; ENMIN  =  300.000 eV                                                          
   ICORE  =        2    local potential                                                             
   LCOR   =        T    correct aug charges                                                         
   LPAW   =        T    paw PP                                                                      
   EAUG   =  644.873                                                                                
   DEXC   =    0.000                                                                                
   RMAX   =    1.529    core radius for proj-oper                                                   
   RAUG   =    1.300    factor for augmentation sphere                                              
   RDEP   =    1.501    radius for radial grids                                                     
   RDEPT  =    1.300    core radius for aug-charge                                                  
                                                                                                    
   Atomic configuration                                                                             
    4 entries                                                                                       
     n  l   j            E        occ.                                                              
     1  0  0.50      -273.3789   2.0000                                                             
     2  0  0.50       -13.7508   2.0000                                                             
     2  1  0.50        -5.2854   2.0000                                                             
     3  2  1.50        -5.4423   0.0000                                                             
   Description                                                                                      
     l       E           TYP  RCUT    TYP  RCUT                                                     
     0    -13.7508458     23  1.200                                                                 
     0     -8.2022199     23  1.200                                                                 
     1     -5.2854383     23  1.500                                                                 
     1     34.0145650     23  1.500                                                                 
     2     -5.4423304      7  1.500                                                                 
  local pseudopotential read in
  partial core-charges read in
  partial kinetic energy density read in
  atomic valenz-charges read in
  non local Contribution for L=           0  read in
    real space projection operators read in
  non local Contribution for L=           0  read in
    real space projection operators read in
  non local Contribution for L=           1  read in
    real space projection operators read in
  non local Contribution for L=           1  read in
    real space projection operators read in
    PAW grid and wavefunctions read in
 
   number of l-projection  operators is LMAX  =           4
   number of lm-projection operators is LMMAX =           8
 
 POTCAR:    PAW_PBE O 08Apr2002                   
   VRHFIN =O: s2p4                                                                                  
   LEXCH  = PE                                                                                      
   EATOM  =   432.3788 eV,   31.7789 Ry                                                             
                                                                                                    
   TITEL  = PAW_PBE O 08Apr2002                                                                     
   LULTRA =        F    use ultrasoft PP ?                                                          
   IUNSCR =        1    unscreen: 0-lin 1-nonlin 2-no                                               
   RPACOR =    1.200    partial core radius                                                         
   POMASS =   16.000; ZVAL   =    6.000    mass and valenz                                          
   RCORE  =    1.520    outmost cutoff radius                                                       
   RWIGS  =    1.550; RWIGS  =    0.820    wigner-seitz radius (au A)                               
   ENMAX  =  400.000; ENMIN  =  300.000 eV                                                          
   ICORE  =        2    local potential                                                             
   LCOR   =        T    correct aug charges                                                         
   LPAW   =        T    paw PP                                                                      
   EAUG   =  605.392                                                                                
   DEXC   =    0.000                                                                                
   RMAX   =    1.553    core radius for proj-oper                                                   
   RAUG   =    1.300    factor for augmentation sphere                                              
   RDEP   =    1.550    radius for radial grids                                                     
   RDEPT  =    1.329    core radius for aug-charge                                                  
                                                                                                    
   Atomic configuration                                                                             
    4 entries                                                                                       
     n  l   j            E        occ.                                                              
     1  0  0.50      -514.6923   2.0000                                                             
     2  0  0.50       -23.9615   2.0000                                                             
     2  1  0.50        -9.0305   4.0000                                                             
     3  2  1.50        -9.5241   0.0000                                                             
   Description                                                                                      
     l       E           TYP  RCUT    TYP  RCUT                                                     
     0    -23.9615318     23  1.200                                                                 
     0     -9.5240782     23  1.200                                                                 
     1     -9.0304911     23  1.520                                                                 
     1      8.1634956     23  1.520                                                                 
     2     -9.5240782      7  1.500                                                                 
  local pseudopotential read in
  partial core-charges read in
  partial kinetic energy density read in
  kinetic energy density of atom read in
  atomic valenz-charges read in
  non local Contribution for L=           0  read in
    real space projection operators read in
  non local Contribution for L=           0  read in
    real space projection operators read in
  non local Contribution for L=           1  read in
    real space projection operators read in
  non local Contribution for L=           1  read in
    real space projection operators read in
    PAW grid and wavefunctions read in
 
   number of l-projection  operators is LMAX  =           4
   number of lm-projection operators is LMMAX =           8
 
 Optimization of the real space projectors (new method)

 maximal supplied QI-value         = 16.25
 optimisation between [QCUT,QGAM] = [ 11.38, 22.75] = [ 36.24,144.96] Ry 
 Optimized for a Real-space Cutoff    1.52 Angstroem

   l    n(q)    QCUT    max X(q) W(low)/X(q) W(high)/X(q)  e(spline) 
   2      9    11.376     4.610    0.21E-03    0.10E-03    0.26E-06
   2      9    11.376     8.522    0.33E-03    0.16E-03    0.37E-06
   0     10    11.376    51.609    0.62E-04    0.20E-04    0.13E-06
   0     10    11.376    27.747    0.54E-04    0.20E-04    0.13E-06
   1     10    11.376    20.408    0.13E-04    0.99E-04    0.19E-06
   1     10    11.376    13.425    0.12E-04    0.87E-04    0.17E-06
 Optimization of the real space projectors (new method)

 maximal supplied QI-value         = 13.98
 optimisation between [QCUT,QGAM] = [ 11.33, 22.79] = [ 35.93,145.49] Ry 
 Optimized for a Real-space Cutoff    1.56 Angstroem

   l    n(q)    QCUT    max X(q) W(low)/X(q) W(high)/X(q)  e(spline) 
   2     10    11.327   884.633    0.22E-03    0.51E-03    0.88E-06
   2     10    11.327   796.723    0.22E-03    0.51E-03    0.88E-06
   0     11    11.327    65.348    0.44E-04    0.11E-03    0.75E-06
   0     11    11.327    39.642    0.40E-04    0.10E-03    0.69E-06
   1     10    11.327    13.988    0.15E-03    0.10E-03    0.19E-06
   1     10    11.327     8.682    0.11E-03    0.76E-04    0.14E-06
 Optimization of the real space projectors (new method)

 maximal supplied QI-value         = 25.13
 optimisation between [QCUT,QGAM] = [ 11.31, 22.87] = [ 35.82,146.48] Ry 
 Optimized for a Real-space Cutoff    1.00 Angstroem

   l    n(q)    QCUT    max X(q) W(low)/X(q) W(high)/X(q)  e(spline) 
   0      7    11.310   115.676    0.43E-03    0.13E-02    0.19E-06
   0      7    11.310    87.132    0.43E-03    0.13E-02    0.18E-06
   1      6    11.310     4.429    0.42E-03    0.74E-03    0.11E-06
   1      6    11.310     2.733    0.34E-03    0.55E-03    0.92E-07
 Optimization of the real space projectors (new method)

 maximal supplied QI-value         = 24.76
 optimisation between [QCUT,QGAM] = [ 11.39, 22.77] = [ 36.31,145.25] Ry 
 Optimized for a Real-space Cutoff    1.00 Angstroem

   l    n(q)    QCUT    max X(q) W(low)/X(q) W(high)/X(q)  e(spline) 
   0      7    11.387    20.381    0.39E-03    0.13E-02    0.15E-06
   0      7    11.387    15.268    0.42E-03    0.14E-02    0.17E-06
   1      6    11.387     5.964    0.41E-03    0.11E-02    0.17E-06
   1      6    11.387     5.382    0.39E-03    0.87E-03    0.15E-06
  PAW_PBE Cu 22Jun2005                  :
 energy of atom  1       EATOM=-1390.9808
 kinetic energy error for atom=    0.0043 (will be added to EATOM!!)
  PAW_PBE Re 17Jan2003                  :
 energy of atom  2       EATOM= -299.6589
 kinetic energy error for atom=    0.0023 (will be added to EATOM!!)
  PAW_PBE C 08Apr2002                   :
 energy of atom  3       EATOM= -147.1560
 kinetic energy error for atom=    0.0076 (will be added to EATOM!!)
  PAW_PBE O 08Apr2002                   :
 energy of atom  4       EATOM= -432.3788
 kinetic energy error for atom=    0.0224 (will be added to EATOM!!)
 
 
 POSCAR: Cu-Re-CO
  positions in direct lattice
  velocities in cartesian coordinates
 exchange correlation table for  LEXCH =        8
   RHO(1)=    0.500       N(1)  =     2000
   RHO(2)=  100.500       N(2)  =     4000

 VTST: version 3.2, (02/03/18)

 CHAIN: initializing optimizer
 
 OPT: Using VASP Conjugate-Gradient optimizer
 CHAIN: Read ICHAIN            0
 
 POSCAR: Cu-Re-CO
  positions in direct lattice
  velocities in cartesian coordinates
 


--------------------------------------------------------------------------------------------------------


 ion  position               nearest neighbor table
   1  0.000  0.000  0.252-   7 2.57   3 2.57   4 2.57   2 2.57   6 2.57   8 2.57  12 2.57  10 2.57
                            16 2.57
   2  0.333  0.000  0.252-   8 2.57   9 2.57   5 2.57   1 2.57   3 2.57  11 2.57   4 2.57  10 2.57
                            17 2.57
   3  0.667  0.000  0.252-   1 2.57   7 2.57   6 2.57   9 2.57   2 2.57  12 2.57   5 2.57  18 2.57
                            11 2.57
   4  0.000  0.333  0.252-   5 2.57   6 2.57   1 2.57   7 2.57   2 2.57  13 2.57   9 2.57  10 2.57
                            15 2.57
   5  0.333  0.333  0.252-   4 2.57   2 2.57   7 2.57  13 2.57   8 2.57   6 2.57   3 2.57  11 2.57
                            14 2.57
   6  0.667  0.333  0.252-   4 2.57   9 2.57  15 2.57   3 2.57   1 2.57   8 2.57  14 2.57   5 2.57
                            12 2.57
   7  0.000  0.667  0.252-   1 2.57   3 2.57  16 2.57  18 2.57   4 2.57   5 2.57   8 2.57   9 2.57
                            13 2.57
   8  0.333  0.667  0.252-   9 2.57   2 2.57  17 2.57   6 2.57   1 2.57   7 2.57   5 2.57  14 2.57
                            16 2.57
   9  0.667  0.667  0.252-   8 2.57   6 2.57   2 2.57  17 2.57   3 2.57   7 2.57   4 2.57  15 2.57
                            18 2.57
  10  0.111  0.111  0.351-  20 2.53  11 2.57  12 2.57  13 2.57   1 2.57   2 2.57   4 2.57  15 2.57
                            16 2.57  17 2.57  26 2.57  19 2.57
  11  0.444  0.111  0.351-  20 2.55  21 2.55  10 2.57  13 2.57   2 2.57  17 2.57  14 2.57  12 2.57
                             5 2.57   3 2.57  18 2.57  27 2.58
  12  0.778  0.111  0.351-  21 2.53  15 2.57  10 2.57  14 2.57  18 2.57   3 2.57   1 2.57  16 2.57
                            11 2.57   6 2.57  19 2.57  25 2.57
  13  0.111  0.444  0.351-  23 2.55  20 2.55  16 2.57  18 2.57  10 2.57  11 2.57  14 2.57   5 2.57
                             4 2.57   7 2.57  15 2.57  22 2.58
  14  0.444  0.444  0.351-  21 2.55  23 2.55  15 2.57  17 2.57  12 2.57  16 2.57  13 2.57  11 2.57
                             6 2.57   8 2.57   5 2.57  24 2.58
  15  0.778  0.444  0.351-  19 2.57  14 2.57  17 2.57  12 2.57   6 2.57  18 2.57  10 2.57   9 2.57
                            13 2.57   4 2.57  24 2.57  22 2.57
  16  0.111  0.778  0.351-  23 2.53  18 2.57  13 2.57   7 2.57  14 2.57  17 2.57  12 2.57  10 2.57
                             8 2.57   1 2.57  25 2.57  26 2.57
  17  0.444  0.778  0.351-  26 2.57  14 2.57  15 2.57   8 2.57   9 2.57  11 2.57  16 2.57  18 2.57
                            10 2.57   2 2.57  27 2.57  24 2.57
  18  0.778  0.778  0.351-  25 2.57  16 2.57  13 2.57   7 2.57  15 2.57  12 2.57  17 2.57   9 2.57
                             3 2.57  11 2.57  22 2.57  27 2.57
  19  0.889  0.223  0.449-  21 2.55  20 2.55  22 2.56  24 2.56  28 2.56  15 2.57  12 2.57  10 2.57
                            25 2.57  26 2.57  32 2.59  31 2.59
  20  0.221  0.221  0.448-  36 2.53  10 2.53  11 2.55  13 2.55  26 2.55  19 2.55  27 2.57  22 2.57
                            23 2.59  21 2.59  29 2.61  31 2.61
  21  0.558  0.221  0.448-  36 2.53  12 2.53  14 2.55  11 2.55  19 2.55  25 2.55  24 2.57  27 2.57
                            20 2.59  23 2.59  32 2.61  30 2.61
  22  0.888  0.556  0.450-  24 2.55  27 2.55  35 2.55  19 2.56  25 2.56  18 2.57  15 2.57  23 2.57
                            20 2.57  13 2.58  31 2.59  33 2.59
  23  0.221  0.558  0.448-  36 2.53  16 2.53  13 2.55  14 2.55  25 2.55  26 2.55  22 2.57  24 2.57
                            20 2.59  21 2.59  33 2.61  34 2.61
  24  0.556  0.556  0.450-  22 2.55  27 2.55  35 2.55  19 2.56  26 2.56  15 2.57  17 2.57  21 2.57
                            23 2.57  14 2.58  32 2.59  34 2.59
  25  0.889  0.889  0.449-  21 2.55  23 2.55  22 2.56  27 2.56  28 2.56  18 2.57  16 2.57  12 2.57
                            19 2.57  26 2.57  33 2.59  30 2.59
  26  0.223  0.889  0.449-  20 2.55  23 2.55  27 2.56  24 2.56  28 2.56  17 2.57  10 2.57  16 2.57
                            25 2.57  19 2.57  29 2.59  34 2.59
  27  0.556  0.888  0.450-  24 2.55  22 2.55  35 2.55  26 2.56  25 2.56  17 2.57  18 2.57  20 2.57
                            21 2.57  11 2.58  29 2.59  30 2.59
  28  0.000  0.000  0.548-  33 2.56  30 2.56  31 2.56  29 2.56  32 2.56  34 2.56  25 2.56  19 2.56
                            26 2.56
  29  0.333  0.000  0.549-  31 2.56  28 2.56  36 2.57  34 2.57  35 2.57  30 2.57  26 2.59  27 2.59
                            20 2.61
  30  0.667  0.000  0.549-  32 2.56  28 2.56  36 2.57  33 2.57  35 2.57  29 2.57  25 2.59  27 2.59
                            21 2.61
  31  0.000  0.333  0.549-  29 2.56  28 2.56  36 2.57  32 2.57  35 2.57  33 2.57  19 2.59  22 2.59
                            20 2.61
  32  0.667  0.333  0.549-  30 2.56  28 2.56  36 2.57  31 2.57  35 2.57  34 2.57  19 2.59  24 2.59
                            21 2.61
  33  0.000  0.667  0.549-  34 2.56  28 2.56  36 2.57  30 2.57  35 2.57  31 2.57  25 2.59  22 2.59
                            23 2.61
  34  0.333  0.667  0.549-  33 2.56  28 2.56  36 2.57  29 2.57  35 2.57  32 2.57  26 2.59  24 2.59
                            23 2.61
  35  0.667  0.667  0.548-  24 2.55  27 2.55  22 2.55  34 2.57  32 2.57  29 2.57  30 2.57  33 2.57
                            31 2.57
  36  0.333  0.333  0.544-  37 1.93  23 2.53  20 2.53  21 2.53  31 2.57  29 2.57  33 2.57  34 2.57
                            32 2.57  30 2.57
  37  0.333  0.333  0.635-  38 1.17  36 1.93
  38  0.333  0.333  0.690-  37 1.17
 
  LATTYP: Found a hexagonal cell.
 ALAT       =     7.6967864036
 C/A-ratio  =     2.7653617908
  
  Lattice vectors:
  
 A1 = (  -3.8483927580,  -6.6656128093,   0.0000000000)
 A2 = (   7.6967864037,   0.0000000000,   0.0000000000)
 A3 = (   0.0000000000,   0.0000000000,  21.2843990326)


Analysis of symmetry for initial positions (statically):
=====================================================================
 Subroutine PRICEL returns:
 Original cell was already a primitive cell.
 

 Routine SETGRP: Setting up the symmetry group for a 
 hexagonal supercell.


 Subroutine GETGRP returns: Found  6 space group operations
 (whereof  6 operations were pure point group operations)
 out of a pool of 24 trial point group operations.


The static configuration has the point symmetry C_3v.


Analysis of symmetry for dynamics (positions and initial velocities):
=====================================================================
 Subroutine PRICEL returns:
 Original cell was already a primitive cell.
 

 Routine SETGRP: Setting up the symmetry group for a 
 hexagonal supercell.


 Subroutine GETGRP returns: Found  6 space group operations
 (whereof  6 operations were pure point group operations)
 out of a pool of 24 trial point group operations.


The dynamic configuration has the point symmetry C_3v.


Analysis of constrained symmetry for selective dynamics:
=====================================================================
 Subroutine PRICEL returns:
 Original cell was already a primitive cell.
 

 Routine SETGRP: Setting up the symmetry group for a 
 hexagonal supercell.


 Subroutine GETGRP returns: Found  6 space group operations
 (whereof  6 operations were pure point group operations)
 out of a pool of 24 trial point group operations.


The constrained configuration has the point symmetry C_3v.


 Subroutine INISYM returns: Found  6 space group operations
 (whereof  6 operations are pure point group operations),
 and found     1 'primitive' translations


----------------------------------------------------------------------------------------

                                     Primitive cell                                     

  volume of cell :    1091.9705

  direct lattice vectors                    reciprocal lattice vectors
     7.696786404  0.000000000  0.000000000     0.129924354 -0.075011849  0.000000000
     3.848392758  6.665612809  0.000000000     0.000000000  0.150023716  0.000000000
     0.000000000  0.000000000 21.284399033     0.000000000  0.000000000  0.046982769

  length of vectors
     7.696786404  7.696786404 21.284399033     0.150023716  0.150023716  0.046982769

  position of ions in fractional coordinates (direct lattice)
     0.000000000  0.000000000  0.252370745
     0.333333343  0.000000000  0.252370745
     0.666666687  0.000000000  0.252370745
     1.000000000  0.333333343  0.252370745
     0.333333313  0.333333343  0.252370745
     0.666666687  0.333333343  0.252370745
     1.000000000  0.666666687  0.252370745
     0.333333373  0.666666687  0.252370745
     0.666666627  0.666666687  0.252370745
     0.111111119  0.111111112  0.350790262
     0.444444418  0.111111112  0.350790262
     0.777777791  0.111111112  0.350790262
     0.111111119  0.444444448  0.350790262
     0.444444478  0.444444448  0.350790262
     0.777777731  0.444444448  0.350790262
     0.111111112  0.777777731  0.350790262
     0.444444478  0.777777731  0.350790262
     0.777777851  0.777777731  0.350790262
     0.888617599  0.222764817  0.449317414
     0.221182746  0.221182731  0.447845409
     0.557634569  0.221182731  0.447845409
     0.887823492  0.556088224  0.449587034
     0.221182716  0.557634509  0.447845409
     0.556088284  0.556088224  0.449587034
     0.888617599  0.888617599  0.449317414
     0.222764832  0.888617599  0.449317414
     0.556088224  0.887823492  0.449587034
     0.000000000  0.000000000  0.547534400
     0.332713020  0.000470932  0.549034765
     0.666816078  0.000470932  0.549034765
     0.000470932  0.332713020  0.549034765
     0.666816078  0.332713020  0.549034765
     0.000470932  0.666816078  0.549034765
     0.332713050  0.666816078  0.549034765
     0.666666627  0.666666687  0.547563136
     0.333333313  0.333333343  0.543698104
     0.333333313  0.333333343  0.634583648
     0.333333313  0.333333343  0.689766517

  ion indices of the primitive-cell ions
   primitive index   ion index
                 1           1
                 2           2
                 3           3
                 4           4
                 5           5
                 6           6
                 7           7
                 8           8
                 9           9
                10          10
                11          11
                12          12
                13          13
                14          14
                15          15
                16          16
                17          17
                18          18
                19          19
                20          20
                21          21
                22          22
                23          23
                24          24
                25          25
                26          26
                27          27
                28          28
                29          29
                30          30
                31          31
                32          32
                33          33
                34          34
                35          35
                36          36
                37          37
                38          38

----------------------------------------------------------------------------------------

 
 
 KPOINTS: Automatic mesh                          

Automatic generation of k-mesh.
 Grid dimensions read from file:
 generate k-points for:    8    8    1

 Generating k-lattice:

  Cartesian coordinates                     Fractional coordinates (reciprocal lattice)
     0.016240544 -0.009376481  0.000000000     0.125000000 -0.000000000  0.000000000
     0.000000000  0.018752964  0.000000000     0.000000000  0.125000000  0.000000000
     0.000000000  0.000000000  0.046982769     0.000000000  0.000000000  1.000000000

  Length of vectors
     0.018752964  0.018752964  0.046982769

  Shift w.r.t. Gamma in fractional coordinates (k-lattice)
     0.000000000  0.000000000  0.000000000

 TETIRR: Found     36 inequivalent tetrahedra from      384
 
 Subroutine IBZKPT returns following result:
 ===========================================
 
 Found     10 irreducible k-points:
 
 Following reciprocal coordinates:
            Coordinates               Weight
  0.000000  0.000000  0.000000      1.000000
  0.125000 -0.000000  0.000000      6.000000
  0.250000 -0.000000  0.000000      6.000000
  0.375000 -0.000000  0.000000      6.000000
  0.500000 -0.000000  0.000000      3.000000
  0.250000  0.125000  0.000000      6.000000
  0.375000  0.125000  0.000000     12.000000
  0.500000  0.125000  0.000000     12.000000
  0.500000  0.250000  0.000000      6.000000
 -0.375000  0.250000  0.000000      6.000000
 
 Following cartesian coordinates:
            Coordinates               Weight
  0.000000  0.000000  0.000000      1.000000
  0.016241 -0.009376  0.000000      6.000000
  0.032481 -0.018753  0.000000      6.000000
  0.048722 -0.028129  0.000000      6.000000
  0.064962 -0.037506  0.000000      3.000000
  0.032481  0.000000  0.000000      6.000000
  0.048722 -0.009376  0.000000     12.000000
  0.064962 -0.018753  0.000000     12.000000
  0.064962  0.000000  0.000000      6.000000
 -0.048722  0.065635  0.000000      6.000000
 


--------------------------------------------------------------------------------------------------------




 Dimension of arrays:
   k-points           NKPTS =     10   k-points in BZ     NKDIM =     10   number of bands    NBANDS=    252
   number of dos      NEDOS =    301   number of ions     NIONS =     38
   non local maximal  LDIM  =      6   non local SUM 2l+1 LMDIM =     18
   total plane-waves  NPLWV = 211680
   max r-space proj   IRMAX =   3157   max aug-charges    IRDMAX=  11405
   dimension x,y,z NGX =    42 NGY =   42 NGZ =  120
   dimension x,y,z NGXF=    84 NGYF=   84 NGZF=  240
   support grid    NGXF=    84 NGYF=   84 NGZF=  240
   ions per type =              35   1   1   1
   NGX,Y,Z   is equivalent  to a cutoff of   9.07,  9.07,  9.37 a.u.
   NGXF,Y,Z  is equivalent  to a cutoff of  18.14, 18.14, 18.75 a.u.

 SYSTEM =  unknown system                          
 POSCAR =  Cu-Re-CO                                

 Startparameter for this run:
   NWRITE =      2    write-flag & timer
   PREC   = normal    normal or accurate (medium, high low for compatibility)
   ISTART =      0    job   : 0-new  1-cont  2-samecut
   ICHARG =     11    charge: 1-file 2-atom 10-const
   ISPIN  =      1    spin polarized calculation?
   LNONCOLLINEAR =      F non collinear calculations
   LSORBIT =      F    spin-orbit coupling
   INIWAV =      1    electr: 0-lowe 1-rand  2-diag
   LASPH  =      F    aspherical Exc in radial PAW
   METAGGA=      F    non-selfconsistent MetaGGA calc.

 Electronic Relaxation 1
   ENCUT  =  500.0 eV  36.75 Ry    6.06 a.u.  14.03 14.03 38.81*2*pi/ulx,y,z
   ENINI  =  500.0     initial cutoff
   ENAUG  =  644.9 eV  augmentation charge cutoff
   NELM   =    150;   NELMIN=  2; NELMDL= -5     # of ELM steps 
   EDIFF  = 0.1E-04   stopping-criterion for ELM
   LREAL  =      T    real-space projection
   NLSPLINE    = F    spline interpolate recip. space projectors
   LCOMPAT=      F    compatible to vasp.4.4
   GGA_COMPAT  = T    GGA compatible to vasp.4.4-vasp.4.6
   LMAXPAW     = -100 max onsite density
   LMAXMIX     =    2 max onsite mixed and CHGCAR
   VOSKOWN=      0    Vosko Wilk Nusair interpolation
   ROPT   =   -0.00050  -0.00050  -0.00050  -0.00050
 Ionic relaxation
   EDIFFG = -.1E-01   stopping-criterion for IOM
   NSW    =      0    number of steps for IOM
   NBLOCK =      1;   KBLOCK =      1    inner block; outer block 
   IBRION =     -1    ionic relax: 0-MD 1-quasi-New 2-CG
   NFREE  =      1    steps in history (QN), initial steepest desc. (CG)
   ISIF   =      2    stress and relaxation
   IWAVPR =     10    prediction:  0-non 1-charg 2-wave 3-comb
   ISYM   =      2    0-nonsym 1-usesym 2-fastsym
   LCORR  =      T    Harris-Foulkes like correction to forces

   POTIM  = 0.5000    time-step for ionic-motion
   TEIN   =    0.0    initial temperature
   TEBEG  =    0.0;   TEEND  =   0.0 temperature during run
   SMASS  =  -3.00    Nose mass-parameter (am)
   estimated Nose-frequenzy (Omega)   =  0.10E-29 period in steps = 0.13E+47 mass=  -0.135E-26a.u.
   SCALEE = 1.0000    scale energy and forces
   NPACO  =    256;   APACO  = 16.0  distance and # of slots for P.C.
   PSTRESS=    0.0 pullay stress

  Mass of Ions in am
   POMASS =  63.55186.21 12.01 16.00
  Ionic Valenz
   ZVAL   =  11.00  7.00  4.00  6.00
  Atomic Wigner-Seitz radii
   RWIGS  =  -1.00 -1.00 -1.00 -1.00
  virtual crystal weights 
   VCA    =   1.00  1.00  1.00  1.00
   NELECT =     402.0000    total number of electrons
   NUPDOWN=      -1.0000    fix difference up-down

 DOS related values:
   EMIN   =  10.00;   EMAX   =-10.00  energy-range for DOS
   EFERMI =   0.00
   ISMEAR =    -5;   SIGMA  =   0.10  broadening in eV -4-tet -1-fermi 0-gaus

 Electronic relaxation 2 (details)
   IALGO  =     68    algorithm
   LDIAG  =      T    sub-space diagonalisation (order eigenvalues)
   LSUBROT=      F    optimize rotation matrix (better conditioning)
   TURBO    =      0    0=normal 1=particle mesh
   IRESTART =      0    0=no restart 2=restart with 2 vectors
   NREBOOT  =      0    no. of reboots
   NMIN     =      0    reboot dimension
   EREF     =   0.00    reference energy to select bands
   IMIX   =      4    mixing-type and parameters
     AMIX     =   0.40;   BMIX     =  1.00
     AMIX_MAG =   1.60;   BMIX_MAG =  1.00
     AMIN     =   0.10
     WC   =   100.;   INIMIX=   1;  MIXPRE=   1;  MAXMIX= -45

 Intra band minimization:
   WEIMIN = 0.0000     energy-eigenvalue tresh-hold
   EBREAK =  0.99E-08  absolut break condition
   DEPER  =   0.30     relativ break condition  

   TIME   =   0.40     timestep for ELM

  volume/ion in A,a.u.               =      28.74       193.92
  Fermi-wavevector in a.u.,A,eV,Ry     =   1.173311  2.217237 18.730585  1.376659
  Thomas-Fermi vector in A             =   2.309726
 
 Write flags
   LWAVE        =      F    write WAVECAR
   LDOWNSAMPLE  =      F    k-point downsampling of WAVECAR
   LCHARG       =      F    write CHGCAR
   LVTOT        =      F    write LOCPOT, total local potential
   LVHAR        =      F    write LOCPOT, Hartree potential only
   LELF         =      F    write electronic localiz. function (ELF)
   LORBIT       =     10    0 simple, 1 ext, 2 COOP (PROOUT), +10 PAW based schemes


 Dipole corrections
   LMONO  =      F    monopole corrections only (constant potential shift)
   LDIPOL =      F    correct potential (dipole corrections)
   IDIPOL =      0    1-x, 2-y, 3-z, 4-all directions 
   EPSILON=  1.0000000 bulk dielectric constant

 Exchange correlation treatment:
   GGA     =    --    GGA type
   LEXCH   =     8    internal setting for exchange type
   VOSKOWN=      0    Vosko Wilk Nusair interpolation
   LHFCALC =     F    Hartree Fock is set to
   LHFONE  =     F    Hartree Fock one center treatment
   AEXX    =    0.0000 exact exchange contribution

 Linear response parameters
   LEPSILON=     F    determine dielectric tensor
   LRPA    =     F    only Hartree local field effects (RPA)
   LNABLA  =     F    use nabla operator in PAW spheres
   LVEL    =     F    velocity operator in full k-point grid
   LINTERFAST=   F  fast interpolation
   KINTER  =     0    interpolate to denser k-point grid
   CSHIFT  =0.1000    complex shift for real part using Kramers Kronig
   OMEGAMAX=  -1.0    maximum frequency
   DEG_THRESHOLD= 0.2000000E-02 threshold for treating states as degnerate
   RTIME   =   -0.100 relaxation time in fs
  (WPLASMAI=    0.000 imaginary part of plasma frequency in eV, 0.658/RTIME)
   DFIELD  = 0.0000000 0.0000000 0.0000000 field for delta impulse in time
 
 Orbital magnetization related:
   ORBITALMAG=     F  switch on orbital magnetization
   LCHIMAG   =     F  perturbation theory with respect to B field
   DQ        =  0.001000  dq finite difference perturbation B field
   LLRAUG    =     F  two centre corrections for induced B field



--------------------------------------------------------------------------------------------------------


 Static calculation
 charge density and potential remain constant during run
 non-spin polarized calculation
 RMM-DIIS sequential band-by-band and
  variant of blocked Davidson during initial phase
 perform sub-space diagonalisation
    before iterative eigenvector-optimisation
 no mixing
 using additional bands           51
 real space projection scheme for non local part
 use partial core corrections
 calculate Harris-corrections to forces 
   (improved forces if not selfconsistent)
 use gradient corrections 
 WARNING: stress and forces are not correct
  (second derivative of E(xc) not defined)
 use of overlap-Matrix (Vanderbilt PP)
 Fermi weights with tetrahedron method with Bloechl corrections


--------------------------------------------------------------------------------------------------------


  energy-cutoff  :      500.00
  volume of cell :     1091.97
      direct lattice vectors                 reciprocal lattice vectors
     7.696786404  0.000000000  0.000000000     0.129924354 -0.075011849  0.000000000
     3.848392758  6.665612809  0.000000000     0.000000000  0.150023716  0.000000000
     0.000000000  0.000000000 21.284399033     0.000000000  0.000000000  0.046982769

  length of vectors
     7.696786404  7.696786404 21.284399033     0.150023716  0.150023716  0.046982769


 
 k-points in units of 2pi/SCALE and weight: Automatic mesh                          
   0.00000000  0.00000000  0.00000000       0.016
   0.01624054 -0.00937648  0.00000000       0.094
   0.03248109 -0.01875296  0.00000000       0.094
   0.04872163 -0.02812944  0.00000000       0.094
   0.06496218 -0.03750592  0.00000000       0.047
   0.03248109  0.00000000  0.00000000       0.094
   0.04872163 -0.00937648  0.00000000       0.188
   0.06496218 -0.01875296  0.00000000       0.188
   0.06496218  0.00000000  0.00000000       0.094
  -0.04872163  0.06563537  0.00000000       0.094
 
 k-points in reciprocal lattice and weights: Automatic mesh                          
   0.00000000  0.00000000  0.00000000       0.016
   0.12500000 -0.00000000  0.00000000       0.094
   0.25000000 -0.00000000  0.00000000       0.094
   0.37500000 -0.00000000  0.00000000       0.094
   0.50000000 -0.00000000  0.00000000       0.047
   0.25000000  0.12500000  0.00000000       0.094
   0.37500000  0.12500000  0.00000000       0.188
   0.50000000  0.12500000  0.00000000       0.188
   0.50000000  0.25000000  0.00000000       0.094
  -0.37500000  0.25000000  0.00000000       0.094
 
 position of ions in fractional coordinates (direct lattice) 
   0.00000000  0.00000000  0.25237075
   0.33333334  0.00000000  0.25237075
   0.66666669  0.00000000  0.25237075
   0.00000000  0.33333334  0.25237075
   0.33333331  0.33333334  0.25237075
   0.66666669  0.33333334  0.25237075
   0.00000000  0.66666669  0.25237075
   0.33333337  0.66666669  0.25237075
   0.66666663  0.66666669  0.25237075
   0.11111112  0.11111111  0.35079026
   0.44444442  0.11111111  0.35079026
   0.77777779  0.11111111  0.35079026
   0.11111112  0.44444445  0.35079026
   0.44444448  0.44444445  0.35079026
   0.77777773  0.44444445  0.35079026
   0.11111111  0.77777773  0.35079026
   0.44444448  0.77777773  0.35079026
   0.77777785  0.77777773  0.35079026
   0.88861760  0.22276482  0.44931741
   0.22118275  0.22118273  0.44784541
   0.55763457  0.22118273  0.44784541
   0.88782349  0.55608822  0.44958703
   0.22118272  0.55763451  0.44784541
   0.55608828  0.55608822  0.44958703
   0.88861760  0.88861760  0.44931741
   0.22276483  0.88861760  0.44931741
   0.55608822  0.88782349  0.44958703
   0.00000000  0.00000000  0.54753440
   0.33271302  0.00047093  0.54903477
   0.66681608  0.00047093  0.54903477
   0.00047093  0.33271302  0.54903477
   0.66681608  0.33271302  0.54903477
   0.00047093  0.66681608  0.54903477
   0.33271305  0.66681608  0.54903477
   0.66666663  0.66666669  0.54756314
   0.33333331  0.33333334  0.54369810
   0.33333331  0.33333334  0.63458365
   0.33333331  0.33333334  0.68976652
 
 position of ions in cartesian coordinates  (Angst):
   0.00000000  0.00000000  5.37155964
   2.56559554  0.00000000  5.37155964
   5.13119109  0.00000000  5.37155964
   1.28279762  2.22187100  5.37155964
   3.84839293  2.22187100  5.37155964
   6.41398872  2.22187100  5.37155964
   2.56559525  4.44374201  5.37155964
   5.13119102  4.44374201  5.37155964
   7.69678588  4.44374201  5.37155964
   1.28279775  0.74062365  7.46635991
   3.84839295  0.74062365  7.46635991
   6.41398873  0.74062365  7.46635991
   2.56559535  2.96249461  7.46635991
   5.13119101  2.96249461  7.46635991
   7.69678586  2.96249461  7.46635991
   3.84839268  5.18436521  7.46635991
   6.41398840  5.18436521  7.46635991
   8.97958418  5.18436521  7.46635991
   7.69678637  1.48486402  9.56345113
   2.55359437  1.47431844  9.53212038
   5.14319219  1.47431844  9.53212038
   8.97343368  3.70666879  9.56918984
   3.84839272  3.71697573  9.53212038
   6.42013864  3.70666879  9.56918984
  10.25924939  5.92318085  9.56345113
   5.13432287  5.92318085  9.56345113
   7.69678578  5.91788764  9.56918984
   0.00000000  0.00000000 11.65394065
   2.56263338  0.00313905 11.68587503
   5.13415325  0.00313905 11.68587503
   1.28403504  2.21773617 11.68587503
   6.41275130  2.21773617 11.68587503
   2.56979483  4.44473779 11.68587503
   5.12699145  4.44473779 11.68587503
   7.69678588  4.44374201 11.65455227
   3.84839293  2.22187100 11.57228739
   3.84839293  2.22187100 13.50673158
   3.84839293  2.22187100 14.68126578
 


--------------------------------------------------------------------------------------------------------


 k-point   1 :   0.0000 0.0000 0.0000  plane waves:   27671
 k-point   2 :   0.1250-0.0000 0.0000  plane waves:   27649
 k-point   3 :   0.2500-0.0000 0.0000  plane waves:   27714
 k-point   4 :   0.3750-0.0000 0.0000  plane waves:   27740
 k-point   5 :   0.5000-0.0000 0.0000  plane waves:   27782
 k-point   6 :   0.2500 0.1250 0.0000  plane waves:   27698
 k-point   7 :   0.3750 0.1250 0.0000  plane waves:   27702
 k-point   8 :   0.5000 0.1250 0.0000  plane waves:   27747
 k-point   9 :   0.5000 0.2500 0.0000  plane waves:   27734
 k-point  10 :  -0.3750 0.2500 0.0000  plane waves:   27782

 maximum and minimum number of plane-waves per node :     27782    27649

 maximum number of plane-waves:     27782
 maximum index in each direction: 
   IXMAX=   14   IYMAX=   14   IZMAX=   38
   IXMIN=  -14   IYMIN=  -14   IZMIN=  -38


 serial   3D FFT for wavefunctions
 parallel 3D FFT for charge:
    minimum data exchange during FFTs selected (reduces bandwidth)


 total amount of memory used by VASP MPI-rank0   105359. kBytes
=======================================================================

   base      :      30000. kBytes
   nonlr-proj:      17970. kBytes
   fftplans  :       2916. kBytes
   grid      :      12878. kBytes
   one-center:        590. kBytes
   wavefun   :      41005. kBytes
 
     INWAV:  cpu time    0.0000: real time    0.0000
 initial charge density was supplied:
 number of electron     401.9999775 magnetization 
 keeping initial charge density in first step


--------------------------------------------------------------------------------------------------------


 Maximum index for non-local projection operator         3029
 Maximum index for augmentation-charges          542 (set IRDMAX)


--------------------------------------------------------------------------------------------------------


 First call to EWALD:  gamma=   0.172
 Maximum number of real-space cells 4x 4x 2
 Maximum number of reciprocal cells 2x 2x 5

    FEWALD:  cpu time    0.0013: real time    0.0014


--------------------------------------- Iteration      1(   1)  ---------------------------------------


    POTLOK:  cpu time    0.0277: real time    0.0280
    SETDIJ:  cpu time    0.0046: real time    0.0048
     EDDAV:  cpu time    5.7237: real time    5.7252
 BZINTS: Fermi energy:   14.732702;  402.000000 electrons
         Band energy: 0.268162E+04;  BLOECHL correction:   -0.008547
       DOS:  cpu time    0.0104: real time    0.0104
    --------------------------------------------
      LOOP:  cpu time    5.7664: real time    5.7684

 eigenvalue-minimisations  :  5040
 total energy-change (2. order) : 0.3718353E+04  (-0.1729903E+05)
 number of electron     401.9999775 magnetization 
 augmentation part      401.9999775 magnetization 

 Free energy of the ion-electron system (eV)
  ---------------------------------------------------
  alpha Z        PSCENC =       922.53241925
  Ewald energy   TEWEN  =    143199.17630871
  -Hartree energ DENC   =   -190489.08268297
  -exchange      EXHF   =         0.00000000
  -V(xc)+E(xc)   XCENC  =      1553.01134315
  PAW double counting   =     47442.30849823   -51154.55100502
  entropy T*S    EENTRO =         0.00000000
  eigenvalues    EBANDS =      2681.61763628
  atomic energy  EATOM  =     49563.34056742
  Solvation  Ediel_sol  =         0.00000000
  ---------------------------------------------------
  free energy    TOTEN  =      3718.35308505 eV

  energy without entropy =     3718.35308505  energy(sigma->0) =     3718.35308505


--------------------------------------------------------------------------------------------------------




--------------------------------------- Iteration      1(   2)  ---------------------------------------


     EDDAV:  cpu time    7.8113: real time    7.8115
 BZINTS: Fermi energy:    3.086588;  402.000000 electrons
         Band energy:-0.671540E+03;  BLOECHL correction:   -0.010912
       DOS:  cpu time    0.0103: real time    0.0103
    --------------------------------------------
      LOOP:  cpu time    7.8216: real time    7.8218

 eigenvalue-minimisations  :  7392
 total energy-change (2. order) :-0.3353157E+04  (-0.3227541E+04)
 number of electron     401.9999775 magnetization 
 augmentation part      401.9999775 magnetization 

 Free energy of the ion-electron system (eV)
  ---------------------------------------------------
  alpha Z        PSCENC =       922.53241925
  Ewald energy   TEWEN  =    143199.17630871
  -Hartree energ DENC   =   -190489.08268297
  -exchange      EXHF   =         0.00000000
  -V(xc)+E(xc)   XCENC  =      1553.01134315
  PAW double counting   =     47442.30849823   -51154.55100502
  entropy T*S    EENTRO =         0.00000000
  eigenvalues    EBANDS =      -671.53968097
  atomic energy  EATOM  =     49563.34056742
  Solvation  Ediel_sol  =         0.00000000
  ---------------------------------------------------
  free energy    TOTEN  =       365.19576779 eV

  energy without entropy =      365.19576779  energy(sigma->0) =      365.19576779


--------------------------------------------------------------------------------------------------------




--------------------------------------- Iteration      1(   3)  ---------------------------------------


     EDDAV:  cpu time    6.2304: real time    6.2307
 BZINTS: Fermi energy:    0.261132;  402.000000 electrons
         Band energy:-0.114762E+04;  BLOECHL correction:   -0.024034
       DOS:  cpu time    0.0099: real time    0.0099
    --------------------------------------------
      LOOP:  cpu time    6.2403: real time    6.2406

 eigenvalue-minimisations  :  5628
 total energy-change (2. order) :-0.4760821E+03  (-0.4475019E+03)
 number of electron     401.9999775 magnetization 
 augmentation part      401.9999775 magnetization 

 Free energy of the ion-electron system (eV)
  ---------------------------------------------------
  alpha Z        PSCENC =       922.53241925
  Ewald energy   TEWEN  =    143199.17630871
  -Hartree energ DENC   =   -190489.08268297
  -exchange      EXHF   =         0.00000000
  -V(xc)+E(xc)   XCENC  =      1553.01134315
  PAW double counting   =     47442.30849823   -51154.55100502
  entropy T*S    EENTRO =         0.00000000
  eigenvalues    EBANDS =     -1147.62177365
  atomic energy  EATOM  =     49563.34056742
  Solvation  Ediel_sol  =         0.00000000
  ---------------------------------------------------
  free energy    TOTEN  =      -110.88632489 eV

  energy without entropy =     -110.88632489  energy(sigma->0) =     -110.88632489


--------------------------------------------------------------------------------------------------------




--------------------------------------- Iteration      1(   4)  ---------------------------------------


     EDDAV:  cpu time    7.2731: real time    7.2733
 BZINTS: Fermi energy:    0.037410;  402.000000 electrons
         Band energy:-0.118478E+04;  BLOECHL correction:   -0.033937
       DOS:  cpu time    0.0100: real time    0.0100
    --------------------------------------------
      LOOP:  cpu time    7.2831: real time    7.2832

 eigenvalue-minimisations  :  6776
 total energy-change (2. order) :-0.3716019E+02  (-0.3655455E+02)
 number of electron     401.9999775 magnetization 
 augmentation part      401.9999775 magnetization 

 Free energy of the ion-electron system (eV)
  ---------------------------------------------------
  alpha Z        PSCENC =       922.53241925
  Ewald energy   TEWEN  =    143199.17630871
  -Hartree energ DENC   =   -190489.08268297
  -exchange      EXHF   =         0.00000000
  -V(xc)+E(xc)   XCENC  =      1553.01134315
  PAW double counting   =     47442.30849823   -51154.55100502
  entropy T*S    EENTRO =         0.00000000
  eigenvalues    EBANDS =     -1184.78195983
  atomic energy  EATOM  =     49563.34056742
  Solvation  Ediel_sol  =         0.00000000
  ---------------------------------------------------
  free energy    TOTEN  =      -148.04651106 eV

  energy without entropy =     -148.04651106  energy(sigma->0) =     -148.04651106


--------------------------------------------------------------------------------------------------------




--------------------------------------- Iteration      1(   5)  ---------------------------------------


     EDDAV:  cpu time    8.0614: real time    8.0617
 BZINTS: Fermi energy:    0.030177;  402.000000 electrons
         Band energy:-0.118611E+04;  BLOECHL correction:   -0.034120
       DOS:  cpu time    0.0104: real time    0.0104
    --------------------------------------------
      LOOP:  cpu time    8.0718: real time    8.0721

 eigenvalue-minimisations  :  7644
 total energy-change (2. order) :-0.1330807E+01  (-0.1320639E+01)
 number of electron     401.9999775 magnetization 
 augmentation part      401.9999775 magnetization 

 Free energy of the ion-electron system (eV)
  ---------------------------------------------------
  alpha Z        PSCENC =       922.53241925
  Ewald energy   TEWEN  =    143199.17630871
  -Hartree energ DENC   =   -190489.08268297
  -exchange      EXHF   =         0.00000000
  -V(xc)+E(xc)   XCENC  =      1553.01134315
  PAW double counting   =     47442.30849823   -51154.55100502
  entropy T*S    EENTRO =         0.00000000
  eigenvalues    EBANDS =     -1186.11276677
  atomic energy  EATOM  =     49563.34056742
  Solvation  Ediel_sol  =         0.00000000
  ---------------------------------------------------
  free energy    TOTEN  =      -149.37731800 eV

  energy without entropy =     -149.37731800  energy(sigma->0) =     -149.37731800


--------------------------------------------------------------------------------------------------------




--------------------------------------- Iteration      1(   6)  ---------------------------------------


    EDDIAG:  cpu time    1.0593: real time    1.0596
  RMM-DIIS:  cpu time    3.7073: real time    3.7075
    ORTHCH:  cpu time    0.2078: real time    0.2078
 BZINTS: Fermi energy:    0.030111;  402.000000 electrons
         Band energy:-0.118613E+04;  BLOECHL correction:   -0.034118
       DOS:  cpu time    0.0098: real time    0.0098
    --------------------------------------------
      LOOP:  cpu time    4.9842: real time    4.9847

 eigenvalue-minimisations  :  6428
 total energy-change (2. order) :-0.2073540E-01  (-0.2073484E-01)
 number of electron     401.9999775 magnetization 
 augmentation part      401.9999775 magnetization 

 Free energy of the ion-electron system (eV)
  ---------------------------------------------------
  alpha Z        PSCENC =       922.53241925
  Ewald energy   TEWEN  =    143199.17630871
  -Hartree energ DENC   =   -190489.08268297
  -exchange      EXHF   =         0.00000000
  -V(xc)+E(xc)   XCENC  =      1553.01134315
  PAW double counting   =     47442.30849823   -51154.55100502
  entropy T*S    EENTRO =         0.00000000
  eigenvalues    EBANDS =     -1186.13350217
  atomic energy  EATOM  =     49563.34056742
  Solvation  Ediel_sol  =         0.00000000
  ---------------------------------------------------
  free energy    TOTEN  =      -149.39805340 eV

  energy without entropy =     -149.39805340  energy(sigma->0) =     -149.39805340


--------------------------------------------------------------------------------------------------------




--------------------------------------- Iteration      1(   7)  ---------------------------------------


    EDDIAG:  cpu time    1.0597: real time    1.0599
  RMM-DIIS:  cpu time    4.6214: real time    4.6214
    ORTHCH:  cpu time    0.2080: real time    0.2080
 BZINTS: Fermi energy:    0.030091;  402.000000 electrons
         Band energy:-0.118614E+04;  BLOECHL correction:   -0.034119
       DOS:  cpu time    0.0100: real time    0.0100
    --------------------------------------------
      LOOP:  cpu time    5.8991: real time    5.8993

 eigenvalue-minimisations  :  8160
 total energy-change (2. order) :-0.8482060E-02  (-0.8176814E-02)
 number of electron     401.9999775 magnetization 
 augmentation part      401.9999775 magnetization 

 Free energy of the ion-electron system (eV)
  ---------------------------------------------------
  alpha Z        PSCENC =       922.53241925
  Ewald energy   TEWEN  =    143199.17630871
  -Hartree energ DENC   =   -190489.08268297
  -exchange      EXHF   =         0.00000000
  -V(xc)+E(xc)   XCENC  =      1553.01134315
  PAW double counting   =     47442.30849823   -51154.55100502
  entropy T*S    EENTRO =         0.00000000
  eigenvalues    EBANDS =     -1186.14198423
  atomic energy  EATOM  =     49563.34056742
  Solvation  Ediel_sol  =         0.00000000
  ---------------------------------------------------
  free energy    TOTEN  =      -149.40653546 eV

  energy without entropy =     -149.40653546  energy(sigma->0) =     -149.40653546


--------------------------------------------------------------------------------------------------------




--------------------------------------- Iteration      1(   8)  ---------------------------------------


    EDDIAG:  cpu time    1.0594: real time    1.0595
  RMM-DIIS:  cpu time    5.6319: real time    5.6320
    ORTHCH:  cpu time    0.2074: real time    0.2075
 BZINTS: Fermi energy:    0.030086;  402.000000 electrons
         Band energy:-0.118614E+04;  BLOECHL correction:   -0.034118
       DOS:  cpu time    0.0098: real time    0.0098
    --------------------------------------------
      LOOP:  cpu time    6.9086: real time    6.9087

 eigenvalue-minimisations  :  9800
 total energy-change (2. order) :-0.2129548E-02  (-0.2097842E-02)
 number of electron     401.9999775 magnetization 
 augmentation part      401.9999775 magnetization 

 Free energy of the ion-electron system (eV)
  ---------------------------------------------------
  alpha Z        PSCENC =       922.53241925
  Ewald energy   TEWEN  =    143199.17630871
  -Hartree energ DENC   =   -190489.08268297
  -exchange      EXHF   =         0.00000000
  -V(xc)+E(xc)   XCENC  =      1553.01134315
  PAW double counting   =     47442.30849823   -51154.55100502
  entropy T*S    EENTRO =         0.00000000
  eigenvalues    EBANDS =     -1186.14411378
  atomic energy  EATOM  =     49563.34056742
  Solvation  Ediel_sol  =         0.00000000
  ---------------------------------------------------
  free energy    TOTEN  =      -149.40866501 eV

  energy without entropy =     -149.40866501  energy(sigma->0) =     -149.40866501


--------------------------------------------------------------------------------------------------------




--------------------------------------- Iteration      1(   9)  ---------------------------------------


    EDDIAG:  cpu time    1.0596: real time    1.0624
  RMM-DIIS:  cpu time    4.9257: real time    4.9258
    ORTHCH:  cpu time    0.2075: real time    0.2075
 BZINTS: Fermi energy:    0.030084;  402.000000 electrons
         Band energy:-0.118614E+04;  BLOECHL correction:   -0.034118
       DOS:  cpu time    0.0102: real time    0.0102
    --------------------------------------------
      LOOP:  cpu time    6.2030: real time    6.2058

 eigenvalue-minimisations  :  8559
 total energy-change (2. order) :-0.1332209E-03  (-0.1403672E-03)
 number of electron     401.9999775 magnetization 
 augmentation part      401.9999775 magnetization 

 Free energy of the ion-electron system (eV)
  ---------------------------------------------------
  alpha Z        PSCENC =       922.53241925
  Ewald energy   TEWEN  =    143199.17630871
  -Hartree energ DENC   =   -190489.08268297
  -exchange      EXHF   =         0.00000000
  -V(xc)+E(xc)   XCENC  =      1553.01134315
  PAW double counting   =     47442.30849823   -51154.55100502
  entropy T*S    EENTRO =         0.00000000
  eigenvalues    EBANDS =     -1186.14424700
  atomic energy  EATOM  =     49563.34056742
  Solvation  Ediel_sol  =         0.00000000
  ---------------------------------------------------
  free energy    TOTEN  =      -149.40879823 eV

  energy without entropy =     -149.40879823  energy(sigma->0) =     -149.40879823


--------------------------------------------------------------------------------------------------------




--------------------------------------- Iteration      1(  10)  ---------------------------------------


    EDDIAG:  cpu time    1.0607: real time    1.0609
  RMM-DIIS:  cpu time    4.0617: real time    4.0617
    ORTHCH:  cpu time    0.2078: real time    0.2078
 BZINTS: Fermi energy:    0.030084;  402.000000 electrons
         Band energy:-0.118614E+04;  BLOECHL correction:   -0.034118
       DOS:  cpu time    0.0104: real time    0.0104
    --------------------------------------------
      LOOP:  cpu time    5.3405: real time    5.3408

 eigenvalue-minimisations  :  6769
 total energy-change (2. order) :-0.1910175E-04  (-0.2043036E-04)
 number of electron     401.9999775 magnetization 
 augmentation part      401.9999775 magnetization 

 Free energy of the ion-electron system (eV)
  ---------------------------------------------------
  alpha Z        PSCENC =       922.53241925
  Ewald energy   TEWEN  =    143199.17630871
  -Hartree energ DENC   =   -190489.08268297
  -exchange      EXHF   =         0.00000000
  -V(xc)+E(xc)   XCENC  =      1553.01134315
  PAW double counting   =     47442.30849823   -51154.55100502
  entropy T*S    EENTRO =         0.00000000
  eigenvalues    EBANDS =     -1186.14426610
  atomic energy  EATOM  =     49563.34056742
  Solvation  Ediel_sol  =         0.00000000
  ---------------------------------------------------
  free energy    TOTEN  =      -149.40881733 eV

  energy without entropy =     -149.40881733  energy(sigma->0) =     -149.40881733


--------------------------------------------------------------------------------------------------------




--------------------------------------- Iteration      1(  11)  ---------------------------------------


    EDDIAG:  cpu time    1.0605: real time    1.0606
  RMM-DIIS:  cpu time    2.7888: real time    2.7889
    ORTHCH:  cpu time    0.2079: real time    0.2079
 BZINTS: Fermi energy:    0.030084;  402.000000 electrons
         Band energy:-0.118614E+04;  BLOECHL correction:   -0.034118
       DOS:  cpu time    0.0100: real time    0.0100
    --------------------------------------------
      LOOP:  cpu time    4.0672: real time    4.0673

 eigenvalue-minimisations  :  4528
 total energy-change (2. order) :-0.4173256E-05  (-0.4429494E-05)
 number of electron     401.9999775 magnetization 
 augmentation part      401.9999775 magnetization 

 Free energy of the ion-electron system (eV)
  ---------------------------------------------------
  alpha Z        PSCENC =       922.53241925
  Ewald energy   TEWEN  =    143199.17630871
  -Hartree energ DENC   =   -190489.08268297
  -exchange      EXHF   =         0.00000000
  -V(xc)+E(xc)   XCENC  =      1553.01134315
  PAW double counting   =     47442.30849823   -51154.55100502
  entropy T*S    EENTRO =         0.00000000
  eigenvalues    EBANDS =     -1186.14427027
  atomic energy  EATOM  =     49563.34056742
  Solvation  Ediel_sol  =         0.00000000
  ---------------------------------------------------
  free energy    TOTEN  =      -149.40882151 eV

  energy without entropy =     -149.40882151  energy(sigma->0) =     -149.40882151


--------------------------------------------------------------------------------------------------------




 average (electrostatic) potential at core
  the test charge radii are     0.9430  1.1873  0.6991  0.7215
  (the norm of the test charge is              1.0000)
       1 -70.9469       2 -70.9261       3 -70.9260       4 -70.9261       5 -70.9411
       6 -70.9258       7 -70.9260       8 -70.9258       9 -70.9339      10 -71.2198
      11 -71.1581      12 -71.2195      13 -71.1581      14 -71.1580      15 -71.1934
      16 -71.2195      17 -71.1934      18 -71.1933      19 -71.1776      20 -71.3520
      21 -71.3518      22 -71.1560      23 -71.3518      24 -71.1562      25 -71.1772
      26 -71.1776      27 -71.1560      28 -70.9528      29 -71.0068      30 -71.0066
      31 -71.0068      32 -71.0066      33 -71.0066      34 -71.0066      35 -70.9421
      36 -46.7576      37 -56.3103      38 -76.8586
 
 
 
 E-fermi :   0.0301     XC(G=0):  -6.0767     alpha+bet : -5.4402

 Fermi energy:         0.0300839943

 k-point     1 :       0.0000    0.0000    0.0000
  band No.  band energies     occupation 
      1     -22.6098      2.00000
      2      -9.0385      2.00000
      3      -8.6022      2.00000
      4      -7.4754      2.00000
      5      -6.3017      2.00000
      6      -5.9039      2.00000
      7      -5.8169      2.00000
      8      -5.8167      2.00000
      9      -5.7498      2.00000
     10      -5.7496      2.00000
     11      -5.7430      2.00000
     12      -5.6707      2.00000
     13      -5.6706      2.00000
     14      -5.5982      2.00000
     15      -5.0574      2.00000
     16      -5.0573      2.00000
     17      -5.0539      2.00000
     18      -5.0074      2.00000
     19      -5.0073      2.00000
     20      -4.9891      2.00000
     21      -4.8503      2.00000
     22      -4.4379      2.00000
     23      -4.4378      2.00000
     24      -4.3189      2.00000
     25      -4.2910      2.00000
     26      -4.2909      2.00000
     27      -4.2819      2.00000
     28      -4.0389      2.00000
     29      -4.0295      2.00000
     30      -4.0294      2.00000
     31      -3.9985      2.00000
     32      -3.9985      2.00000
     33      -3.9836      2.00000
     34      -3.9092      2.00000
     35      -3.9092      2.00000
     36      -3.8379      2.00000
     37      -3.8341      2.00000
     38      -3.8341      2.00000
     39      -3.8330      2.00000
     40      -3.8131      2.00000
     41      -3.8131      2.00000
     42      -3.8114      2.00000
     43      -3.7964      2.00000
     44      -3.7964      2.00000
     45      -3.7901      2.00000
     46      -3.7221      2.00000
     47      -3.7221      2.00000
     48      -3.6813      2.00000
     49      -3.6813      2.00000
     50      -3.5629      2.00000
     51      -3.5551      2.00000
     52      -3.5328      2.00000
     53      -3.5328      2.00000
     54      -3.5044      2.00000
     55      -3.5044      2.00000
     56      -3.5003      2.00000
     57      -3.4908      2.00000
     58      -3.4328      2.00000
     59      -3.4265      2.00000
     60      -3.1721      2.00000
     61      -3.1721      2.00000
     62      -3.1528      2.00000
     63      -3.1528      2.00000
     64      -3.1488      2.00000
     65      -3.1426      2.00000
     66      -3.0720      2.00000
     67      -3.0577      2.00000
     68      -3.0577      2.00000
     69      -3.0462      2.00000
     70      -3.0462      2.00000
     71      -3.0389      2.00000
     72      -3.0389      2.00000
     73      -2.9942      2.00000
     74      -2.9854      2.00000
     75      -2.9853      2.00000
     76      -2.9770      2.00000
     77      -2.9173      2.00000
     78      -2.9116      2.00000
     79      -2.9116      2.00000
     80      -2.8586      2.00000
     81      -2.8585      2.00000
     82      -2.8247      2.00000
     83      -2.8247      2.00000
     84      -2.8068      2.00000
     85      -2.7980      2.00000
     86      -2.7955      2.00000
     87      -2.7955      2.00000
     88      -2.7455      2.00000
     89      -2.7455      2.00000
     90      -2.7343      2.00000
     91      -2.7343      2.00000
     92      -2.7264      2.00000
     93      -2.6971      2.00000
     94      -2.6971      2.00000
     95      -2.6814      2.00000
     96      -2.6814      2.00000
     97      -2.6727      2.00000
     98      -2.6549      2.00000
     99      -2.6549      2.00000
    100      -2.6187      2.00000
    101      -2.6177      2.00000
    102      -2.6177      2.00000
    103      -2.5912      2.00000
    104      -2.5912      2.00000
    105      -2.5570      2.00000
    106      -2.5570      2.00000
    107      -2.5545      2.00000
    108      -2.5471      2.00000
    109      -2.5470      2.00000
    110      -2.5323      2.00000
    111      -2.5323      2.00000
    112      -2.4585      2.00000
    113      -2.3147      2.00000
    114      -2.3082      2.00000
    115      -2.3080      2.00000
    116      -2.3080      2.00000
    117      -2.3024      2.00000
    118      -2.3024      2.00000
    119      -2.2855      2.00000
    120      -2.2855      2.00000
    121      -2.2843      2.00000
    122      -2.2843      2.00000
    123      -2.2741      2.00000
    124      -2.2686      2.00000
    125      -2.2661      2.00000
    126      -2.2437      2.00000
    127      -2.1172      2.00000
    128      -2.1172      2.00000
    129      -2.1093      2.00000
    130      -2.1093      2.00000
    131      -2.0976      2.00000
    132      -2.0976      2.00000
    133      -2.0931      2.00000
    134      -2.0724      2.00000
    135      -2.0724      2.00000
    136      -2.0570      2.00000
    137      -2.0570      2.00000
    138      -2.0203      2.00000
    139      -2.0174      2.00000
    140      -1.9930      2.00000
    141      -1.9929      2.00000
    142      -1.9765      2.00000
    143      -1.9708      2.00000
    144      -1.9707      2.00000
    145      -1.9342      2.00000
    146      -1.9342      2.00000
    147      -1.8799      2.00000
    148      -1.8799      2.00000
    149      -1.8600      2.00000
    150      -1.8570      2.00000
    151      -1.8491      2.00000
    152      -1.8491      2.00000
    153      -1.8319      2.00000
    154      -1.8318      2.00000
    155      -1.8198      2.00000
    156      -1.8046      2.00000
    157      -1.8046      2.00000
    158      -1.7902      2.00000
    159      -1.7859      2.00000
    160      -1.7436      2.00000
    161      -1.7282      2.00000
    162      -1.7251      2.00000
    163      -1.7251      2.00000
    164      -1.7137      2.00000
    165      -1.7088      2.00000
    166      -1.7088      2.00000
    167      -1.7002      2.00000
    168      -1.6885      2.00000
    169      -1.6885      2.00000
    170      -1.6867      2.00000
    171      -1.6820      2.00000
    172      -1.6820      2.00000
    173      -1.6653      2.00000
    174      -1.6653      2.00000
    175      -1.6500      2.00000
    176      -1.6500      2.00000
[...]
  0.000   0.000   0.000   0.000   0.000   0.000   0.000   0.000   0.000   0.000   0.000   0.000   0.000   0.000   0.000   0.000
  0.000   0.000   0.000   0.000   0.000   0.000   0.000   0.000   0.000   0.000   0.000   0.000   0.000   0.000   0.000   0.000
  0.000   0.000   0.000   0.000   0.000   0.000   0.000   0.000   0.000   0.000   1.000   0.000   0.000   0.000   0.000   0.000
  0.000   0.000   0.000   0.000   0.000   0.000   0.000   0.000   0.000   0.000   0.000   0.000   0.000   0.000   0.000   0.000
  0.000   0.000   0.000   0.000   0.000   0.000   0.000   0.000   0.000   0.000   0.000   0.000   0.000   0.000   0.000   0.000
  0.000   0.000   0.000   0.000   0.000   0.000   0.000   0.000   0.000   0.000   0.000   0.000   0.000   0.000   0.000   0.000
  0.000   0.000   0.000   0.000   0.000   0.000   0.000   0.000   0.000   0.000   0.000   0.000   0.000   0.000   0.000   0.000
  0.000   0.000   0.000   0.000   0.000   0.000   0.000   0.000   0.000   0.000   0.000   0.000   0.000   0.000   0.000   0.000
  0.000   0.000   0.000   0.000   0.000   0.000   0.000   0.000   0.000   0.000   0.000   0.000   0.000   0.000   0.000   0.000
  0.000   0.000   0.000   0.000   0.000   0.000   0.000   0.000   0.000   0.000   0.000   0.000   0.000   0.000   0.000   0.000


------------------------ aborting loop because EDIFF is reached ----------------------------------------





 total charge

# of ion       s       p       d       tot
------------------------------------------
    1        0.449   0.283   9.190   9.922
    2        0.449   0.284   9.186   9.920
    3        0.449   0.284   9.186   9.920
    4        0.449   0.284   9.186   9.920
    5        0.449   0.286   9.179   9.914
    6        0.449   0.284   9.186   9.920
    7        0.449   0.284   9.186   9.920
    8        0.449   0.284   9.186   9.920
    9        0.447   0.281   9.191   9.919
   10        0.443   0.372   9.174   9.990
   11        0.445   0.365   9.185   9.995
   12        0.443   0.372   9.174   9.990
   13        0.445   0.365   9.185   9.995
   14        0.445   0.365   9.185   9.995
   15        0.437   0.369   9.177   9.983
   16        0.443   0.372   9.174   9.990
   17        0.437   0.369   9.177   9.983
   18        0.437   0.369   9.177   9.983
   19        0.440   0.366   9.181   9.987
   20        0.466   0.402   9.164  10.032
   21        0.466   0.402   9.164  10.032
   22        0.428   0.370   9.182   9.980
   23        0.466   0.402   9.164  10.032
   24        0.428   0.370   9.182   9.980
   25        0.440   0.366   9.181   9.987
   26        0.440   0.366   9.181   9.987
   27        0.428   0.370   9.182   9.980
   28        0.446   0.287   9.187   9.921
   29        0.461   0.313   9.170   9.944
   30        0.461   0.313   9.170   9.944
   31        0.461   0.313   9.170   9.944
   32        0.461   0.313   9.170   9.944
   33        0.461   0.313   9.170   9.944
   34        0.461   0.313   9.170   9.944
   35        0.441   0.291   9.185   9.917
   36        0.617   0.574   4.967   6.158
   37        0.953   1.561   0.000   2.514
   38        1.610   3.532   0.000   5.141
--------------------------------------------------
tot         18.850  17.418 326.225 362.494
 
    CHARGE:  cpu time    0.2105: real time    0.2106
    FORLOC:  cpu time    0.0081: real time    0.0081
    FORNL :  cpu time    1.1870: real time    1.1871
    STRESS:  cpu time    3.5262: real time    3.5264
    FORCOR:  cpu time    0.0295: real time    0.0296
    FORHAR:  cpu time    0.0123: real time    0.0123
    OFIELD:  cpu time    0.0001: real time    0.0001

  FORCE on cell =-STRESS in cart. coord.  units (eV):
  Direction    XX          YY          ZZ          XY          YZ          ZX
  --------------------------------------------------------------------------------------
  Alpha Z   922.53242   922.53242   922.53242
  Ewald  168936.10077168936.10036************     0.00039     0.00013     0.00017
  Hartree182066.01004182066.01003************     0.00004     0.00007     0.00006
  E(xc)   -2323.61249 -2323.61204 -2327.69579    -0.00039    -0.00003    -0.00005
  Local  ************************363760.86760     0.01873    -0.00061    -0.00096
  n-local  -804.03038  -788.41753  -815.29336     7.91923    -0.11612     0.30776
  augment  3321.34941  3321.36964  3345.44250    -0.01752     0.00031     0.00053
  Kinetic  3419.33009  3426.66271  3422.62275     4.55007     1.66093    -1.15812
  Fock        0.00000     0.00000     0.00000     0.00000     0.00000     0.00000
  -------------------------------------------------------------------------------------
  Total      -5.69139    -5.69139     1.44463     0.00000     0.00000    -0.00000
  in kB      -8.35061    -8.35061     2.11961     0.00000     0.00000    -0.00000
  external pressure =       -4.86 kB  Pullay stress =        0.00 kB


 VOLUME and BASIS-vectors are now :
 -----------------------------------------------------------------------------
  energy-cutoff  :      500.00
  volume of cell :     1091.97
      direct lattice vectors                 reciprocal lattice vectors
     7.696786404  0.000000000  0.000000000     0.129924354 -0.075011849  0.000000000
     3.848392758  6.665612809  0.000000000     0.000000000  0.150023716  0.000000000
     0.000000000  0.000000000 21.284399033     0.000000000  0.000000000  0.046982769

  length of vectors
     7.696786404  7.696786404 21.284399033     0.150023716  0.150023716  0.046982769


 FORCES acting on ions
    electron-ion (+dipol)            ewald-force                    non-local-force                 convergence-correction
 -----------------------------------------------------------------------------------------------
   -.415E-04 0.201E-06 0.348E+04   0.580E-04 -.433E-05 -.348E+04   -.223E-17 0.944E-18 -.285E+01   -.400E-03 -.198E-03 -.153E+00
   -.448E+00 0.139E+00 0.348E+04   0.210E+00 -.667E-01 -.348E+04   0.110E+00 0.746E-01 -.175E+01   0.136E+00 -.117E+00 -.115E+00
   0.448E+00 0.139E+00 0.348E+04   -.210E+00 -.668E-01 -.348E+04   -.110E+00 0.746E-01 -.175E+01   -.135E+00 -.114E+00 -.114E+00
   -.104E+00 -.457E+00 0.348E+04   0.470E-01 0.215E+00 -.348E+04   0.120E+00 0.582E-01 -.175E+01   -.327E-01 0.176E+00 -.115E+00
   -.647E-04 -.518E-05 0.348E+04   0.116E-03 -.101E-04 -.348E+04   0.255E-17 -.194E-17 -.140E+01   0.121E-01 0.741E-02 -.325E-01
   0.104E+00 -.457E+00 0.348E+04   -.471E-01 0.215E+00 -.348E+04   -.120E+00 0.582E-01 -.175E+01   0.312E-01 0.177E+00 -.114E+00
   0.344E+00 0.319E+00 0.348E+04   -.163E+00 -.148E+00 -.348E+04   0.948E-02 -.133E+00 -.175E+01   -.167E+00 -.602E-01 -.114E+00
   -.344E+00 0.319E+00 0.348E+04   0.162E+00 -.148E+00 -.348E+04   -.948E-02 -.133E+00 -.175E+01   0.170E+00 -.617E-01 -.114E+00
   -.144E-03 -.329E-04 0.348E+04   0.263E-03 0.205E-04 -.348E+04   0.303E-17 -.160E-17 -.252E+01   -.131E-01 -.674E-02 -.203E+00
   0.185E+01 0.107E+01 0.119E+04   -.136E+01 -.787E+00 -.119E+04   -.573E+00 -.331E+00 -.122E+01   0.627E-01 0.362E-01 -.117E+00
   -.912E-04 -.166E+00 0.118E+04   0.190E-03 -.344E+00 -.118E+04   -.262E-07 0.393E+00 -.345E+00   0.123E-01 0.555E-01 -.128E+00
   -.185E+01 0.107E+01 0.119E+04   0.136E+01 -.787E+00 -.119E+04   0.573E+00 -.331E+00 -.122E+01   -.646E-01 0.368E-01 -.117E+00
   -.143E+00 0.829E-01 0.118E+04   -.298E+00 0.172E+00 -.118E+04   0.341E+00 -.197E+00 -.345E+00   0.547E-01 -.163E-01 -.128E+00
   0.144E+00 0.829E-01 0.118E+04   0.298E+00 0.172E+00 -.118E+04   -.341E+00 -.197E+00 -.345E+00   -.313E-01 -.184E-01 -.131E+00
   -.143E-03 -.112E+01 0.119E+04   0.298E-03 0.761E+00 -.119E+04   -.130E-07 0.196E+00 -.999E+00   -.323E-02 0.152E+00 -.934E-01
   -.918E-04 -.214E+01 0.119E+04   0.186E-03 0.157E+01 -.119E+04   -.441E-07 0.662E+00 -.122E+01   -.131E-02 -.755E-01 -.117E+00
   -.972E+00 0.561E+00 0.119E+04   0.659E+00 -.380E+00 -.119E+04   0.169E+00 -.978E-01 -.999E+00   0.131E+00 -.790E-01 -.935E-01
   0.972E+00 0.561E+00 0.119E+04   -.659E+00 -.380E+00 -.119E+04   -.169E+00 -.978E-01 -.999E+00   -.129E+00 -.762E-01 -.904E-01
   -.579E-04 -.333E+01 -.112E+04   0.698E-04 0.307E+01 0.111E+04   -.326E-08 0.490E-01 0.960E+00   -.109E-01 0.185E+00 0.823E-01
   -.329E+02 -.190E+02 -.113E+04   0.340E+02 0.196E+02 0.113E+04   -.134E+01 -.773E+00 -.900E+00   0.156E-01 0.886E-02 0.740E-01
   0.329E+02 -.190E+02 -.113E+04   -.340E+02 0.196E+02 0.113E+04   0.134E+01 -.773E+00 -.900E+00   -.346E-01 0.536E-02 0.733E-01
   -.209E+02 0.121E+02 -.112E+04   0.202E+02 -.116E+02 0.112E+04   0.779E+00 -.450E+00 0.837E+00   -.311E-02 0.171E-01 -.124E-01
   -.885E-04 0.380E+02 -.113E+04   0.146E-03 -.393E+02 0.113E+04   -.103E-06 0.155E+01 -.900E+00   -.138E-01 -.339E-01 0.733E-01
   0.209E+02 0.121E+02 -.112E+04   -.202E+02 -.116E+02 0.112E+04   -.779E+00 -.450E+00 0.837E+00   0.270E-01 0.147E-01 -.123E-01
   0.288E+01 0.166E+01 -.112E+04   -.266E+01 -.154E+01 0.111E+04   -.424E-01 -.245E-01 0.960E+00   -.178E+00 -.103E+00 0.819E-01
   -.288E+01 0.166E+01 -.112E+04   0.266E+01 -.154E+01 0.111E+04   0.424E-01 -.245E-01 0.960E+00   0.155E+00 -.102E+00 0.824E-01
   -.114E-03 -.241E+02 -.112E+04   0.241E-03 0.233E+02 0.112E+04   -.599E-07 0.900E+00 0.837E+00   0.132E-01 -.113E-01 -.122E-01
   -.467E-04 0.109E-04 -.336E+04   0.372E-04 -.331E-04 0.335E+04   0.535E-17 -.440E-17 0.226E+01   -.524E-03 -.251E-03 0.313E+00
   -.147E+02 -.214E+02 -.335E+04   0.153E+02 0.222E+02 0.335E+04   -.708E+00 -.907E+00 0.166E+01   0.277E-01 -.207E-01 0.197E+00
   0.147E+02 -.214E+02 -.335E+04   -.153E+02 0.222E+02 0.335E+04   0.708E+00 -.907E+00 0.166E+01   -.266E-01 -.198E-01 0.195E+00
   -.258E+02 -.202E+01 -.335E+04   0.269E+02 0.216E+01 0.335E+04   -.114E+01 -.160E+00 0.166E+01   -.403E-02 0.343E-01 0.196E+00
   0.258E+02 -.202E+01 -.335E+04   -.269E+02 0.216E+01 0.335E+04   0.114E+01 -.160E+00 0.166E+01   0.405E-02 0.345E-01 0.197E+00
   -.112E+02 0.234E+02 -.335E+04   0.116E+02 -.244E+02 0.335E+04   -.431E+00 0.107E+01 0.166E+01   -.304E-01 -.131E-01 0.195E+00
   0.112E+02 0.234E+02 -.335E+04   -.116E+02 -.244E+02 0.335E+04   0.431E+00 0.107E+01 0.166E+01   0.327E-01 -.137E-01 0.197E+00
   -.155E-03 -.299E-04 -.336E+04   0.253E-03 0.419E-05 0.336E+04   0.874E-17 0.302E-17 0.270E+01   -.122E-01 -.620E-02 0.297E+00
   -.294E-04 -.109E-04 -.197E+04   0.892E-04 0.167E-04 0.197E+04   -.229E-19 0.305E-19 -.108E+01   0.740E-03 0.442E-03 0.988E-01
   -.582E-05 -.784E-04 -.118E+04   0.101E-04 0.492E-05 0.117E+04   -.234E-18 0.465E-19 0.149E+02   0.970E-03 0.587E-03 0.516E-01
   0.223E-03 -.748E-04 -.191E+04   0.245E-05 0.244E-05 0.197E+04   -.159E-18 -.293E-18 -.585E+02   0.321E-02 0.197E-02 0.156E-01
 -----------------------------------------------------------------------------------------------
   -.590E-04 -.158E-03 0.518E+02   0.214E-12 0.105E-12 0.130E-10   0.832E-17 0.280E-17 -.520E+02   -.194E-02 -.408E-02 0.296E+00
 
 
 POSITION                                       TOTAL-FORCE (eV/Angst)
 -----------------------------------------------------------------------------------
      0.00000      0.00000      5.37156        -0.000000      0.000000     -0.045196
      2.56560      0.00000      5.37156         0.008460      0.031017      0.049901
      5.13119      0.00000      5.37156        -0.008460      0.031017      0.049901
      1.28280      2.22187      5.37156         0.031091     -0.008182      0.049901
      3.84839      2.22187      5.37156        -0.000000      0.000000      0.000508
      6.41399      2.22187      5.37156        -0.031091     -0.008182      0.049901
      2.56560      4.44374      5.37156         0.022632     -0.022835      0.049901
      5.13119      4.44374      5.37156        -0.022632     -0.022835      0.049901
      7.69679      4.44374      5.37156        -0.000000      0.000000      0.005851
      1.28280      0.74062      7.46636        -0.021175     -0.012225     -0.063245
      3.84839      0.74062      7.46636         0.000000     -0.067709     -0.058577
      6.41399      0.74062      7.46636         0.021175     -0.012225     -0.063245
      2.56560      2.96249      7.46636        -0.058637      0.033854     -0.058577
      5.13119      2.96249      7.46636         0.058637      0.033854     -0.058577
      7.69679      2.96249      7.46636         0.000000     -0.013952      0.020110
      3.84839      5.18437      7.46636        -0.000000      0.024451     -0.063245
      6.41399      5.18437      7.46636        -0.012083      0.006976      0.020110
      8.97958      5.18437      7.46636         0.012083      0.006976      0.020110
      7.69679      1.48486      9.56345         0.000000     -0.014415      0.050943
      2.55359      1.47432      9.53212        -0.198072     -0.114357     -0.338882
      5.14319      1.47432      9.53212         0.198072     -0.114357     -0.338882
      8.97343      3.70667      9.56919         0.059718     -0.034478      0.006542
      3.84839      3.71698      9.53212        -0.000000      0.228713     -0.338882
      6.42014      3.70667      9.56919        -0.059718     -0.034478      0.006542
     10.25925      5.92318      9.56345         0.012484      0.007207      0.050943
      5.13432      5.92318      9.56345        -0.012484      0.007207      0.050943
      7.69679      5.91789      9.56919        -0.000000      0.068956      0.006542
      0.00000      0.00000     11.65394        -0.000000     -0.000000     -0.101759
      2.56263      0.00314     11.68588        -0.036715     -0.081518     -0.042823
      5.13415      0.00314     11.68588         0.036715     -0.081518     -0.042823
      1.28404      2.21774     11.68588        -0.088954      0.008963     -0.042823
      6.41275      2.21774     11.68588         0.088954      0.008963     -0.042823
      2.56979      4.44474     11.68588        -0.052240      0.072555     -0.042823
      5.12699      4.44474     11.68588         0.052240      0.072555     -0.042823
      7.69679      4.44374     11.65455        -0.000000     -0.000000     -0.080024
      3.84839      2.22187     11.57229        -0.000000      0.000000      1.317860
      3.84839      2.22187     13.50673        -0.000000      0.000000      0.008150
      3.84839      2.22187     14.68127        -0.000000      0.000000      0.001474
 -----------------------------------------------------------------------------------
    total drift:                               -0.001996     -0.004235      0.054833


--------------------------------------------------------------------------------------------------------



  FREE ENERGIE OF THE ION-ELECTRON SYSTEM (eV)
  ---------------------------------------------------
  free  energy   TOTEN  =      -149.40882151 eV

  energy  without entropy=     -149.40882151  energy(sigma->0) =     -149.40882151
 


--------------------------------------------------------------------------------------------------------


    POTLOK:  cpu time    0.0292: real time    0.0292


--------------------------------------------------------------------------------------------------------


 stress matrix after NEB project (eV)
     -5.69139      0.00000     -0.00000
      0.00000     -5.69139     -0.00000
     -0.00000      0.00000      1.44463
  FORCES: max atom, RMS     0.008150    0.001343
  FORCE total and by dimension    0.008282    0.008150
  Stress total and by dimension    8.177458    5.691391
     LOOP+:  cpu time   73.6378: real time   73.6508
 -----------------------------------------------------------------------------
|                                                                             |
|           W    W    AA    RRRRR   N    N  II  N    N   GGGG   !!!           |
|           W    W   A  A   R    R  NN   N  II  NN   N  G    G  !!!           |
|           W    W  A    A  R    R  N N  N  II  N N  N  G       !!!           |
|           W WW W  AAAAAA  RRRRR   N  N N  II  N  N N  G  GGG   !            |
|           WW  WW  A    A  R   R   N   NN  II  N   NN  G    G                |
|           W    W  A    A  R    R  N    N  II  N    N   GGGG   !!!           |
|                                                                             |
|     Tetrahedron method does not include variations of the Fermi             |
|     occupations, so forces and stress will be inaccurate. We suggest        |
|     using a different smearing scheme ISMEAR = 1 or 2 for metals in         |
|     relaxations.                                                            |
|                                                                             |
 -----------------------------------------------------------------------------

    4ORBIT:  cpu time    0.0000: real time    0.0000



 total charge

# of ion       s       p       d       tot
------------------------------------------
    1        0.449   0.283   9.190   9.922
    2        0.449   0.284   9.186   9.920
    3        0.449   0.284   9.186   9.920
    4        0.449   0.284   9.186   9.920
    5        0.449   0.286   9.179   9.914
    6        0.449   0.284   9.186   9.920
    7        0.449   0.284   9.186   9.920
    8        0.449   0.284   9.186   9.920
    9        0.447   0.281   9.191   9.919
   10        0.443   0.372   9.174   9.990
   11        0.445   0.365   9.185   9.995
   12        0.443   0.372   9.174   9.990
   13        0.445   0.365   9.185   9.995
   14        0.445   0.365   9.185   9.995
   15        0.437   0.369   9.177   9.983
   16        0.443   0.372   9.174   9.990
   17        0.437   0.369   9.177   9.983
   18        0.437   0.369   9.177   9.983
   19        0.440   0.366   9.181   9.987
   20        0.466   0.402   9.164  10.032
   21        0.466   0.402   9.164  10.032
   22        0.428   0.370   9.182   9.980
   23        0.466   0.402   9.164  10.032
   24        0.428   0.370   9.182   9.980
   25        0.440   0.366   9.181   9.987
   26        0.440   0.366   9.181   9.987
   27        0.428   0.370   9.182   9.980
   28        0.446   0.287   9.187   9.921
   29        0.461   0.313   9.170   9.944
   30        0.461   0.313   9.170   9.944
   31        0.461   0.313   9.170   9.944
   32        0.461   0.313   9.170   9.944
   33        0.461   0.313   9.170   9.944
   34        0.461   0.313   9.170   9.944
   35        0.441   0.291   9.185   9.917
   36        0.617   0.574   4.967   6.158
   37        0.953   1.561   0.000   2.514
   38        1.610   3.532   0.000   5.141
--------------------------------------------------
tot         18.850  17.418 326.225 362.494
 
 BZINTS: Fermi energy:    0.030084;  402.000000 electrons
         Band energy:-0.118614E+04;  BLOECHL correction:   -0.034118

 total amount of memory used by VASP MPI-rank0   105359. kBytes
=======================================================================

   base      :      30000. kBytes
   nonlr-proj:      17970. kBytes
   fftplans  :       2916. kBytes
   grid      :      12878. kBytes
   one-center:        590. kBytes
   wavefun   :      41005. kBytes
 
  
  
 General timing and accounting informations for this job:
 ========================================================
  
                  Total CPU time used (sec):       79.612
                            User time (sec):       76.650
                          System time (sec):        2.962
                         Elapsed time (sec):       80.096
  
                   Maximum memory used (kb):      344516.
                   Average memory used (kb):          N/A
  
                          Minor page faults:        78528
                          Major page faults:            0
                 Voluntary context switches:         4540
