PROCAR new format
# of k-points:   10         # of bands:  252         # of ions:   38

 k-point     1 :    0.00000000 0.00000000 0.00000000     weight = 0.01562500

band     1 # energy  -22.60980712 # occ.  2.00000000
 
ion      s      p      d    tot
    1  0.000  0.000  0.000  0.000
    2  0.000  0.000  0.000  0.000
    3  0.000  0.000  0.000  0.000
    4  0.000  0.000  0.000  0.000
    5  0.000  0.000  0.000  0.000
    6  0.000  0.000  0.000  0.000
    7  0.000  0.000  0.000  0.000
    8  0.000  0.000  0.000  0.000
    9  0.000  0.000  0.000  0.000
   10  0.000  0.000  0.000  0.000
   11  0.000  0.000  0.000  0.000
   12  0.000  0.000  0.000  0.000
   13  0.000  0.000  0.000  0.000
   14  0.000  0.000  0.000  0.000
   15  0.000  0.000  0.000  0.000
   16  0.000  0.000  0.000  0.000
   17  0.000  0.000  0.000  0.000
   18  0.000  0.000  0.000  0.000
   19  0.000  0.000  0.000  0.000
   20  0.000  0.000  0.000  0.000
   21  0.000  0.000  0.000  0.000
   22  0.000  0.000  0.000  0.000
   23  0.000  0.000  0.000  0.000
   24  0.000  0.000  0.000  0.000
   25  0.000  0.000  0.000  0.000
   26  0.000  0.000  0.000  0.000
   27  0.000  0.000  0.000  0.000
   28  0.000  0.000  0.000  0.000
   29  0.000  0.000  0.000  0.000
   30  0.000  0.000  0.000  0.000
   31  0.000  0.000  0.000  0.000
   32  0.000  0.000  0.000  0.000
   33  0.000  0.000  0.000  0.000
   34  0.000  0.000  0.000  0.000
   35  0.000  0.000  0.000  0.000
   36  0.000  0.000  0.000  0.001
   37  0.156  0.112  0.000  0.268
   38  0.636  0.093  0.000  0.728
tot    0.792  0.205  0.000  0.997
 
band     2 # energy   -9.03850445 # occ.  2.00000000
 
ion      s      p      d    tot
    1  0.001  0.000  0.000  0.002
    2  0.001  0.000  0.000  0.002
    3  0.001  0.000  0.000  0.002
    4  0.001  0.000  0.000  0.002
    5  0.001  0.000  0.000  0.002
    6  0.001  0.000  0.000  0.002
    7  0.001  0.000  0.000  0.002
    8  0.001  0.000  0.000  0.002
    9  0.001  0.000  0.000  0.001
   10  0.007  0.000  0.000  0.007
   11  0.007  0.000  0.000  0.007
   12  0.007  0.000  0.000  0.007
   13  0.007  0.000  0.000  0.007
   14  0.007  0.000  0.000  0.007
   15  0.006  0.000  0.000  0.006
   16  0.007  0.000  0.000  0.007
   17  0.006  0.000  0.000  0.006
   18  0.006  0.000  0.000  0.006
   19  0.010  0.000  0.000  0.010
   20  0.018  0.001  0.001  0.019
   21  0.018  0.001  0.001  0.019
   22  0.010  0.000  0.000  0.010
   23  0.018  0.001  0.001  0.019
   24  0.010  0.000  0.000  0.010
   25  0.010  0.000  0.000  0.010
   26  0.010  0.000  0.000  0.010
   27  0.010  0.000  0.000  0.010
   28  0.004  0.000  0.000  0.004
   29  0.007  0.000  0.000  0.008
   30  0.007  0.000  0.000  0.008
   31  0.007  0.000  0.000  0.008
   32  0.007  0.000  0.000  0.008
   33  0.007  0.000  0.000  0.008
   34  0.007  0.000  0.000  0.008
   35  0.004  0.000  0.000  0.004
   36  0.085  0.009  0.045  0.139
   37  0.162  0.017  0.000  0.179
   38  0.063  0.064  0.000  0.127
tot    0.544  0.097  0.048  0.689
 
band     3 # energy   -8.60217984 # occ.  2.00000000
 
ion      s      p      d    tot
    1  0.006  0.001  0.000  0.007
    2  0.006  0.001  0.000  0.007
    3  0.006  0.001  0.000  0.007
    4  0.006  0.001  0.000  0.007
    5  0.006  0.001  0.000  0.007
    6  0.006  0.001  0.000  0.007
    7  0.006  0.001  0.000  0.007
    8  0.006  0.001  0.000  0.007
    9  0.006  0.001  0.000  0.007
   10  0.019  0.000  0.000  0.019
   11  0.018  0.000  0.000  0.018
   12  0.019  0.000  0.000  0.019
   13  0.018  0.000  0.000  0.018
   14  0.018  0.000  0.000  0.018
   15  0.019  0.000  0.000  0.019
   16  0.019  0.000  0.000  0.019
   17  0.019  0.000  0.000  0.019
   18  0.019  0.000  0.000  0.019
   19  0.014  0.000  0.000  0.014
   20  0.009  0.001  0.000  0.010
   21  0.009  0.001  0.000  0.010
   22  0.013  0.000  0.000  0.014
   23  0.009  0.001  0.000  0.010
   24  0.013  0.000  0.000  0.014
   25  0.014  0.000  0.000  0.014
   26  0.014  0.000  0.000  0.014
   27  0.013  0.000  0.000  0.014
   28  0.002  0.000  0.000  0.003
   29  0.001  0.001  0.000  0.002
   30  0.001  0.001  0.000  0.002
   31  0.001  0.001  0.000  0.002
   32  0.001  0.001  0.000  0.002
   33  0.001  0.001  0.000  0.002
   34  0.001  0.001  0.000  0.002
   35  0.002  0.000  0.000  0.003
   36  0.009  0.015  0.029  0.053
   37  0.114  0.005  0.000  0.118
   38  0.052  0.071  0.000  0.123
tot    0.518  0.105  0.032  0.655
 
band     4 # energy   -7.47544941 # occ.  2.00000000
 
ion      s      p      d    tot
    1  0.016  0.001  0.000  0.018
    2  0.016  0.001  0.000  0.017
    3  0.016  0.001  0.000  0.017
    4  0.016  0.001  0.000  0.017
    5  0.016  0.001  0.000  0.017
    6  0.016  0.001  0.000  0.017
    7  0.016  0.001  0.000  0.017
    8  0.016  0.001  0.000  0.017
    9  0.016  0.001  0.000  0.018
   10  0.009  0.002  0.000  0.012
   11  0.009  0.002  0.000  0.012
   12  0.009  0.002  0.000  0.012
   13  0.009  0.002  0.000  0.012
   14  0.009  0.002  0.000  0.012
   15  0.009  0.002  0.000  0.012
   16  0.009  0.002  0.000  0.012
   17  0.009  0.002  0.000  0.012
   18  0.009  0.002  0.000  0.012
   19  0.009  0.002  0.000  0.012
   20  0.009  0.002  0.000  0.011
   21  0.009  0.002  0.000  0.011
   22  0.009  0.002  0.000  0.012
   23  0.009  0.002  0.000  0.011
   24  0.009  0.002  0.000  0.012
   25  0.009  0.002  0.000  0.012
   26  0.009  0.002  0.000  0.012
   27  0.009  0.002  0.000  0.012
   28  0.017  0.001  0.001  0.018
   29  0.017  0.001  0.001  0.018
   30  0.017  0.001  0.001  0.018
   31  0.017  0.001  0.001  0.018
   32  0.017  0.001  0.001  0.018
   33  0.017  0.001  0.001  0.018
   34  0.017  0.001  0.001  0.018
   35  0.017  0.001  0.000  0.018
   36  0.021  0.003  0.005  0.028
   37  0.014  0.003  0.000  0.016
   38  0.013  0.041  0.000  0.054
tot    0.492  0.095  0.023  0.610
 
band     5 # energy   -6.30168310 # occ.  2.00000000
 
ion      s      p      d    tot
    1  0.001  0.000  0.000  0.002
    2  0.002  0.000  0.000  0.002
    3  0.002  0.000  0.000  0.002
    4  0.002  0.000  0.000  0.002
    5  0.005  0.000  0.000  0.005
    6  0.002  0.000  0.000  0.002
    7  0.002  0.000  0.000  0.002
    8  0.002  0.000  0.000  0.002
    9  0.001  0.000  0.001  0.001
   10  0.000  0.001  0.001  0.002
   11  0.001  0.001  0.001  0.003
   12  0.000  0.001  0.001  0.002
   13  0.001  0.001  0.001  0.003
   14  0.001  0.001  0.001  0.003
   15  0.002  0.001  0.000  0.003
   16  0.000  0.001  0.001  0.002
   17  0.002  0.001  0.000  0.003
   18  0.002  0.001  0.000  0.003
   19  0.009  0.000  0.002  0.011
   20  0.003  0.004  0.006  0.014
   21  0.003  0.004  0.006  0.014
   22  0.007  0.001  0.001  0.009
   23  0.003  0.004  0.006  0.014
   24  0.007  0.001  0.001  0.009
   25  0.009  0.000  0.002  0.011
   26  0.009  0.000  0.002  0.011
   27  0.007  0.001  0.001  0.009
   28  0.003  0.001  0.000  0.004
   29  0.000  0.001  0.001  0.003
   30  0.000  0.001  0.001  0.003
   31  0.000  0.001  0.001  0.003
   32  0.000  0.001  0.001  0.003
   33  0.000  0.001  0.001  0.003
   34  0.000  0.001  0.001  0.003
   35  0.004  0.001  0.000  0.005
   36  0.076  0.005  0.072  0.153
   37  0.001  0.158  0.000  0.159
   38  0.038  0.292  0.000  0.330
tot    0.207  0.491  0.116  0.815
 
band     6 # energy   -5.90387511 # occ.  2.00000000
 
ion      s      p      d    tot
    1  0.015  0.000  0.005  0.020
    2  0.014  0.000  0.005  0.019
    3  0.014  0.000  0.005  0.019
    4  0.014  0.000  0.005  0.019
    5  0.007  0.000  0.006  0.013
    6  0.014  0.000  0.005  0.019
    7  0.014  0.000  0.005  0.019
    8  0.014  0.000  0.005  0.019
    9  0.024  0.000  0.004  0.027
   10  0.003  0.003  0.002  0.009
   11  0.009  0.005  0.001  0.015
   12  0.003  0.003  0.002  0.009
   13  0.009  0.005  0.001  0.015
   14  0.009  0.005  0.001  0.015
   15  0.000  0.003  0.003  0.006
   16  0.003  0.003  0.002  0.009
   17  0.000  0.003  0.003  0.006
   18  0.000  0.003  0.003  0.006
   19  0.002  0.003  0.005  0.009
   20  0.018  0.004  0.005  0.028
   21  0.018  0.004  0.005  0.028
   22  0.001  0.003  0.004  0.008
   23  0.018  0.004  0.005  0.028
   24  0.001  0.003  0.004  0.008
   25  0.002  0.003  0.005  0.009
   26  0.002  0.003  0.005  0.009
   27  0.001  0.003  0.004  0.008
   28  0.018  0.000  0.005  0.024
   29  0.017  0.000  0.007  0.024
   30  0.017  0.000  0.007  0.024
   31  0.017  0.000  0.007  0.024
   32  0.017  0.000  0.007  0.024
   33  0.017  0.000  0.007  0.024
   34  0.017  0.000  0.007  0.024
   35  0.024  0.000  0.005  0.029
   36  0.005  0.001  0.033  0.040
   37  0.000  0.001  0.000  0.001
   38  0.000  0.000  0.000  0.000
tot    0.379  0.067  0.193  0.639
 
band     7 # energy   -5.81686233 # occ.  2.00000000
 
ion      s      p      d    tot
    1  0.000  0.002  0.005  0.007
    2  0.008  0.002  0.002  0.012
    3  0.001  0.001  0.002  0.004
    4  0.008  0.002  0.002  0.012
    5  0.000  0.002  0.003  0.005
    6  0.003  0.001  0.002  0.006
    7  0.001  0.001  0.002  0.004
    8  0.003  0.001  0.002  0.006
    9  0.000  0.000  0.002  0.002
   10  0.053  0.004  0.003  0.061
   11  0.006  0.009  0.004  0.019
   12  0.013  0.002  0.011  0.026
   13  0.006  0.009  0.004  0.019
   14  0.025  0.000  0.006  0.032
   15  0.001  0.004  0.006  0.012
   16  0.013  0.002  0.011  0.026
   17  0.001  0.004  0.006  0.012
   18  0.005  0.002  0.003  0.010
   19  0.006  0.009  0.003  0.019
   20  0.067  0.003  0.007  0.077
   21  0.017  0.002  0.015  0.034
   22  0.002  0.004  0.008  0.013
   23  0.017  0.002  0.015  0.034
   24  0.006  0.003  0.003  0.012
   25  0.024  0.000  0.006  0.031
   26  0.006  0.009  0.003  0.019
   27  0.002  0.004  0.007  0.013
   28  0.000  0.002  0.003  0.005
   29  0.008  0.003  0.004  0.015
   30  0.004  0.001  0.002  0.007
   31  0.008  0.003  0.004  0.015
   32  0.001  0.001  0.004  0.006
   33  0.004  0.001  0.002  0.007
   34  0.001  0.001  0.004  0.006
   35  0.000  0.000  0.002  0.002
   36  0.000  0.003  0.027  0.030
   37  0.000  0.010  0.000  0.010
   38  0.000  0.019  0.000  0.019
tot    0.321  0.133  0.197  0.652
 
band     8 # energy   -5.81672072 # occ.  2.00000000
 
ion      s      p      d    tot
    1  0.000  0.002  0.005  0.007
    2  0.000  0.001  0.002  0.002
    3  0.007  0.002  0.002  0.011
    4  0.000  0.001  0.002  0.002
    5  0.000  0.002  0.003  0.005
    6  0.005  0.002  0.002  0.009
    7  0.007  0.002  0.002  0.011
    8  0.005  0.002  0.002  0.009
    9  0.000  0.000  0.002  0.002
   10  0.000  0.001  0.013  0.015
   11  0.019  0.003  0.005  0.027
   12  0.040  0.004  0.006  0.049
   13  0.019  0.003  0.005  0.028
   14  0.000  0.012  0.003  0.015
   15  0.004  0.003  0.004  0.011
   16  0.040  0.004  0.006  0.049
   17  0.004  0.003  0.004  0.011
   18  0.000  0.005  0.008  0.013
   19  0.018  0.003  0.005  0.027
   20  0.000  0.002  0.018  0.020
   21  0.050  0.003  0.010  0.063
   22  0.005  0.003  0.004  0.013
   23  0.050  0.003  0.010  0.062
   24  0.000  0.005  0.009  0.014
   25  0.000  0.012  0.002  0.015
   26  0.018  0.003  0.005  0.027
   27  0.005  0.003  0.004  0.013
   28  0.000  0.002  0.003  0.006
   29  0.000  0.000  0.003  0.004
   30  0.005  0.002  0.004  0.012
   31  0.000  0.000  0.003  0.004
   32  0.008  0.002  0.003  0.013
   33  0.005  0.002  0.004  0.012
   34  0.008  0.002  0.003  0.013
   35  0.000  0.000  0.002  0.002
   36  0.000  0.003  0.027  0.030
   37  0.000  0.010  0.000  0.010
   38  0.000  0.019  0.000  0.019
tot    0.321  0.133  0.197  0.652
 
band     9 # energy   -5.74976476 # occ.  2.00000000
 
ion      s      p      d    tot
    1  0.000  0.001  0.002  0.003
    2  0.010  0.002  0.002  0.014
    3  0.002  0.001  0.002  0.005
    4  0.010  0.002  0.002  0.014
    5  0.000  0.001  0.004  0.005
    6  0.003  0.001  0.002  0.007
    7  0.002  0.001  0.002  0.005
    8  0.003  0.001  0.002  0.007
    9  0.000  0.003  0.005  0.008
   10  0.000  0.012  0.003  0.014
   11  0.025  0.003  0.005  0.034
   12  0.002  0.003  0.005  0.010
   13  0.025  0.003  0.005  0.034
   14  0.000  0.000  0.015  0.015
   15  0.040  0.004  0.006  0.050
   16  0.002  0.003  0.005  0.010
   17  0.040  0.004  0.006  0.050
   18  0.000  0.008  0.009  0.017
   19  0.027  0.003  0.006  0.036
   20  0.000  0.013  0.002  0.015
   21  0.002  0.004  0.005  0.010
   22  0.042  0.004  0.006  0.052
   23  0.002  0.004  0.005  0.010
   24  0.000  0.008  0.008  0.017
   25  0.000  0.000  0.016  0.017
   26  0.027  0.003  0.006  0.036
   27  0.042  0.004  0.006  0.052
   28  0.000  0.001  0.005  0.006
   29  0.012  0.003  0.003  0.018
   30  0.003  0.002  0.003  0.008
   31  0.012  0.003  0.003  0.018
   32  0.003  0.001  0.003  0.007
   33  0.003  0.002  0.003  0.008
   34  0.003  0.001  0.003  0.007
   35  0.000  0.004  0.005  0.009
   36  0.000  0.001  0.008  0.009
   37  0.000  0.000  0.000  0.000
   38  0.000  0.000  0.000  0.000
tot    0.342  0.116  0.179  0.637
 
band    10 # energy   -5.74963590 # occ.  2.00000000
 
ion      s      p      d    tot
    1  0.000  0.001  0.002  0.003
    2  0.000  0.001  0.002  0.003
    3  0.008  0.002  0.002  0.013
    4  0.000  0.001  0.002  0.003
    5  0.000  0.001  0.004  0.005
    6  0.006  0.002  0.002  0.010
    7  0.008  0.002  0.002  0.013
    8  0.007  0.002  0.002  0.010
    9  0.000  0.003  0.005  0.008
   10  0.003  0.001  0.006  0.009
   11  0.008  0.001  0.012  0.021
   12  0.001  0.009  0.003  0.013
   13  0.008  0.001  0.012  0.022
   14  0.033  0.004  0.002  0.040
   15  0.013  0.006  0.008  0.028
   16  0.001  0.009  0.003  0.013
   17  0.013  0.006  0.008  0.028
   18  0.054  0.002  0.005  0.061
   19  0.009  0.001  0.013  0.023
   20  0.002  0.001  0.006  0.009
   21  0.001  0.010  0.003  0.013
   22  0.014  0.007  0.008  0.029
   23  0.001  0.010  0.003  0.013
   24  0.056  0.002  0.005  0.063
   25  0.036  0.005  0.002  0.043
   26  0.009  0.001  0.013  0.023
   27  0.014  0.007  0.008  0.028
   28  0.000  0.001  0.005  0.006
   29  0.000  0.001  0.003  0.004
   30  0.009  0.002  0.003  0.014
   31  0.000  0.001  0.003  0.004
   32  0.009  0.003  0.003  0.015
   33  0.009  0.002  0.003  0.014
   34  0.009  0.003  0.003  0.015
   35  0.000  0.004  0.005  0.009
   36  0.000  0.001  0.008  0.009
   37  0.000  0.000  0.000  0.000
   38  0.000  0.000  0.000  0.000
tot    0.342  0.116  0.179  0.637
 
band    11 # energy   -5.74298560 # occ.  2.00000000
 
ion      s      p      d    tot
    1  0.023  0.003  0.001  0.027
    2  0.000  0.002  0.004  0.006
    3  0.000  0.002  0.004  0.006
    4  0.000  0.002  0.004  0.006
    5  0.001  0.000  0.001  0.002
    6  0.000  0.002  0.004  0.006
    7  0.000  0.002  0.004  0.006
    8  0.000  0.002  0.004  0.006
    9  0.008  0.001  0.000  0.010
   10  0.030  0.006  0.006  0.041
   11  0.006  0.000  0.012  0.018
   12  0.030  0.006  0.006  0.041
   13  0.006  0.000  0.012  0.018
   14  0.006  0.000  0.012  0.018
   15  0.012  0.008  0.003  0.023
   16  0.030  0.006  0.006  0.041
   17  0.012  0.008  0.003  0.023
   18  0.011  0.008  0.003  0.023
   19  0.022  0.009  0.002  0.033
   20  0.000  0.003  0.011  0.013
   21  0.000  0.003  0.011  0.014
   22  0.024  0.002  0.009  0.035
   23  0.000  0.003  0.011  0.014
   24  0.024  0.002  0.009  0.035
   25  0.022  0.009  0.002  0.033
   26  0.022  0.009  0.002  0.033
   27  0.024  0.002  0.009  0.035
   28  0.020  0.003  0.000  0.022
   29  0.000  0.002  0.004  0.006
   30  0.000  0.002  0.004  0.006
   31  0.000  0.002  0.004  0.006
   32  0.000  0.002  0.004  0.006
   33  0.000  0.002  0.004  0.006
   34  0.000  0.002  0.004  0.006
   35  0.011  0.002  0.001  0.014
   36  0.000  0.000  0.000  0.000
   37  0.000  0.000  0.000  0.000
   38  0.000  0.000  0.000  0.000
tot    0.344  0.114  0.180  0.638
 
band    12 # energy   -5.67067725 # occ.  2.00000000
 
ion      s      p      d    tot
    1  0.000  0.000  0.000  0.000
    2  0.001  0.000  0.000  0.001
    3  0.000  0.000  0.000  0.000
    4  0.001  0.000  0.000  0.001
    5  0.000  0.000  0.000  0.000
    6  0.000  0.000  0.000  0.000
    7  0.000  0.000  0.000  0.000
    8  0.000  0.000  0.000  0.000
    9  0.000  0.000  0.000  0.000
   10  0.003  0.000  0.000  0.004
   11  0.000  0.001  0.000  0.001
   12  0.001  0.000  0.001  0.002
   13  0.000  0.001  0.000  0.001
   14  0.002  0.000  0.000  0.002
   15  0.000  0.000  0.000  0.001
   16  0.001  0.000  0.001  0.002
   17  0.000  0.000  0.000  0.001
   18  0.000  0.000  0.000  0.001
   19  0.000  0.001  0.000  0.001
   20  0.002  0.001  0.000  0.003
   21  0.001  0.000  0.001  0.001
   22  0.000  0.000  0.000  0.001
   23  0.001  0.000  0.001  0.001
   24  0.000  0.000  0.000  0.001
   25  0.002  0.000  0.000  0.002
   26  0.000  0.001  0.000  0.001
   27  0.000  0.000  0.000  0.001
   28  0.000  0.000  0.001  0.001
   29  0.004  0.001  0.001  0.006
   30  0.000  0.000  0.001  0.001
   31  0.004  0.001  0.001  0.006
   32  0.002  0.001  0.001  0.003
   33  0.000  0.000  0.001  0.001
   34  0.002  0.001  0.001  0.003
   35  0.000  0.000  0.001  0.001
   36  0.000  0.006  0.026  0.032
   37  0.000  0.172  0.000  0.172
   38  0.000  0.401  0.000  0.401
tot    0.027  0.588  0.043  0.658
 
band    13 # energy   -5.67059053 # occ.  2.00000000
 
ion      s      p      d    tot
    1  0.000  0.000  0.000  0.000
    2  0.000  0.000  0.000  0.000
    3  0.001  0.000  0.000  0.001
    4  0.000  0.000  0.000  0.000
    5  0.000  0.000  0.000  0.000
    6  0.000  0.000  0.000  0.001
    7  0.001  0.000  0.000  0.001
    8  0.000  0.000  0.000  0.001
    9  0.000  0.000  0.000  0.000
   10  0.000  0.000  0.001  0.001
   11  0.001  0.000  0.000  0.002
   12  0.002  0.000  0.000  0.003
   13  0.001  0.000  0.000  0.002
   14  0.000  0.001  0.000  0.001
   15  0.000  0.000  0.000  0.001
   16  0.002  0.000  0.000  0.003
   17  0.000  0.000  0.000  0.001
   18  0.000  0.000  0.000  0.001
   19  0.001  0.000  0.000  0.002
   20  0.000  0.000  0.001  0.001
   21  0.002  0.000  0.001  0.003
   22  0.000  0.000  0.000  0.001
   23  0.002  0.000  0.001  0.003
   24  0.000  0.000  0.001  0.001
   25  0.000  0.001  0.000  0.001
   26  0.001  0.000  0.000  0.002
   27  0.000  0.000  0.000  0.001
   28  0.000  0.000  0.001  0.001
   29  0.000  0.000  0.001  0.001
   30  0.003  0.001  0.001  0.006
   31  0.000  0.000  0.001  0.001
   32  0.002  0.000  0.001  0.003
   33  0.003  0.001  0.001  0.006
   34  0.002  0.000  0.001  0.003
   35  0.000  0.000  0.001  0.001
   36  0.000  0.006  0.026  0.032
   37  0.000  0.172  0.000  0.172
   38  0.000  0.401  0.000  0.401
tot    0.027  0.588  0.043  0.658
 
band    14 # energy   -5.59822082 # occ.  2.00000000
 
ion      s      p      d    tot
    1  0.000  0.000  0.000  0.001
    2  0.001  0.002  0.006  0.009
    3  0.001  0.002  0.006  0.009
    4  0.001  0.002  0.006  0.009
    5  0.034  0.003  0.000  0.037
    6  0.001  0.002  0.006  0.009
    7  0.001  0.002  0.006  0.009
    8  0.001  0.002  0.006  0.009
    9  0.008  0.002  0.003  0.013
   10  0.002  0.003  0.009  0.014
   11  0.022  0.009  0.002  0.033
   12  0.002  0.003  0.009  0.014
   13  0.022  0.009  0.002  0.033
   14  0.022  0.009  0.002  0.033
   15  0.025  0.002  0.011  0.038
   16  0.002  0.003  0.009  0.014
   17  0.025  0.002  0.011  0.038
   18  0.025  0.002  0.011  0.038
   19  0.004  0.001  0.006  0.011
   20  0.012  0.002  0.011  0.025
   21  0.012  0.002  0.011  0.025
   22  0.006  0.005  0.004  0.015
   23  0.012  0.002  0.011  0.025
   24  0.006  0.005  0.004  0.015
   25  0.004  0.001  0.006  0.011
   26  0.004  0.001  0.006  0.011
   27  0.006  0.005  0.004  0.015
   28  0.001  0.000  0.002  0.003
   29  0.002  0.000  0.003  0.006
   30  0.002  0.000  0.003  0.006
   31  0.002  0.000  0.003  0.006
   32  0.002  0.000  0.003  0.006
   33  0.002  0.000  0.003  0.006
   34  0.002  0.000  0.003  0.006
   35  0.000  0.000  0.001  0.002
   36  0.000  0.012  0.040  0.052
   37  0.006  0.039  0.000  0.044
   38  0.003  0.043  0.000  0.045
tot    0.279  0.183  0.231  0.694
 
band    15 # energy   -5.05737968 # occ.  2.00000000
 
ion      s      p      d    tot
    1  0.000  0.003  0.010  0.012
    2  0.018  0.003  0.005  0.026
    3  0.002  0.002  0.004  0.007
    4  0.018  0.003  0.005  0.026
    5  0.000  0.000  0.009  0.010
    6  0.009  0.002  0.005  0.016
    7  0.002  0.002  0.004  0.007
    8  0.009  0.002  0.005  0.016
    9  0.000  0.005  0.008  0.013
   10  0.000  0.005  0.015  0.019
   11  0.006  0.002  0.009  0.016
   12  0.004  0.001  0.009  0.014
   13  0.006  0.002  0.009  0.016
   14  0.000  0.001  0.015  0.016
   15  0.019  0.003  0.008  0.030
   16  0.004  0.001  0.009  0.014
   17  0.019  0.003  0.008  0.030
   18  0.000  0.001  0.020  0.021
   19  0.007  0.004  0.009  0.020
   20  0.000  0.003  0.024  0.027
   21  0.000  0.001  0.014  0.015
   22  0.009  0.003  0.009  0.021
   23  0.000  0.001  0.014  0.015
   24  0.000  0.001  0.026  0.028
   25  0.000  0.000  0.011  0.011
   26  0.007  0.004  0.009  0.020
   27  0.009  0.003  0.009  0.021
   28  0.000  0.003  0.008  0.011
   29  0.024  0.003  0.009  0.036
   30  0.001  0.002  0.010  0.014
   31  0.024  0.003  0.009  0.036
   32  0.015  0.002  0.009  0.025
   33  0.001  0.002  0.010  0.014
   34  0.015  0.002  0.009  0.025
   35  0.000  0.006  0.008  0.014
   36  0.000  0.001  0.038  0.038
   37  0.000  0.000  0.000  0.000
   38  0.000  0.000  0.000  0.000
tot    0.225  0.090  0.389  0.705
 
band    16 # energy   -5.05731206 # occ.  2.00000000
 
ion      s      p      d    tot
    1  0.000  0.003  0.010  0.012
    2  0.001  0.002  0.004  0.007
    3  0.017  0.003  0.005  0.026
    4  0.001  0.002  0.004  0.007
    5  0.000  0.000  0.009  0.010
    6  0.010  0.002  0.004  0.017
    7  0.017  0.003  0.005  0.025
    8  0.010  0.002  0.004  0.017
    9  0.000  0.005  0.008  0.013
   10  0.006  0.000  0.006  0.012
   11  0.002  0.002  0.013  0.016
   12  0.001  0.004  0.013  0.017
   13  0.002  0.002  0.013  0.016
   14  0.008  0.002  0.007  0.016
   15  0.006  0.002  0.016  0.024
   16  0.001  0.004  0.013  0.017
   17  0.006  0.002  0.016  0.024
   18  0.025  0.004  0.004  0.033
   19  0.003  0.001  0.010  0.014
   20  0.000  0.000  0.011  0.011
   21  0.000  0.003  0.021  0.023
   22  0.003  0.002  0.020  0.025
   23  0.000  0.003  0.021  0.023
   24  0.012  0.004  0.003  0.019
   25  0.009  0.005  0.008  0.023
   26  0.003  0.001  0.010  0.014
   27  0.003  0.002  0.020  0.025
   28  0.000  0.003  0.008  0.011
   29  0.002  0.002  0.010  0.014
   30  0.026  0.003  0.008  0.036
   31  0.002  0.002  0.010  0.014
   32  0.012  0.003  0.010  0.025
   33  0.026  0.003  0.008  0.036
   34  0.012  0.003  0.010  0.025
   35  0.000  0.006  0.008  0.014
   36  0.000  0.001  0.038  0.038
   37  0.000  0.000  0.000  0.000
   38  0.000  0.000  0.000  0.000
tot    0.225  0.090  0.389  0.705
 
band    17 # energy   -5.05391196 # occ.  2.00000000
 
ion      s      p      d    tot
    1  0.002  0.001  0.011  0.014
    2  0.006  0.001  0.010  0.016
    3  0.006  0.001  0.010  0.016
    4  0.006  0.001  0.010  0.016
    5  0.006  0.000  0.009  0.016
    6  0.006  0.001  0.010  0.016
    7  0.006  0.001  0.010  0.016
    8  0.006  0.001  0.010  0.016
    9  0.012  0.000  0.009  0.021
   10  0.011  0.000  0.025  0.036
   11  0.006  0.000  0.022  0.028
   12  0.011  0.000  0.025  0.036
   13  0.006  0.000  0.022  0.028
   14  0.006  0.000  0.023  0.028
   15  0.005  0.000  0.023  0.028
   16  0.011  0.000  0.025  0.036
   17  0.005  0.000  0.023  0.028
   18  0.005  0.000  0.023  0.028
   19  0.008  0.000  0.019  0.027
   20  0.006  0.000  0.031  0.037
   21  0.006  0.000  0.030  0.036
   22  0.003  0.000  0.016  0.020
   23  0.006  0.000  0.030  0.036
   24  0.003  0.000  0.016  0.019
   25  0.008  0.000  0.018  0.027
   26  0.008  0.000  0.019  0.027
   27  0.003  0.000  0.016  0.020
   28  0.000  0.001  0.006  0.007
   29  0.003  0.000  0.008  0.012
   30  0.003  0.000  0.008  0.011
   31  0.003  0.000  0.008  0.012
   32  0.003  0.000  0.008  0.012
   33  0.003  0.000  0.008  0.011
   34  0.003  0.000  0.008  0.012
   35  0.004  0.000  0.005  0.009
   36  0.006  0.001  0.017  0.025
   37  0.000  0.000  0.000  0.000
   38  0.000  0.000  0.000  0.000
tot    0.202  0.013  0.568  0.783
 
band    18 # energy   -5.00739214 # occ.  2.00000000
 
ion      s      p      d    tot
    1  0.000  0.004  0.009  0.013
    2  0.022  0.004  0.006  0.031
    3  0.003  0.002  0.005  0.010
    4  0.022  0.004  0.006  0.031
    5  0.000  0.006  0.010  0.016
    6  0.009  0.003  0.006  0.018
    7  0.003  0.002  0.005  0.010
    8  0.009  0.003  0.006  0.018
    9  0.000  0.000  0.013  0.013
   10  0.021  0.005  0.008  0.034
   11  0.004  0.003  0.021  0.028
   12  0.005  0.001  0.018  0.025
   13  0.004  0.003  0.021  0.028
   14  0.017  0.003  0.005  0.025
   15  0.000  0.003  0.014  0.017
   16  0.005  0.001  0.018  0.025
   17  0.000  0.003  0.014  0.017
   18  0.000  0.000  0.009  0.010
   19  0.001  0.002  0.019  0.022
   20  0.020  0.006  0.004  0.030
   21  0.005  0.002  0.025  0.031
   22  0.001  0.002  0.011  0.014
   23  0.005  0.002  0.025  0.031
   24  0.005  0.002  0.010  0.016
   25  0.004  0.001  0.006  0.011
   26  0.001  0.002  0.019  0.022
   27  0.001  0.002  0.011  0.014
   28  0.000  0.003  0.010  0.013
   29  0.017  0.004  0.006  0.026
   30  0.001  0.001  0.005  0.008
   31  0.017  0.004  0.006  0.026
   32  0.008  0.002  0.006  0.017
   33  0.001  0.001  0.005  0.008
   34  0.009  0.002  0.006  0.017
   35  0.000  0.000  0.009  0.010
   36  0.000  0.008  0.015  0.023
   37  0.000  0.000  0.000  0.000
   38  0.000  0.000  0.000  0.000
tot    0.221  0.095  0.394  0.710
 
band    19 # energy   -5.00729924 # occ.  2.00000000
 
ion      s      p      d    tot
    1  0.000  0.004  0.009  0.013
    2  0.001  0.002  0.005  0.008
    3  0.020  0.004  0.006  0.030
    4  0.001  0.002  0.005  0.008
    5  0.000  0.006  0.010  0.016
    6  0.013  0.003  0.005  0.022
    7  0.020  0.004  0.006  0.029
    8  0.013  0.003  0.005  0.021
    9  0.000  0.000  0.013  0.013
   10  0.000  0.000  0.022  0.022
   11  0.013  0.003  0.011  0.026
   12  0.016  0.004  0.011  0.031
   13  0.013  0.003  0.010  0.026
   14  0.000  0.003  0.027  0.029
   15  0.000  0.001  0.011  0.012
   16  0.016  0.004  0.012  0.031
   17  0.000  0.001  0.011  0.012
   18  0.000  0.004  0.016  0.020
   19  0.003  0.001  0.010  0.015
   20  0.000  0.000  0.031  0.032
   21  0.015  0.005  0.011  0.031
   22  0.003  0.002  0.010  0.016
   23  0.015  0.005  0.011  0.031
   24  0.000  0.001  0.012  0.013
   25  0.000  0.003  0.023  0.026
   26  0.003  0.001  0.010  0.014
   27  0.003  0.002  0.010  0.016
   28  0.000  0.003  0.010  0.013
   29  0.001  0.001  0.005  0.008
   30  0.016  0.003  0.007  0.027
   31  0.001  0.001  0.005  0.008
   32  0.009  0.002  0.005  0.017
   33  0.016  0.003  0.007  0.026
   34  0.009  0.002  0.005  0.017
   35  0.000  0.000  0.009  0.010
   36  0.000  0.008  0.015  0.023
   37  0.000  0.000  0.000  0.000
   38  0.000  0.000  0.000  0.000
tot    0.221  0.095  0.394  0.710
 
band    20 # energy   -4.98911193 # occ.  2.00000000
 
ion      s      p      d    tot
    1  0.037  0.003  0.000  0.040
    2  0.000  0.003  0.010  0.013
    3  0.000  0.003  0.010  0.013
    4  0.000  0.003  0.010  0.013
    5  0.000  0.000  0.001  0.001
    6  0.000  0.003  0.010  0.013
    7  0.000  0.003  0.010  0.013
    8  0.000  0.003  0.010  0.013
    9  0.026  0.004  0.001  0.030
   10  0.007  0.003  0.011  0.022
   11  0.002  0.000  0.015  0.017
   12  0.007  0.003  0.011  0.022
   13  0.002  0.000  0.015  0.017
   14  0.002  0.000  0.015  0.017
   15  0.007  0.003  0.017  0.028
   16  0.007  0.003  0.011  0.022
   17  0.007  0.003  0.017  0.028
   18  0.007  0.003  0.017  0.028
   19  0.004  0.004  0.017  0.025
   20  0.000  0.000  0.016  0.016
   21  0.000  0.000  0.016  0.016
   22  0.013  0.003  0.010  0.026
   23  0.000  0.000  0.016  0.016
   24  0.013  0.003  0.010  0.026
   25  0.004  0.004  0.017  0.025
   26  0.004  0.004  0.017  0.025
   27  0.013  0.003  0.010  0.026
   28  0.039  0.003  0.000  0.042
   29  0.000  0.003  0.011  0.014
   30  0.000  0.003  0.011  0.014
   31  0.000  0.003  0.011  0.014
   32  0.000  0.003  0.011  0.014
   33  0.000  0.003  0.011  0.014
   34  0.000  0.003  0.011  0.014
   35  0.024  0.004  0.002  0.030
   36  0.000  0.000  0.000  0.000
   37  0.000  0.000  0.000  0.000
   38  0.000  0.000  0.000  0.000
tot    0.227  0.089  0.390  0.706
 
band    21 # energy   -4.85032948 # occ.  2.00000000
 
ion      s      p      d    tot
    1  0.012  0.001  0.000  0.012
    2  0.000  0.003  0.010  0.012
    3  0.000  0.003  0.010  0.012
    4  0.000  0.003  0.010  0.012
    5  0.035  0.004  0.001  0.040
    6  0.000  0.003  0.010  0.012
    7  0.000  0.003  0.010  0.012
    8  0.000  0.003  0.010  0.012
    9  0.009  0.001  0.000  0.010
   10  0.000  0.001  0.023  0.024
   11  0.006  0.004  0.018  0.028
   12  0.000  0.001  0.023  0.024
   13  0.006  0.004  0.018  0.028
   14  0.006  0.004  0.018  0.028
   15  0.002  0.001  0.006  0.010
   16  0.000  0.001  0.023  0.024