PROCAR new format
# of k-points:   10         # of bands:  252         # of ions:   37

 k-point     1 :    0.00000000 0.00000000 0.00000000     weight = 0.01562500

band     1 # energy  -10.31682258 # occ.  2.00000000
 
ion      s      p      d    tot
    1  0.000  0.000  0.000  0.000
    2  0.000  0.000  0.000  0.000
    3  0.000  0.000  0.000  0.000
    4  0.000  0.000  0.000  0.000
    5  0.000  0.000  0.000  0.000
    6  0.000  0.000  0.000  0.000
    7  0.000  0.000  0.000  0.000
    8  0.000  0.000  0.000  0.000
    9  0.000  0.000  0.000  0.000
   10  0.000  0.000  0.000  0.000
   11  0.000  0.000  0.000  0.000
   12  0.000  0.000  0.000  0.000
   13  0.000  0.000  0.000  0.000
   14  0.000  0.000  0.000  0.000
   15  0.000  0.000  0.000  0.000
   16  0.000  0.000  0.000  0.000
   17  0.000  0.000  0.000  0.000
   18  0.000  0.000  0.000  0.000
   19  0.001  0.000  0.000  0.001
   20  0.003  0.000  0.000  0.004
   21  0.003  0.000  0.000  0.004
   22  0.001  0.000  0.000  0.001
   23  0.003  0.000  0.000  0.004
   24  0.001  0.000  0.000  0.001
   25  0.001  0.000  0.000  0.001
   26  0.001  0.000  0.000  0.001
   27  0.001  0.000  0.000  0.001
   28  0.001  0.000  0.000  0.001
   29  0.004  0.001  0.001  0.005
   30  0.004  0.001  0.001  0.005
   31  0.004  0.001  0.001  0.005
   32  0.004  0.001  0.001  0.005
   33  0.004  0.001  0.001  0.005
   34  0.004  0.001  0.001  0.005
   35  0.001  0.000  0.000  0.001
   36  0.119  0.061  0.114  0.294
   37  0.405  0.023  0.000  0.428
tot    0.565  0.090  0.119  0.774
 
band     2 # energy   -9.19157038 # occ.  2.00000000
 
ion      s      p      d    tot
    1  0.007  0.001  0.000  0.008
    2  0.007  0.001  0.000  0.008
    3  0.007  0.001  0.000  0.008
    4  0.007  0.001  0.000  0.008
    5  0.007  0.001  0.000  0.008
    6  0.007  0.001  0.000  0.008
    7  0.007  0.001  0.000  0.008
    8  0.007  0.001  0.000  0.008
    9  0.007  0.001  0.000  0.008
   10  0.026  0.000  0.000  0.026
   11  0.026  0.000  0.000  0.026
   12  0.026  0.000  0.000  0.026
   13  0.026  0.000  0.000  0.026
   14  0.026  0.000  0.000  0.026
   15  0.026  0.000  0.000  0.026
   16  0.026  0.000  0.000  0.026
   17  0.026  0.000  0.000  0.026
   18  0.026  0.000  0.000  0.026
   19  0.023  0.000  0.000  0.023
   20  0.022  0.000  0.000  0.022
   21  0.022  0.000  0.000  0.022
   22  0.023  0.000  0.000  0.023
   23  0.022  0.000  0.000  0.022
   24  0.023  0.000  0.000  0.023
   25  0.023  0.000  0.000  0.023
   26  0.023  0.000  0.000  0.023
   27  0.023  0.000  0.000  0.023
   28  0.005  0.001  0.000  0.006
   29  0.004  0.001  0.000  0.005
   30  0.004  0.001  0.000  0.005
   31  0.004  0.001  0.000  0.005
   32  0.004  0.001  0.000  0.005
   33  0.004  0.001  0.000  0.005
   34  0.004  0.001  0.000  0.005
   35  0.005  0.001  0.000  0.006
   36  0.000  0.008  0.007  0.015
   37  0.021  0.001  0.000  0.022
tot    0.557  0.026  0.008  0.591
 
band     3 # energy   -7.85056402 # occ.  2.00000000
 
ion      s      p      d    tot
    1  0.018  0.001  0.001  0.020
    2  0.018  0.001  0.001  0.020
    3  0.018  0.001  0.001  0.020
    4  0.018  0.001  0.001  0.020
    5  0.019  0.001  0.001  0.020
    6  0.018  0.001  0.001  0.020
    7  0.018  0.001  0.001  0.020
    8  0.018  0.001  0.001  0.020
    9  0.018  0.001  0.001  0.020
   10  0.008  0.003  0.001  0.011
   11  0.009  0.003  0.001  0.012
   12  0.008  0.003  0.001  0.011
   13  0.009  0.003  0.001  0.012
   14  0.009  0.003  0.001  0.012
   15  0.008  0.003  0.001  0.011
   16  0.008  0.003  0.001  0.011
   17  0.008  0.003  0.001  0.011
   18  0.008  0.003  0.001  0.011
   19  0.014  0.002  0.001  0.016
   20  0.011  0.002  0.001  0.013
   21  0.011  0.002  0.001  0.013
   22  0.014  0.002  0.001  0.016
   23  0.011  0.002  0.001  0.013
   24  0.014  0.002  0.001  0.016
   25  0.014  0.002  0.001  0.016
   26  0.014  0.002  0.001  0.016
   27  0.014  0.002  0.001  0.016
   28  0.018  0.001  0.000  0.020
   29  0.015  0.001  0.000  0.017
   30  0.015  0.001  0.000  0.017
   31  0.015  0.001  0.000  0.017
   32  0.015  0.001  0.000  0.017
   33  0.015  0.001  0.000  0.017
   34  0.015  0.001  0.000  0.017
   35  0.018  0.001  0.000  0.020
   36  0.003  0.006  0.010  0.020
   37  0.014  0.000  0.000  0.014
tot    0.498  0.063  0.030  0.591
 
band     4 # energy   -6.29074379 # occ.  2.00000000
 
ion      s      p      d    tot
    1  0.012  0.000  0.003  0.015
    2  0.008  0.001  0.005  0.014
    3  0.008  0.001  0.005  0.014
    4  0.008  0.001  0.005  0.014
    5  0.000  0.002  0.006  0.007
    6  0.008  0.001  0.005  0.014
    7  0.008  0.001  0.005  0.014
    8  0.008  0.001  0.005  0.014
    9  0.025  0.001  0.001  0.027
   10  0.001  0.003  0.005  0.009
   11  0.024  0.007  0.001  0.032
   12  0.001  0.003  0.005  0.009
   13  0.024  0.007  0.001  0.032
   14  0.024  0.007  0.001  0.032
   15  0.003  0.001  0.008  0.012
   16  0.001  0.003  0.005  0.009
   17  0.003  0.001  0.008  0.012
   18  0.003  0.001  0.008  0.012
   19  0.001  0.001  0.008  0.010
   20  0.031  0.007  0.002  0.040
   21  0.031  0.007  0.002  0.040
   22  0.001  0.005  0.004  0.010
   23  0.031  0.007  0.002  0.040
   24  0.001  0.005  0.004  0.010
   25  0.001  0.001  0.008  0.010
   26  0.001  0.001  0.008  0.010
   27  0.001  0.005  0.004  0.010
   28  0.019  0.000  0.002  0.021
   29  0.009  0.001  0.005  0.015
   30  0.009  0.001  0.005  0.015
   31  0.009  0.001  0.005  0.015
   32  0.009  0.001  0.005  0.015
   33  0.009  0.001  0.005  0.015
   34  0.009  0.001  0.005  0.015
   35  0.025  0.000  0.002  0.028
   36  0.001  0.003  0.016  0.020
   37  0.000  0.001  0.000  0.001
tot    0.365  0.091  0.178  0.635
 
band     5 # energy   -6.26158906 # occ.  2.00000000
 
ion      s      p      d    tot
    1  0.000  0.001  0.005  0.006
    2  0.008  0.002  0.002  0.012
    3  0.000  0.001  0.002  0.003
    4  0.007  0.002  0.002  0.011
    5  0.000  0.003  0.005  0.008
    6  0.006  0.002  0.002  0.010
    7  0.000  0.001  0.002  0.003
    8  0.007  0.002  0.002  0.011
    9  0.000  0.000  0.002  0.002
   10  0.043  0.005  0.002  0.051
   11  0.014  0.008  0.007  0.028
   12  0.009  0.001  0.013  0.023
   13  0.010  0.008  0.007  0.025
   14  0.048  0.002  0.006  0.055
   15  0.000  0.007  0.004  0.012
   16  0.013  0.001  0.012  0.026
   17  0.000  0.008  0.004  0.012
   18  0.000  0.001  0.005  0.006
   19  0.002  0.010  0.003  0.015
   20  0.065  0.003  0.006  0.073
   21  0.014  0.006  0.011  0.031
   22  0.006  0.002  0.012  0.020
   23  0.019  0.005  0.011  0.035
   24  0.026  0.004  0.002  0.033
   25  0.008  0.000  0.006  0.014
   26  0.002  0.011  0.003  0.015
   27  0.008  0.002  0.011  0.021
   28  0.000  0.001  0.003  0.004
   29  0.011  0.003  0.003  0.016
   30  0.000  0.001  0.002  0.004
   31  0.010  0.003  0.003  0.015
   32  0.006  0.002  0.002  0.010
   33  0.001  0.001  0.002  0.004
   34  0.007  0.002  0.002  0.011
   35  0.000  0.001  0.004  0.004
   36  0.000  0.005  0.006  0.011
   37  0.000  0.000  0.000  0.000
tot    0.348  0.117  0.177  0.642
 
band     6 # energy   -6.26155665 # occ.  2.00000000
 
ion      s      p      d    tot
    1  0.000  0.001  0.005  0.006
    2  0.001  0.001  0.002  0.005
    3  0.009  0.002  0.002  0.014
    4  0.002  0.001  0.002  0.005
    5  0.000  0.003  0.005  0.008
    6  0.003  0.001  0.002  0.007
    7  0.009  0.002  0.002  0.014
    8  0.003  0.001  0.002  0.006
    9  0.000  0.000  0.002  0.002
   10  0.000  0.000  0.016  0.016
   11  0.034  0.004  0.006  0.044
   12  0.034  0.004  0.005  0.043
   13  0.038  0.003  0.006  0.047
   14  0.000  0.010  0.007  0.017
   15  0.000  0.004  0.005  0.008
   16  0.031  0.003  0.006  0.041
   17  0.000  0.003  0.005  0.008
   18  0.000  0.010  0.004  0.014
   19  0.005  0.004  0.005  0.014
   20  0.000  0.006  0.013  0.019
   21  0.051  0.004  0.007  0.062
   22  0.021  0.004  0.005  0.030
   23  0.046  0.004  0.008  0.058
   24  0.000  0.001  0.015  0.017
   25  0.000  0.013  0.002  0.015
   26  0.006  0.003  0.005  0.014
   27  0.019  0.004  0.006  0.028
   28  0.000  0.001  0.003  0.004
   29  0.001  0.001  0.002  0.004
   30  0.011  0.003  0.003  0.016
   31  0.001  0.001  0.002  0.005
   32  0.006  0.002  0.003  0.010
   33  0.011  0.003  0.003  0.016
   34  0.005  0.002  0.003  0.009
   35  0.000  0.001  0.004  0.004
   36  0.000  0.005  0.006  0.011
   37  0.000  0.000  0.000  0.000
tot    0.348  0.117  0.177  0.642
 
band     7 # energy   -6.23667928 # occ.  2.00000000
 
ion      s      p      d    tot
    1  0.021  0.003  0.001  0.025
    2  0.000  0.002  0.004  0.006
    3  0.000  0.002  0.004  0.006
    4  0.000  0.002  0.004  0.006
    5  0.001  0.000  0.000  0.002
    6  0.000  0.002  0.004  0.006
    7  0.000  0.002  0.004  0.006
    8  0.000  0.002  0.004  0.006
    9  0.009  0.002  0.000  0.011
   10  0.030  0.005  0.006  0.041
   11  0.005  0.000  0.012  0.017
   12  0.029  0.005  0.006  0.040
   13  0.005  0.000  0.012  0.017
   14  0.004  0.000  0.011  0.016
   15  0.013  0.008  0.003  0.024
   16  0.029  0.005  0.006  0.040
   17  0.013  0.008  0.003  0.024
   18  0.014  0.008  0.003  0.025
   19  0.022  0.009  0.002  0.033
   20  0.000  0.002  0.011  0.013
   21  0.000  0.002  0.010  0.013
   22  0.026  0.003  0.009  0.038
   23  0.000  0.002  0.010  0.013
   24  0.025  0.003  0.009  0.037
   25  0.021  0.009  0.002  0.032
   26  0.022  0.009  0.002  0.033
   27  0.026  0.003  0.009  0.038
   28  0.019  0.003  0.000  0.022
   29  0.000  0.002  0.004  0.006
   30  0.000  0.002  0.004  0.006
   31  0.000  0.002  0.004  0.006
   32  0.000  0.002  0.004  0.006
   33  0.000  0.002  0.004  0.006
   34  0.000  0.002  0.004  0.006
   35  0.012  0.002  0.001  0.016
   36  0.000  0.000  0.000  0.000
   37  0.000  0.000  0.000  0.000
tot    0.346  0.115  0.179  0.640
 
band     8 # energy   -6.23414980 # occ.  2.00000000
 
ion      s      p      d    tot
    1  0.000  0.002  0.003  0.005
    2  0.009  0.002  0.002  0.013
    3  0.000  0.001  0.002  0.003
    4  0.008  0.002  0.002  0.012
    5  0.000  0.000  0.003  0.003
    6  0.007  0.002  0.003  0.011
    7  0.000  0.001  0.002  0.003
    8  0.007  0.002  0.003  0.012
    9  0.000  0.003  0.006  0.009
   10  0.000  0.014  0.002  0.016
   11  0.010  0.004  0.005  0.018
   12  0.014  0.003  0.006  0.023
   13  0.010  0.004  0.005  0.019
   14  0.000  0.004  0.012  0.015
   15  0.045  0.004  0.007  0.056
   16  0.013  0.004  0.005  0.023
   17  0.049  0.004  0.006  0.059
   18  0.000  0.003  0.015  0.018
   19  0.040  0.004  0.007  0.050
   20  0.000  0.008  0.007  0.015
   21  0.001  0.003  0.005  0.010
   22  0.029  0.003  0.006  0.039
   23  0.001  0.004  0.005  0.010
   24  0.000  0.012  0.004  0.017
   25  0.000  0.001  0.017  0.018
   26  0.043  0.004  0.006  0.053
   27  0.027  0.004  0.006  0.037
   28  0.000  0.002  0.005  0.008
   29  0.009  0.002  0.003  0.014
   30  0.000  0.001  0.002  0.004
   31  0.009  0.002  0.003  0.014
   32  0.005  0.002  0.002  0.008
   33  0.001  0.001  0.002  0.004
   34  0.005  0.002  0.002  0.009
   35  0.000  0.003  0.004  0.007
   36  0.000  0.000  0.002  0.002
   37  0.000  0.000  0.000  0.000
tot    0.345  0.116  0.178  0.639
 
band     9 # energy   -6.23412451 # occ.  2.00000000
 
ion      s      p      d    tot
    1  0.000  0.002  0.003  0.005
    2  0.002  0.001  0.002  0.005
    3  0.010  0.003  0.003  0.015
    4  0.002  0.001  0.002  0.006
    5  0.000  0.000  0.003  0.003
    6  0.004  0.001  0.002  0.007
    7  0.010  0.003  0.003  0.015
    8  0.003  0.001  0.002  0.006
    9  0.000  0.003  0.006  0.009
   10  0.018  0.000  0.007  0.025
   11  0.004  0.004  0.009  0.016
   12  0.004  0.011  0.003  0.018
   13  0.003  0.004  0.010  0.016
   14  0.014  0.004  0.003  0.020
   15  0.018  0.003  0.012  0.033
   16  0.005  0.010  0.003  0.019
   17  0.014  0.003  0.012  0.030
   18  0.062  0.004  0.004  0.070
   19  0.015  0.002  0.013  0.030
   20  0.002  0.002  0.004  0.008
   21  0.000  0.007  0.007  0.014
   22  0.008  0.010  0.005  0.023
   23  0.001  0.006  0.007  0.013
   24  0.038  0.001  0.007  0.046
   25  0.056  0.005  0.003  0.064
   26  0.012  0.002  0.014  0.027
   27  0.010  0.009  0.005  0.024
   28  0.000  0.002  0.005  0.008
   29  0.001  0.001  0.002  0.003
   30  0.009  0.002  0.002  0.014
   31  0.001  0.001  0.002  0.004
   32  0.005  0.002  0.003  0.010
   33  0.009  0.002  0.002  0.014
   34  0.005  0.002  0.003  0.009
   35  0.000  0.003  0.004  0.007
   36  0.000  0.000  0.002  0.002
   37  0.000  0.000  0.000  0.000
tot    0.345  0.116  0.178  0.639
 
band    10 # energy   -6.15343673 # occ.  2.00000000
 
ion      s      p      d    tot
    1  0.003  0.000  0.004  0.007
    2  0.008  0.001  0.007  0.016
    3  0.008  0.001  0.007  0.016
    4  0.008  0.001  0.007  0.016
    5  0.043  0.001  0.002  0.046
    6  0.008  0.001  0.007  0.016
    7  0.008  0.001  0.007  0.016
    8  0.008  0.001  0.007  0.016
    9  0.000  0.001  0.007  0.009
   10  0.007  0.004  0.006  0.018
   11  0.006  0.006  0.006  0.018
   12  0.007  0.004  0.006  0.018
   13  0.006  0.006  0.006  0.018
   14  0.006  0.006  0.006  0.018
   15  0.024  0.002  0.007  0.034
   16  0.007  0.004  0.006  0.018
   17  0.024  0.002  0.007  0.034
   18  0.024  0.002  0.007  0.034
   19  0.009  0.003  0.005  0.017
   20  0.007  0.003  0.005  0.015
   21  0.007  0.003  0.005  0.015
   22  0.006  0.006  0.003  0.015
   23  0.007  0.003  0.005  0.015
   24  0.006  0.006  0.003  0.015
   25  0.009  0.003  0.005  0.017
   26  0.009  0.003  0.005  0.017
   27  0.006  0.006  0.003  0.015
   28  0.005  0.000  0.005  0.010
   29  0.009  0.000  0.005  0.014
   30  0.009  0.000  0.005  0.014
   31  0.009  0.000  0.005  0.014
   32  0.009  0.000  0.005  0.014
   33  0.009  0.000  0.005  0.014
   34  0.009  0.000  0.005  0.014
   35  0.004  0.000  0.004  0.008
   36  0.012  0.005  0.012  0.030
   37  0.007  0.000  0.000  0.007
tot    0.353  0.093  0.203  0.649
 
band    11 # energy   -5.49905064 # occ.  2.00000000
 
ion      s      p      d    tot
    1  0.010  0.000  0.007  0.017
    2  0.004  0.001  0.009  0.014
    3  0.004  0.001  0.009  0.014
    4  0.004  0.001  0.009  0.014
    5  0.001  0.003  0.009  0.013
    6  0.004  0.001  0.009  0.014
    7  0.004  0.001  0.009  0.014
    8  0.004  0.001  0.009  0.014
    9  0.016  0.000  0.005  0.021
   10  0.004  0.000  0.024  0.028
   11  0.015  0.001  0.019  0.035
   12  0.004  0.000  0.024  0.028
   13  0.015  0.001  0.019  0.035
   14  0.015  0.001  0.019  0.035
   15  0.001  0.000  0.019  0.020
   16  0.004  0.000  0.024  0.028
   17  0.001  0.000  0.019  0.020
   18  0.001  0.000  0.019  0.020
   19  0.002  0.000  0.017  0.019
   20  0.013  0.002  0.025  0.040
   21  0.013  0.002  0.025  0.040
   22  0.002  0.000  0.022  0.024
   23  0.013  0.002  0.025  0.040
   24  0.002  0.000  0.022  0.024
   25  0.002  0.000  0.017  0.019
   26  0.002  0.000  0.017  0.019
   27  0.002  0.000  0.022  0.024
   28  0.007  0.000  0.005  0.012
   29  0.003  0.001  0.008  0.012
   30  0.003  0.001  0.008  0.012
   31  0.003  0.001  0.008  0.012
   32  0.003  0.001  0.008  0.012
   33  0.003  0.001  0.008  0.012
   34  0.003  0.001  0.008  0.012
   35  0.012  0.000  0.005  0.017
   36  0.002  0.004  0.018  0.024
   37  0.000  0.002  0.000  0.002
tot    0.203  0.031  0.531  0.765
 
band    12 # energy   -5.48094816 # occ.  2.00000000
 
ion      s      p      d    tot
    1  0.000  0.002  0.010  0.012
    2  0.007  0.002  0.005  0.015
    3  0.021  0.004  0.005  0.030
    4  0.003  0.002  0.005  0.010
    5  0.000  0.006  0.009  0.015
    6  0.004  0.002  0.005  0.011
    7  0.021  0.004  0.005  0.031
    8  0.009  0.002  0.005  0.016
    9  0.000  0.001  0.012  0.014
   10  0.000  0.001  0.017  0.018
   11  0.019  0.004  0.008  0.031
   12  0.008  0.003  0.012  0.023
   13  0.014  0.003  0.013  0.030
   14  0.000  0.002  0.026  0.028
   15  0.001  0.001  0.010  0.011
   16  0.011  0.003  0.010  0.024
   17  0.001  0.002  0.012  0.014
   18  0.000  0.004  0.019  0.023
   19  0.001  0.001  0.009  0.011
   20  0.000  0.001  0.031  0.032
   21  0.012  0.004  0.014  0.030
   22  0.007  0.003  0.012  0.021
   23  0.016  0.004  0.009  0.029
   24  0.000  0.001  0.014  0.015
   25  0.000  0.003  0.021  0.024
   26  0.001  0.001  0.012  0.014
   27  0.009  0.004  0.011  0.023
   28  0.000  0.001  0.012  0.013
   29  0.009  0.002  0.005  0.016
   30  0.022  0.004  0.005  0.031
   31  0.004  0.002  0.005  0.011
   32  0.003  0.002  0.005  0.010
   33  0.022  0.004  0.005  0.030
   34  0.007  0.002  0.005  0.014
   35  0.000  0.002  0.009  0.010
   36  0.000  0.009  0.005  0.013
   37  0.000  0.001  0.000  0.001
tot    0.230  0.098  0.377  0.704
 
band    13 # energy   -5.48094131 # occ.  2.00000000
 
ion      s      p      d    tot
    1  0.000  0.002  0.010  0.012
    2  0.015  0.003  0.005  0.023
    3  0.001  0.002  0.005  0.007
    4  0.019  0.004  0.005  0.028
    5  0.000  0.006  0.009  0.015
    6  0.018  0.004  0.005  0.027
    7  0.000  0.002  0.005  0.007
    8  0.013  0.003  0.005  0.021
    9  0.000  0.001  0.012  0.014
   10  0.013  0.004  0.009  0.026
   11  0.003  0.002  0.023  0.029
   12  0.005  0.002  0.014  0.021
   13  0.008  0.003  0.019  0.029
   14  0.022  0.004  0.005  0.031
   15  0.000  0.003  0.017  0.021
   16  0.002  0.001  0.016  0.019
   17  0.000  0.003  0.015  0.018
   18  0.001  0.000  0.008  0.009
   19  0.000  0.003  0.019  0.022
   20  0.018  0.005  0.005  0.028
   21  0.007  0.003  0.022  0.031
   22  0.004  0.002  0.013  0.018
   23  0.003  0.002  0.027  0.032
   24  0.010  0.004  0.010  0.025
   25  0.001  0.000  0.007  0.009
   26  0.000  0.002  0.016  0.019
   27  0.002  0.001  0.013  0.016
   28  0.000  0.001  0.012  0.013
   29  0.013  0.003  0.005  0.021
   30  0.000  0.002  0.005  0.007
   31  0.018  0.003  0.005  0.026
   32  0.019  0.003  0.005  0.028
   33  0.001  0.002  0.005  0.007
   34  0.015  0.003  0.005  0.023
   35  0.000  0.002  0.009  0.010
   36  0.000  0.009  0.005  0.013
   37  0.000  0.001  0.000  0.001
tot    0.230  0.098  0.377  0.704
 
band    14 # energy   -5.46156351 # occ.  2.00000000
 
ion      s      p      d    tot
    1  0.034  0.003  0.000  0.038
    2  0.000  0.003  0.010  0.014
    3  0.000  0.003  0.010  0.014
    4  0.000  0.003  0.010  0.014
    5  0.000  0.000  0.000  0.000
    6  0.000  0.003  0.010  0.014
    7  0.000  0.003  0.010  0.014
    8  0.000  0.003  0.010  0.014
    9  0.031  0.003  0.001  0.035
   10  0.009  0.004  0.010  0.023
   11  0.001  0.000  0.015  0.017
   12  0.009  0.004  0.011  0.023
   13  0.001  0.000  0.015  0.017
   14  0.001  0.000  0.015  0.017
   15  0.006  0.003  0.018  0.028
   16  0.009  0.004  0.011  0.023
   17  0.006  0.003  0.018  0.028
   18  0.006  0.003  0.018  0.028
   19  0.006  0.004  0.017  0.027
   20  0.000  0.000  0.017  0.017
   21  0.000  0.000  0.016  0.017
   22  0.011  0.003  0.010  0.024
   23  0.000  0.000  0.016  0.017
   24  0.011  0.003  0.010  0.024
   25  0.005  0.004  0.017  0.027
   26  0.006  0.004  0.017  0.027
   27  0.011  0.003  0.010  0.024
   28  0.035  0.003  0.000  0.039
   29  0.000  0.003  0.010  0.012
   30  0.000  0.003  0.010  0.012
   31  0.000  0.003  0.010  0.012
   32  0.000  0.003  0.010  0.012
   33  0.000  0.003  0.010  0.012
   34  0.000  0.003  0.010  0.012
   35  0.026  0.003  0.001  0.031
   36  0.000  0.000  0.000  0.000
   37  0.000  0.000  0.000  0.000
tot    0.226  0.092  0.387  0.706
 
band    15 # energy   -5.45216445 # occ.  2.00000000
 
ion      s      p      d    tot
    1  0.000  0.004  0.011  0.016
    2  0.005  0.002  0.005  0.012
    3  0.021  0.004  0.006  0.031
    4  0.004  0.002  0.005  0.012
    5  0.000  0.000  0.012  0.012
    6  0.006  0.002  0.005  0.013
    7  0.022  0.004  0.006  0.031
    8  0.007  0.002  0.005  0.014
    9  0.000  0.005  0.008  0.013
   10  0.010  0.002  0.006  0.017
   11  0.000  0.002  0.014  0.016
   12  0.003  0.003  0.022  0.027
   13  0.001  0.002  0.014  0.016
   14  0.002  0.001  0.010  0.013
   15  0.005  0.001  0.019  0.025
   16  0.002  0.003  0.022  0.028
   17  0.005  0.002  0.018  0.025
   18  0.020  0.006  0.007  0.033
   19  0.005  0.001  0.019  0.025
   20  0.002  0.001  0.011  0.014
   21  0.000  0.002  0.015  0.018
   22  0.003  0.003  0.021  0.027
   23  0.000  0.002  0.015  0.018
   24  0.011  0.002  0.005  0.019
   25  0.021  0.005  0.006  0.033
   26  0.006  0.001  0.019  0.026
   27  0.003  0.003  0.022  0.027
   28  0.000  0.005  0.008  0.012
   29  0.006  0.002  0.005  0.013
   30  0.020  0.004  0.005  0.029
   31  0.005  0.002  0.005  0.013
   32  0.004  0.002  0.005  0.012
   33  0.020  0.004  0.005  0.029
   34  0.005  0.002  0.005  0.012
   35  0.000  0.004  0.010  0.014
   36  0.000  0.000  0.008  0.008
   37  0.000  0.000  0.000  0.000
tot    0.225  0.094  0.385  0.704
 
band    16 # energy   -5.45214798 # occ.  2.00000000
 
ion      s      p      d    tot
    1  0.000  0.004  0.011  0.016
    2  0.017  0.003  0.005  0.025
    3  0.000  0.002  0.005  0.007
    4  0.017  0.003  0.005  0.026
    5  0.000  0.000  0.012  0.012
    6  0.015  0.003  0.006  0.024
    7  0.000  0.002  0.005  0.007
    8  0.015  0.003  0.006  0.024
    9  0.000  0.005  0.008  0.013
   10  0.000  0.003  0.028  0.031
   11  0.001  0.001  0.011  0.014
   12  0.007  0.002  0.011  0.021
   13  0.001  0.001  0.011  0.014
   14  0.000  0.002  0.015  0.017
   15  0.016  0.004  0.011  0.031
   16  0.008  0.002  0.011  0.020
   17  0.015  0.004  0.011  0.030
   18  0.000  0.000  0.022  0.023
   19  0.016  0.004  0.010  0.031
   20  0.000  0.003  0.016  0.019
   21  0.001  0.002  0.012  0.015
   22  0.008  0.002  0.011  0.022
   23  0.001  0.002  0.012  0.015
   24  0.000  0.003  0.027  0.030
   25  0.000  0.000  0.023  0.023
   26  0.016  0.004  0.011  0.031
   27  0.008  0.002  0.011  0.021
   28  0.000  0.005  0.008  0.012
   29  0.014  0.003  0.005  0.023
   30  0.000  0.002  0.005  0.007
   31  0.015  0.003  0.005  0.023
   32  0.016  0.003  0.005  0.024
   33  0.000  0.002  0.005  0.007
   34  0.016  0.003  0.005  0.024
   35  0.000  0.004  0.010  0.014
   36  0.000  0.000  0.008  0.008
   37  0.000  0.000  0.000  0.000
tot    0.225  0.094  0.385  0.704
 
band    17 # energy   -5.35842861 # occ.  2.00000000
 
ion      s      p      d    tot
    1  0.007  0.002  0.001  0.010
    2  0.000  0.002  0.010  0.013
    3  0.000  0.002  0.010  0.013
    4  0.000  0.002  0.010  0.013
    5  0.042  0.003  0.000  0.045
    6  0.000  0.002  0.010  0.013
    7  0.000  0.002  0.010  0.013
    8  0.000  0.002  0.010  0.013
    9  0.003  0.001  0.002  0.007
   10  0.002  0.001  0.021  0.025
   11  0.002  0.003  0.019  0.024
   12  0.002  0.001  0.021  0.025
   13  0.002  0.003  0.019  0.024
   14  0.002  0.003  0.019  0.024
   15  0.006  0.001  0.012  0.020
   16  0.002  0.001  0.021  0.025
   17  0.006  0.001  0.012  0.020
   18  0.006  0.001  0.012  0.020
   19  0.012  0.000  0.021  0.034
   20  0.005  0.004  0.014  0.022
   21  0.005  0.004  0.014  0.022
   22  0.005  0.001  0.020  0.026
   23  0.005  0.004  0.014  0.022
   24  0.005  0.001  0.020  0.026
   25  0.012  0.000  0.021  0.034
   26  0.012  0.000  0.021  0.034
   27  0.005  0.001  0.020  0.026
   28  0.000  0.002  0.008  0.010
   29  0.003  0.002  0.011  0.015
   30  0.003  0.002  0.011  0.015
   31  0.003  0.002  0.011  0.015
   32  0.003  0.002  0.011  0.015
   33  0.003  0.002  0.011  0.015
   34  0.003  0.002  0.011  0.015
   35  0.001  0.002  0.005  0.007
   36  0.027  0.008  0.010  0.046
   37  0.006  0.000  0.000  0.006
tot    0.201  0.073  0.475  0.749
 
band    18 # energy   -4.80075611 # occ.  2.00000000
 
ion      s      p      d    tot
    1  0.000  0.002  0.001  0.003
    2  0.012  0.001  0.009  0.022
    3  0.009  0.001  0.008  0.018
    4  0.012  0.001  0.009  0.022
    5  0.000  0.001  0.023  0.024
    6  0.000  0.001  0.008  0.009
    7  0.009  0.001  0.008  0.018
    8  0.000  0.001  0.008  0.009
    9  0.000  0.000  0.024  0.024
   10  0.001  0.007  0.018  0.025
   11  0.000  0.000  0.041  0.042
   12  0.000  0.002  0.011  0.013
   13  0.000  0.000  0.041  0.042
   14  0.001  0.001  0.003  0.005
   15  0.000  0.001  0.022  0.023
   16  0.000  0.002  0.011  0.013
   17  0.000  0.001  0.022  0.023
   18  0.000  0.002  0.013  0.015
   19  0.000  0.000  0.042  0.043
   20  0.002  0.006  0.026  0.034
   21  0.000  0.001  0.014  0.016
   22  0.000  0.000  0.029  0.030
   23  0.000  0.002  0.014  0.016
   24  0.000  0.001  0.012  0.013
   25  0.001  0.002  0.004  0.007
   26  0.000  0.000  0.042  0.043
   27  0.000  0.000  0.029  0.030
   28  0.000  0.002  0.023  0.025
   29  0.017  0.001  0.011  0.029
   30  0.001  0.001  0.010  0.012
   31  0.017  0.001  0.011  0.029
   32  0.011  0.001  0.009  0.021
   33  0.001  0.001  0.010  0.012
   34  0.011  0.001  0.009  0.021
   35  0.000  0.000  0.029  0.029
   36  0.000  0.006  0.015  0.020
   37  0.000  0.008  0.000  0.008
tot    0.106  0.062  0.618  0.786
 
band    19 # energy   -4.80070930 # occ.  2.00000000
 
ion      s      p      d    tot
    1  0.000  0.002  0.001  0.003
    2  0.002  0.001  0.008  0.011
    3  0.005  0.001  0.008  0.014
    4  0.002  0.001  0.008  0.011
    5  0.000  0.001  0.023  0.024
    6  0.014  0.001  0.008  0.024
    7  0.005  0.001  0.008  0.014
    8  0.014  0.001  0.008  0.023
    9  0.000  0.000  0.024  0.024
   10  0.000  0.000  0.009  0.009
   11  0.000  0.001  0.016  0.017
   12  0.001  0.005  0.016  0.021
   13  0.000  0.001  0.016  0.017
   14  0.000  0.000  0.054  0.054
   15  0.000  0.002  0.016  0.018
   16  0.001  0.005  0.016  0.021
   17  0.000  0.002  0.016  0.018
   18  0.000  0.000  0.025  0.025
   19  0.001  0.001  0.017  0.019
   20  0.000  0.000  0.010  0.010
   21  0.001  0.004  0.022  0.028
   22  0.000  0.001  0.017  0.019
   23  0.001  0.004  0.022  0.028
   24  0.000  0.000  0.035  0.035
   25  0.000  0.000  0.055  0.055
   26  0.001  0.001  0.017  0.019
   27  0.000  0.001  0.017  0.019
   28  0.000  0.002  0.023  0.025
   29  0.002  0.001  0.009  0.012
   30  0.019  0.001  0.010  0.030
   31  0.002  0.001  0.009  0.012
   32  0.008  0.001  0.011  0.020
   33  0.019  0.001  0.010  0.030
   34  0.008  0.001  0.011  0.020
   35  0.000  0.000  0.029  0.029
   36  0.000  0.006  0.015  0.020
   37  0.000  0.008  0.000  0.008
tot    0.106  0.062  0.618  0.786
 
band    20 # energy   -4.76389660 # occ.  2.00000000
 
ion      s      p      d    tot
    1  0.001  0.000  0.001  0.001
    2  0.000  0.001  0.019  0.020
    3  0.000  0.001  0.017  0.018
    4  0.000  0.001  0.019  0.020
    5  0.018  0.001  0.000  0.019
    6  0.000  0.001  0.018  0.019
    7  0.000  0.001  0.017  0.018
    8  0.000  0.001  0.018  0.019
    9  0.025  0.001  0.002  0.028
   10  0.000  0.001  0.007  0.008
   11  0.000  0.001  0.023  0.024
   12  0.000  0.001  0.007  0.008
   13  0.000  0.001  0.023  0.024
   14  0.000  0.001  0.021  0.022
   15  0.001  0.003  0.038  0.042
   16  0.000  0.001  0.007  0.009
   17  0.001  0.003  0.038  0.042
   18  0.001  0.004  0.035  0.040
   19  0.000  0.001  0.024  0.025
   20  0.000  0.001  0.008  0.010
   21  0.000  0.001  0.008  0.010
   22  0.000  0.004  0.041  0.045
   23  0.000  0.001  0.008  0.010
   24  0.000  0.003  0.044  0.048
   25  0.000  0.001  0.027  0.028
   26  0.000  0.001  0.024  0.025
   27  0.000  0.004  0.041  0.045
   28  0.018  0.001  0.000  0.019
   29  0.000  0.001  0.017  0.019
   30  0.000  0.002  0.018  0.019
   31  0.000  0.001  0.017  0.019
   32  0.000  0.001  0.019  0.021
   33  0.000  0.002  0.018  0.019
   34  0.000  0.001  0.019  0.021
   35  0.029  0.001  0.002  0.032
   36  0.001  0.000  0.003  0.003
   37  0.000  0.000  0.000  0.000
tot    0.097  0.053  0.649  0.799
 
band    21 # energy   -4.76353473 # occ.  2.00000000
 
ion      s      p      d    tot
    1  0.000  0.000  0.038  0.038
    2  0.013  0.001  0.011  0.024
    3  0.012  0.001  0.010  0.022
    4  0.012  0.001  0.011  0.024
    5  0.000  0.002  0.009  0.010
    6  0.000  0.001  0.010  0.011
    7  0.011  0.001  0.010  0.022
    8  0.000  0.001  0.010  0.011
    9  0.000  0.003  0.011  0.014
   10  0.000  0.000  0.055  0.055
   11  0.001  0.005  0.018  0.024
   12  0.000  0.000  0.020  0.020
   13  0.001  0.005  0.018  0.023
   14  0.000  0.000  0.009  0.009
   15  0.001  0.003  0.017  0.021
   16  0.000  0.000  0.019  0.019
   17  0.001  0.003  0.017  0.022
   18  0.000  0.000  0.039  0.039
   19  0.000  0.004  0.017  0.021
   20  0.000  0.000  0.072  0.072
   21  0.000  0.000  0.023  0.023
   22  0.001  0.004  0.019  0.024
   23  0.000  0.000  0.022  0.022
   24  0.000  0.000  0.032  0.032
   25  0.000  0.000  0.009  0.010
   26  0.000  0.004  0.017  0.021
   27  0.001  0.005  0.019  0.024
   28  0.000  0.001  0.010  0.011
   29  0.013  0.001  0.008  0.022
   30  0.001  0.001  0.010  0.011
   31  0.013  0.001  0.008  0.022
   32  0.009  0.001  0.007  0.017
   33  0.000  0.001  0.010  0.011
   34  0.008  0.001  0.007  0.017
   35  0.000  0.003  0.005  0.008
   36  0.000  0.000  0.022  0.023