 vasp.6.2.0 18Jan21 (build Jun 12 2021 23:27:24) complex                        
  
 executed on             LinuxIFC date 2022.05.27  05:37:21
 running on   28 total cores
 distrk:  each k-point on   28 cores,    1 groups
 distr:  one band on NCORE=   1 cores,   28 groups


--------------------------------------------------------------------------------------------------------


 INCAR:
   ISMEAR = -5
   SIGMA = 0.1
   ISPIN = 1
   EDIFF = 1.d-5
   EDIFFG = -0.01
   NSW = 0
   NELM = 150
   ENCUT = 500
   ISIF = 2
   IBRION = 2
   LREAL = Auto
   ALGO = Fast
   ICHARG = 11
   LORBIT = 10
   LCHARG = .F.
   LWAVE = .F.

 POTCAR:    PAW_PBE Ag 02Apr2005                  
 POTCAR:    PAW_PBE Mo 08Apr2002                  
 POTCAR:    PAW_PBE H 15Jun2001                   
 -----------------------------------------------------------------------------
|                                                                             |
|           W    W    AA    RRRRR   N    N  II  N    N   GGGG   !!!           |
|           W    W   A  A   R    R  NN   N  II  NN   N  G    G  !!!           |
|           W    W  A    A  R    R  N N  N  II  N N  N  G       !!!           |
|           W WW W  AAAAAA  RRRRR   N  N N  II  N  N N  G  GGG   !            |
|           WW  WW  A    A  R   R   N   NN  II  N   NN  G    G                |
|           W    W  A    A  R    R  N    N  II  N    N   GGGG   !!!           |
|                                                                             |
|     For optimal performance we recommend to set                             |
|       NCORE = 2 up to number-of-cores-per-socket                            |
|     NCORE specifies how many cores store one orbital (NPAR=cpu/NCORE).      |
|     This setting can greatly improve the performance of VASP for DFT.       |
|     The default, NCORE=1 might be grossly inefficient on modern             |
|     multi-core architectures or massively parallel machines. Do your        |
|     own testing! More info at https://www.vasp.at/wiki/index.php/NCORE      |
|     Unfortunately you need to use the default for GW and RPA                |
|     calculations (for HF NCORE is supported but not extensively tested      |
|     yet).                                                                   |
|                                                                             |
 -----------------------------------------------------------------------------

 POTCAR:    PAW_PBE Ag 02Apr2005                  
   VRHFIN =Ag : s1 d10                                                                              
   LEXCH  = PE                                                                                      
   EATOM  =  1037.2675 eV,   76.2370 Ry                                                             
                                                                                                    
   TITEL  = PAW_PBE Ag 02Apr2005                                                                    
   LULTRA =        F    use ultrasoft PP ?                                                          
   IUNSCR =        1    unscreen: 0-lin 1-nonlin 2-no                                               
   RPACOR =    2.000    partial core radius                                                         
   POMASS =  107.868; ZVAL   =   11.000    mass and valenz                                          
   RCORE  =    2.500    outmost cutoff radius                                                       
   RWIGS  =    2.840; RWIGS  =    1.503    wigner-seitz radius (au A)                               
   ENMAX  =  249.844; ENMIN  =  187.383 eV                                                          
   ICORE  =        3    local potential                                                             
   LCOR   =        T    correct aug charges                                                         
   LPAW   =        T    paw PP                                                                      
   EAUG   =  412.496                                                                                
   DEXC   =    0.000                                                                                
   RMAX   =    2.560    core radius for proj-oper                                                   
   RAUG   =    1.300    factor for augmentation sphere                                              
   RDEP   =    2.576    radius for radial grids                                                     
   RDEPT  =    2.072    core radius for aug-charge                                                  
                                                                                                    
   Atomic configuration                                                                             
   12 entries                                                                                       
     n  l   j            E        occ.                                                              
     1  0  0.50    -25324.9161   2.0000                                                             
     2  0  0.50     -3728.5341   2.0000                                                             
     2  1  1.50     -3344.0404   6.0000                                                             
     3  0  0.50      -683.5581   2.0000                                                             
     3  1  1.50      -557.3225   6.0000                                                             
     3  2  2.50      -358.3853  10.0000                                                             
     4  0  0.50       -95.0341   2.0000                                                             
     4  1  1.50       -58.5511   6.0000                                                             
     4  2  2.50        -7.4440  10.0000                                                             
     5  0  0.50        -4.4045   1.0000                                                             
     5  1  0.50        -1.3606   0.0000                                                             
     4  3  2.50        -1.3606   0.0000                                                             
   Description                                                                                      
     l       E           TYP  RCUT    TYP  RCUT                                                     
     2     -7.4439781     23  2.400                                                                 
     2     -8.8045607     23  2.400                                                                 
     0     -4.4044681     23  2.400                                                                 
     0      1.9520038     23  2.400                                                                 
     1     -1.3605826     23  2.500                                                                 
     1     27.2116520     23  2.500                                                                 
     3     -4.0817478     23  2.400                                                                 
  local pseudopotential read in
  partial core-charges read in
  partial kinetic energy density read in
  atomic valenz-charges read in
  non local Contribution for L=           2  read in
    real space projection operators read in
  non local Contribution for L=           2  read in
    real space projection operators read in
  non local Contribution for L=           0  read in
    real space projection operators read in
  non local Contribution for L=           0  read in
    real space projection operators read in
  non local Contribution for L=           1  read in
    real space projection operators read in
  non local Contribution for L=           1  read in
    real space projection operators read in
    PAW grid and wavefunctions read in
 
   number of l-projection  operators is LMAX  =           6
   number of lm-projection operators is LMMAX =          18
 
 POTCAR:    PAW_PBE Mo 08Apr2002                  
   VRHFIN =Mo: 4p5s4d                                                                               
   LEXCH  = PE                                                                                      
   EATOM  =   217.5176 eV,   15.9871 Ry                                                             
                                                                                                    
   TITEL  = PAW_PBE Mo 08Apr2002                                                                    
   LULTRA =        F    use ultrasoft PP ?                                                          
   IUNSCR =        1    unscreen: 0-lin 1-nonlin 2-no                                               
   RPACOR =    2.200    partial core radius                                                         
   POMASS =   95.940; ZVAL   =    6.000    mass and valenz                                          
   RCORE  =    2.750    outmost cutoff radius                                                       
   RWIGS  =    2.750; RWIGS  =    1.455    wigner-seitz radius (au A)                               
   ENMAX  =  224.584; ENMIN  =  168.438 eV                                                          
   RCLOC  =    2.111    cutoff for local pot                                                        
   LCOR   =        T    correct aug charges                                                         
   LPAW   =        T    paw PP                                                                      
   EAUG   =  345.278                                                                                
   DEXC   =    0.000                                                                                
   RMAX   =    2.821    core radius for proj-oper                                                   
   RAUG   =    1.300    factor for augmentation sphere                                              
   RDEP   =    2.815    radius for radial grids                                                     
   RDEPT  =    2.211    core radius for aug-charge                                                  
                                                                                                    
   Atomic configuration                                                                             
   12 entries                                                                                       
     n  l   j            E        occ.                                                              
     1  0  0.50    -19819.0341   2.0000                                                             
     2  0  0.50     -2799.0127   2.0000                                                             
     2  1  1.50     -2502.0276   6.0000                                                             
     3  0  0.50      -476.4448   2.0000                                                             
     3  1  1.50      -379.1496   6.0000                                                             
     3  2  2.50      -220.9367  10.0000                                                             
     4  0  0.50       -64.3378   2.0000                                                             
     4  1  1.50       -38.4773   6.0000                                                             
     4  2  2.50        -3.7535   5.0000                                                             
     5  0  0.50        -4.0862   1.0000                                                             
     5  1  0.50        -2.7701   0.0000                                                             
     4  3  2.50        -1.3606   0.0000                                                             
   Description                                                                                      
     l       E           TYP  RCUT    TYP  RCUT                                                     
     2     -3.7534765     23  2.500                                                                 
     2     -5.1140591     23  2.500                                                                 
     0     -4.0861560     23  2.600                                                                 
     0     13.6058260     23  2.600                                                                 
     1      5.4423304     23  2.750                                                                 
     1     27.2116520     23  2.750                                                                 
  local pseudopotential read in
  partial core-charges read in
  partial kinetic energy density read in
  atomic valenz-charges read in
  non local Contribution for L=           2  read in
    real space projection operators read in
  non local Contribution for L=           2  read in
    real space projection operators read in
  non local Contribution for L=           0  read in
    real space projection operators read in
  non local Contribution for L=           0  read in
    real space projection operators read in
  non local Contribution for L=           1  read in
    real space projection operators read in
  non local Contribution for L=           1  read in
    real space projection operators read in
    PAW grid and wavefunctions read in
 
   number of l-projection  operators is LMAX  =           6
   number of lm-projection operators is LMMAX =          18
 
 POTCAR:    PAW_PBE H 15Jun2001                   
   VRHFIN =H: ultrasoft test                                                                        
   LEXCH  = PE                                                                                      
   EATOM  =    12.4884 eV,    0.9179 Ry                                                             
                                                                                                    
   TITEL  = PAW_PBE H 15Jun2001                                                                     
   LULTRA =        F    use ultrasoft PP ?                                                          
   IUNSCR =        0    unscreen: 0-lin 1-nonlin 2-no                                               
   RPACOR =    0.000    partial core radius                                                         
   POMASS =    1.000; ZVAL   =    1.000    mass and valenz                                          
   RCORE  =    1.100    outmost cutoff radius                                                       
   RWIGS  =    0.700; RWIGS  =    0.370    wigner-seitz radius (au A)                               
   ENMAX  =  250.000; ENMIN  =  200.000 eV                                                          
   RCLOC  =    0.701    cutoff for local pot                                                        
   LCOR   =        T    correct aug charges                                                         
   LPAW   =        T    paw PP                                                                      
   EAUG   =  400.000                                                                                
   RMAX   =    1.123    core radius for proj-oper                                                   
   RAUG   =    1.200    factor for augmentation sphere                                              
   RDEP   =    1.112    radius for radial grids                                                     
   RDEPT  =    0.926    core radius for aug-charge                                                  
                                                                                                    
   Atomic configuration                                                                             
    2 entries                                                                                       
     n  l   j            E        occ.                                                              
     1  0  0.50        -6.4927   1.0000                                                             
     2  1  0.50        -3.4015   0.0000                                                             
   Description                                                                                      
     l       E           TYP  RCUT    TYP  RCUT                                                     
     0     -6.4927494     23  1.100                                                                 
     0      6.8029130     23  1.100                                                                 
     1     -4.0817478     23  1.100                                                                 
  local pseudopotential read in
  atomic valenz-charges read in
  non local Contribution for L=           0  read in
    real space projection operators read in
  non local Contribution for L=           0  read in
    real space projection operators read in
  non local Contribution for L=           1  read in
    real space projection operators read in
    PAW grid and wavefunctions read in
 
   number of l-projection  operators is LMAX  =           3
   number of lm-projection operators is LMMAX =           5
 
 Optimization of the real space projectors (new method)

 maximal supplied QI-value         = 15.12
 optimisation between [QCUT,QGAM] = [ 11.34, 22.83] = [ 36.00,145.93] Ry 
 Optimized for a Real-space Cutoff    1.43 Angstroem

   l    n(q)    QCUT    max X(q) W(low)/X(q) W(high)/X(q)  e(spline) 
   2      9    11.338    53.897    0.16E-03    0.20E-03    0.28E-06
   2      9    11.338    52.416    0.16E-03    0.20E-03    0.29E-06
   0     10    11.338   122.045    0.31E-04    0.76E-04    0.15E-06
   0     10    11.338    73.629    0.30E-04    0.72E-04    0.15E-06
   1      9    11.338    15.255    0.20E-03    0.19E-04    0.17E-06
   1      9    11.338     9.562    0.16E-03    0.15E-04    0.14E-06
 Optimization of the real space projectors (new method)

 maximal supplied QI-value         = 13.61
 optimisation between [QCUT,QGAM] = [ 11.43, 22.86] = [ 36.58,146.31] Ry 
 Optimized for a Real-space Cutoff    1.56 Angstroem

   l    n(q)    QCUT    max X(q) W(low)/X(q) W(high)/X(q)  e(spline) 
   2     10    11.429    80.908    0.27E-03    0.78E-03    0.13E-05
   2     10    11.429    79.000    0.27E-03    0.78E-03    0.13E-05
   0     11    11.429    52.066    0.33E-04    0.97E-04    0.72E-06
   0     11    11.429    24.514    0.27E-04    0.80E-04    0.60E-06
   1     10    11.429    16.033    0.31E-04    0.17E-03    0.36E-06
   1     10    11.429    11.179    0.22E-04    0.13E-03    0.29E-06
 Optimization of the real space projectors (new method)

 maximal supplied QI-value         = 34.20
 optimisation between [QCUT,QGAM] = [ 11.29, 22.57] = [ 35.68,142.71] Ry 
 Optimized for a Real-space Cutoff    1.16 Angstroem

   l    n(q)    QCUT    max X(q) W(low)/X(q) W(high)/X(q)  e(spline) 
   0      8    11.287    19.460    0.40E-03    0.73E-03    0.16E-06
   0      8    11.287    12.209    0.38E-03    0.70E-03    0.15E-06
   1      7    11.287     4.655    0.22E-03    0.25E-04    0.22E-06
  PAW_PBE Ag 02Apr2005                  :
 energy of atom  1       EATOM=-1037.2675
 kinetic energy error for atom=    0.0052 (will be added to EATOM!!)
  PAW_PBE Mo 08Apr2002                  :
 energy of atom  2       EATOM= -217.5176
 kinetic energy error for atom=    0.0017 (will be added to EATOM!!)
  PAW_PBE H 15Jun2001                   :
 energy of atom  3       EATOM=  -12.4884
 kinetic energy error for atom=    0.0020 (will be added to EATOM!!)
 
 
 POSCAR: Ag-Mo-H2
  positions in direct lattice
  velocities in cartesian coordinates
 exchange correlation table for  LEXCH =        8
   RHO(1)=    0.500       N(1)  =     2000
   RHO(2)=  100.500       N(2)  =     4000

 VTST: version 3.2, (02/03/18)

 CHAIN: initializing optimizer
 
 OPT: Using VASP Conjugate-Gradient optimizer
 CHAIN: Read ICHAIN            0
 
 POSCAR: Ag-Mo-H2
  positions in direct lattice
  velocities in cartesian coordinates
 


--------------------------------------------------------------------------------------------------------


 ion  position               nearest neighbor table
   1  0.000  0.000  0.238-   2 2.93   8 2.93   7 2.93   6 2.93   4 2.93  12 2.93  16 2.93  10 2.93
                             3 2.93
   2  0.333  0.000  0.238-   1 2.93   8 2.93   9 2.93   3 2.93   4 2.93   5 2.93  10 2.93  17 2.93
                            11 2.93
   3  0.667  0.000  0.238-   9 2.93   2 2.93   5 2.93  11 2.93   7 2.93  18 2.93   1 2.93   6 2.93
                            12 2.93
   4  0.000  0.333  0.238-   5 2.93   6 2.93   2 2.93   1 2.93   7 2.93  13 2.93  15 2.93   9 2.93
                            10 2.93
   5  0.333  0.333  0.238-   4 2.93   3 2.93   7 2.93   2 2.93   8 2.93  14 2.93  13 2.93  11 2.93
                             6 2.93
   6  0.667  0.333  0.238-   4 2.93   9 2.93   1 2.93  15 2.93   8 2.93  12 2.93   3 2.93   5 2.93
                            14 2.93
   7  0.000  0.667  0.238-   8 2.93   1 2.93   5 2.93   3 2.93   4 2.93  16 2.93  18 2.93  13 2.93
                             9 2.93
   8  0.333  0.667  0.238-   7 2.93   1 2.93   2 2.93   9 2.93   5 2.93  16 2.93   6 2.93  17 2.93
                            14 2.93
   9  0.667  0.667  0.238-   3 2.93   2 2.93   8 2.93   6 2.93  17 2.93   4 2.93  15 2.93   7 2.93
                            18 2.93
  10  0.111  0.111  0.346-  20 2.90  19 2.93  26 2.93  12 2.93  16 2.93  15 2.93  17 2.93  13 2.93
                            11 2.93   2 2.93   1 2.93   4 2.93
  11  0.444  0.111  0.346-  21 2.90  20 2.90  27 2.93  14 2.93  17 2.93  18 2.93   3 2.93  12 2.93
                            13 2.93  10 2.93   5 2.93   2 2.93
  12  0.778  0.111  0.346-  21 2.90  25 2.93  19 2.93  10 2.93  16 2.93  18 2.93  15 2.93  11 2.93
                             1 2.93  14 2.93   6 2.93   3 2.93
  13  0.111  0.444  0.346-  20 2.90  23 2.90  22 2.93  15 2.93  14 2.93  18 2.93  10 2.93  11 2.93
                            16 2.93   4 2.93   5 2.93   7 2.93
  14  0.444  0.444  0.346-  23 2.90  21 2.90  24 2.93  13 2.93  11 2.93  16 2.93   5 2.93  12 2.93
                            17 2.93   8 2.93  15 2.93   6 2.93
  15  0.778  0.444  0.346-  24 2.92  22 2.92  19 2.92  13 2.93  10 2.93  12 2.93  17 2.93  18 2.93
                             4 2.93   6 2.93   9 2.93  14 2.93
  16  0.111  0.778  0.346-  23 2.90  26 2.93  25 2.93  18 2.93  12 2.93  10 2.93  14 2.93  17 2.93
                            13 2.93   7 2.93   8 2.93   1 2.93
  17  0.444  0.778  0.346-  27 2.92  24 2.92  26 2.92  11 2.93  10 2.93   9 2.93  18 2.93  15 2.93
                            16 2.93   2 2.93  14 2.93   8 2.93
  18  0.778  0.778  0.346-  22 2.92  27 2.92  25 2.92  16 2.93  12 2.93  13 2.93  11 2.93  17 2.93
                            15 2.93   7 2.93   3 2.93   9 2.93
  19  0.889  0.222  0.454-  28 2.92  15 2.92  10 2.93  12 2.93  24 2.93  22 2.93  26 2.93  25 2.93
                            20 2.93  21 2.93  32 2.96  31 2.96
  20  0.222  0.222  0.452-  36 2.79  13 2.90  11 2.90  10 2.90  21 2.93  23 2.93  19 2.93  26 2.93
                            27 2.93  22 2.93  31 2.94  29 2.94
  21  0.555  0.222  0.452-  36 2.79  11 2.90  14 2.90  12 2.90  20 2.93  23 2.93  25 2.93  19 2.93
                            27 2.93  24 2.93  30 2.94  32 2.94
  22  0.888  0.556  0.454-  35 2.91  24 2.92  27 2.92  18 2.92  15 2.92  13 2.93  25 2.93  19 2.93
                            23 2.93  20 2.93  33 2.94  31 2.94
  23  0.222  0.555  0.452-  36 2.79  14 2.90  13 2.90  16 2.90  21 2.93  20 2.93  26 2.93  25 2.93
                            22 2.93  24 2.93  34 2.94  33 2.94
  24  0.556  0.556  0.454-  35 2.91  27 2.92  22 2.92  15 2.92  17 2.92  14 2.93  19 2.93  26 2.93
                            23 2.93  21 2.93  32 2.94  34 2.94
  25  0.889  0.889  0.454-  28 2.92  18 2.92  16 2.93  12 2.93  22 2.93  27 2.93  26 2.93  19 2.93
                            23 2.93  21 2.93  33 2.96  30 2.96
  26  0.222  0.889  0.454-  28 2.92  17 2.92  16 2.93  10 2.93  27 2.93  24 2.93  25 2.93  19 2.93
                            23 2.93  20 2.93  34 2.96  29 2.96
  27  0.556  0.888  0.454-  35 2.91  24 2.92  22 2.92  17 2.92  18 2.92  11 2.93  26 2.93  25 2.93
                            20 2.93  21 2.93  29 2.94  30 2.94
  28  0.000  0.000  0.561-  26 2.92  25 2.92  19 2.92  29 2.95  34 2.95  33 2.95  32 2.95  31 2.95
                            30 2.95
  29  0.333  0.005  0.562-  31 2.88  30 2.89  36 2.89  27 2.94  20 2.94  28 2.95  35 2.96  26 2.96
                            34 3.02
  30  0.662  0.005  0.562-  32 2.88  29 2.89  36 2.89  27 2.94  21 2.94  28 2.95  35 2.96  25 2.96
                            33 3.02
  31  0.005  0.333  0.562-  29 2.88  33 2.89  36 2.89  22 2.94  20 2.94  28 2.95  35 2.96  19 2.96
                            32 3.02
  32  0.662  0.333  0.562-  30 2.88  34 2.89  36 2.89  24 2.94  21 2.94  28 2.95  35 2.96  19 2.96
                            31 3.02
  33  0.005  0.662  0.562-  34 2.88  31 2.89  36 2.89  22 2.94  23 2.94  28 2.95  35 2.96  25 2.96
                            30 3.02
  34  0.333  0.662  0.562-  33 2.88  32 2.89  36 2.89  24 2.94  23 2.94  28 2.95  35 2.96  26 2.96
                            29 3.02
  35  0.667  0.667  0.561-  24 2.91  27 2.91  22 2.91  30 2.96  32 2.96  29 2.96  34 2.96  31 2.96
                            33 2.96
  36  0.333  0.333  0.552-  38 1.79  37 1.79  21 2.79  20 2.79  23 2.79  31 2.89  30 2.89  33 2.89
                            29 2.89  34 2.89  32 2.89
  37  0.282  0.328  0.630-  36 1.79
  38  0.390  0.328  0.630-  36 1.79
 
  LATTYP: Found a hexagonal cell.
 ALAT       =     8.7913665772
 C/A-ratio  =     2.5227160501
  
  Lattice vectors:
  
 A1 = (  -4.3956832886,  -7.6135467898,   0.0000000000)
 A2 = (   8.7913665771,   0.0000000000,   0.0000000000)
 A3 = (   0.0000000000,   0.0000000000,  22.1781215668)


Analysis of symmetry for initial positions (statically):
=====================================================================
 Subroutine PRICEL returns:
 Original cell was already a primitive cell.
 

 Routine SETGRP: Setting up the symmetry group for a 
 hexagonal supercell.


 Subroutine GETGRP returns: Found  2 space group operations
 (whereof  2 operations were pure point group operations)
 out of a pool of 24 trial point group operations.


The static configuration has the point symmetry C_1h.


Analysis of symmetry for dynamics (positions and initial velocities):
=====================================================================
 Subroutine PRICEL returns:
 Original cell was already a primitive cell.
 

 Routine SETGRP: Setting up the symmetry group for a 
 hexagonal supercell.


 Subroutine GETGRP returns: Found  2 space group operations
 (whereof  2 operations were pure point group operations)
 out of a pool of 24 trial point group operations.


The dynamic configuration has the point symmetry C_1h.


Analysis of constrained symmetry for selective dynamics:
=====================================================================
 Subroutine PRICEL returns:
 Original cell was already a primitive cell.
 

 Routine SETGRP: Setting up the symmetry group for a 
 hexagonal supercell.


 Subroutine GETGRP returns: Found  2 space group operations
 (whereof  2 operations were pure point group operations)
 out of a pool of 24 trial point group operations.


The constrained configuration has the point symmetry C_1h.


 Subroutine INISYM returns: Found  2 space group operations
 (whereof  2 operations are pure point group operations),
 and found     1 'primitive' translations


----------------------------------------------------------------------------------------

                                     Primitive cell                                     

  volume of cell :    1484.4589

  direct lattice vectors                    reciprocal lattice vectors
     8.791366577  0.000000000  0.000000000     0.113747958 -0.065672414  0.000000000
     4.395683289  7.613546790  0.000000000     0.000000000  0.131344829  0.000000000
     0.000000000  0.000000000 22.178121567     0.000000000  0.000000000  0.045089481

  length of vectors
     8.791366577  8.791366577 22.178121567     0.131344829  0.131344829  0.045089481

  position of ions in fractional coordinates (direct lattice)
     0.000000000  0.000000000  0.238171124
     0.333333313  0.000000000  0.238171124
     0.666666627  0.000000000  0.238171124
     0.000000000  0.333333343  0.238171124
     0.333333313  0.333333343  0.238171124
     0.666666687  0.333333343  0.238171124
     0.000000000  0.666666687  0.238171124
     0.333333313  0.666666687  0.238171124
     0.666666627  0.666666687  0.238171124
     0.111111104  0.111111112  0.346057051
     0.444444448  0.111111112  0.346057051
     0.777777791  0.111111112  0.346057051
     0.111111097  0.444444448  0.346057051
     0.444444418  0.444444448  0.346057051
     0.777777791  0.444444448  0.346057051
     0.111111104  0.777777791  0.346057051
     0.444444448  0.777777791  0.346057051
     0.777777791  0.777777791  0.346057051
     0.888826068  0.222347881  0.453670091
     0.222340574  0.222340589  0.452251208
     0.555318792  0.222340589  0.452251208
     0.888411547  0.555794257  0.453693468
     0.222340589  0.555318852  0.452251208
     0.555794257  0.555794257  0.453693468
     0.888826068  0.888826068  0.453670091
     0.222347851  0.888826068  0.453670091
     0.555794197  0.888411547  0.453693468
     0.000000000  0.000000000  0.560766076
     0.333121829  0.005303367  0.562080365
     0.661574743  0.005303367  0.562080365
     0.005303367  0.333121859  0.562080365
     0.661574803  0.333121859  0.562080365
     0.005303367  0.661574803  0.562080365
     0.333121829  0.661574803  0.562080365
     0.666666627  0.666666687  0.560746365
     0.333333313  0.333333343  0.552133086
     0.282301862  0.328113438  0.629995148
     0.389584669  0.328113438  0.629995148

  ion indices of the primitive-cell ions
   primitive index   ion index
                 1           1
                 2           2
                 3           3
                 4           4
                 5           5
                 6           6
                 7           7
                 8           8
                 9           9
                10          10
                11          11
                12          12
                13          13
                14          14
                15          15
                16          16
                17          17
                18          18
                19          19
                20          20
                21          21
                22          22
                23          23
                24          24
                25          25
                26          26
                27          27
                28          28
                29          29
                30          30
                31          31
                32          32
                33          33
                34          34
                35          35
                36          36
                37          37
                38          38

----------------------------------------------------------------------------------------

 
 
 KPOINTS: Automatic mesh                          

Automatic generation of k-mesh.
 Grid dimensions read from file:
 generate k-points for:    8    8    1

 Generating k-lattice:

  Cartesian coordinates                     Fractional coordinates (reciprocal lattice)
     0.014218495 -0.008209052  0.000000000     0.125000000  0.000000000  0.000000000
     0.000000000  0.016418104  0.000000000     0.000000000  0.125000000  0.000000000
     0.000000000  0.000000000  0.045089481     0.000000000  0.000000000  1.000000000

  Length of vectors
     0.016418104  0.016418104  0.045089481

  Shift w.r.t. Gamma in fractional coordinates (k-lattice)
     0.000000000  0.000000000  0.000000000

 TETIRR: Found    100 inequivalent tetrahedra from      384
 
 Subroutine IBZKPT returns following result:
 ===========================================
 
 Found     21 irreducible k-points:
 
 Following reciprocal coordinates:
            Coordinates               Weight
  0.000000  0.000000  0.000000      1.000000
  0.125000 -0.000000  0.000000      4.000000
  0.000000  0.125000  0.000000      2.000000
  0.250000 -0.000000  0.000000      4.000000
  0.000000  0.250000  0.000000      2.000000
  0.375000 -0.000000  0.000000      4.000000
  0.000000  0.375000  0.000000      2.000000
  0.500000 -0.000000  0.000000      2.000000
  0.000000  0.500000  0.000000      1.000000
  0.250000  0.125000  0.000000      2.000000
  0.125000  0.250000  0.000000      4.000000
  0.375000  0.125000  0.000000      4.000000
  0.250000  0.375000  0.000000      4.000000
 -0.125000  0.250000  0.000000      4.000000
  0.500000  0.125000  0.000000      4.000000
  0.375000  0.500000  0.000000      4.000000
 -0.125000  0.375000  0.000000      4.000000
  0.500000  0.250000  0.000000      2.000000
  0.250000  0.500000  0.000000      4.000000
 -0.375000  0.250000  0.000000      4.000000
 -0.250000  0.375000  0.000000      2.000000
 
 Following cartesian coordinates:
            Coordinates               Weight
  0.000000  0.000000  0.000000      1.000000
  0.014218 -0.008209  0.000000      4.000000
  0.000000  0.016418  0.000000      2.000000
  0.028437 -0.016418  0.000000      4.000000
  0.000000  0.032836  0.000000      2.000000
  0.042655 -0.024627  0.000000      4.000000
  0.000000  0.049254  0.000000      2.000000
  0.056874 -0.032836  0.000000      2.000000
  0.000000  0.065672  0.000000      1.000000
  0.028437 -0.000000  0.000000      2.000000
  0.014218  0.024627  0.000000      4.000000
  0.042655 -0.008209  0.000000      4.000000
  0.028437  0.032836  0.000000      4.000000
 -0.014218  0.041045  0.000000      4.000000
  0.056874 -0.016418  0.000000      4.000000
  0.042655  0.041045  0.000000      4.000000
 -0.014218  0.057463  0.000000      4.000000
  0.056874 -0.000000  0.000000      2.000000
  0.028437  0.049254  0.000000      4.000000
 -0.042655  0.057463  0.000000      4.000000
 -0.028437  0.065672  0.000000      2.000000
 


--------------------------------------------------------------------------------------------------------




 Dimension of arrays:
   k-points           NKPTS =     21   k-points in BZ     NKDIM =     21   number of bands    NBANDS=    252
   number of dos      NEDOS =    301   number of ions     NIONS =     38
   non local maximal  LDIM  =      6   non local SUM 2l+1 LMDIM =     18
   total plane-waves  NPLWV = 290304
   max r-space proj   IRMAX =   3185   max aug-charges    IRDMAX=  12754
   dimension x,y,z NGX =    48 NGY =   48 NGZ =  126
   dimension x,y,z NGXF=    96 NGYF=   96 NGZF=  252
   support grid    NGXF=    96 NGYF=   96 NGZF=  252
   ions per type =              35   1   2
   NGX,Y,Z   is equivalent  to a cutoff of   9.08,  9.08,  9.44 a.u.
   NGXF,Y,Z  is equivalent  to a cutoff of  18.15, 18.15, 18.89 a.u.

 SYSTEM =  unknown system                          
 POSCAR =  Ag-Mo-H2                                

 Startparameter for this run:
   NWRITE =      2    write-flag & timer
   PREC   = normal    normal or accurate (medium, high low for compatibility)
   ISTART =      0    job   : 0-new  1-cont  2-samecut
   ICHARG =     11    charge: 1-file 2-atom 10-const
   ISPIN  =      1    spin polarized calculation?
   LNONCOLLINEAR =      F non collinear calculations
   LSORBIT =      F    spin-orbit coupling
   INIWAV =      1    electr: 0-lowe 1-rand  2-diag
   LASPH  =      F    aspherical Exc in radial PAW
   METAGGA=      F    non-selfconsistent MetaGGA calc.

 Electronic Relaxation 1
   ENCUT  =  500.0 eV  36.75 Ry    6.06 a.u.  16.03 16.03 40.44*2*pi/ulx,y,z
   ENINI  =  500.0     initial cutoff
   ENAUG  =  412.5 eV  augmentation charge cutoff
   NELM   =    150;   NELMIN=  2; NELMDL= -5     # of ELM steps 
   EDIFF  = 0.1E-04   stopping-criterion for ELM
   LREAL  =      T    real-space projection
   NLSPLINE    = F    spline interpolate recip. space projectors
   LCOMPAT=      F    compatible to vasp.4.4
   GGA_COMPAT  = T    GGA compatible to vasp.4.4-vasp.4.6
   LMAXPAW     = -100 max onsite density
   LMAXMIX     =    2 max onsite mixed and CHGCAR
   VOSKOWN=      0    Vosko Wilk Nusair interpolation
   ROPT   =   -0.00050  -0.00050  -0.00050
 Ionic relaxation
   EDIFFG = -.1E-01   stopping-criterion for IOM
   NSW    =      0    number of steps for IOM
   NBLOCK =      1;   KBLOCK =      1    inner block; outer block 
   IBRION =     -1    ionic relax: 0-MD 1-quasi-New 2-CG
   NFREE  =      1    steps in history (QN), initial steepest desc. (CG)
   ISIF   =      2    stress and relaxation
   IWAVPR =     10    prediction:  0-non 1-charg 2-wave 3-comb
   ISYM   =      2    0-nonsym 1-usesym 2-fastsym
   LCORR  =      T    Harris-Foulkes like correction to forces

   POTIM  = 0.5000    time-step for ionic-motion
   TEIN   =    0.0    initial temperature
   TEBEG  =    0.0;   TEEND  =   0.0 temperature during run
   SMASS  =  -3.00    Nose mass-parameter (am)
   estimated Nose-frequenzy (Omega)   =  0.10E-29 period in steps = 0.13E+47 mass=  -0.177E-26a.u.
   SCALEE = 1.0000    scale energy and forces
   NPACO  =    256;   APACO  = 16.0  distance and # of slots for P.C.
   PSTRESS=    0.0 pullay stress

  Mass of Ions in am
   POMASS = 107.87 95.94  1.00
  Ionic Valenz
   ZVAL   =  11.00  6.00  1.00
  Atomic Wigner-Seitz radii
   RWIGS  =  -1.00 -1.00 -1.00
  virtual crystal weights 
   VCA    =   1.00  1.00  1.00
   NELECT =     393.0000    total number of electrons
   NUPDOWN=      -1.0000    fix difference up-down

 DOS related values:
   EMIN   =  10.00;   EMAX   =-10.00  energy-range for DOS
   EFERMI =   0.00
   ISMEAR =    -5;   SIGMA  =   0.10  broadening in eV -4-tet -1-fermi 0-gaus

 Electronic relaxation 2 (details)
   IALGO  =     68    algorithm
   LDIAG  =      T    sub-space diagonalisation (order eigenvalues)
   LSUBROT=      F    optimize rotation matrix (better conditioning)
   TURBO    =      0    0=normal 1=particle mesh
   IRESTART =      0    0=no restart 2=restart with 2 vectors
   NREBOOT  =      0    no. of reboots
   NMIN     =      0    reboot dimension
   EREF     =   0.00    reference energy to select bands
   IMIX   =      4    mixing-type and parameters
     AMIX     =   0.40;   BMIX     =  1.00
     AMIX_MAG =   1.60;   BMIX_MAG =  1.00
     AMIN     =   0.10
     WC   =   100.;   INIMIX=   1;  MIXPRE=   1;  MAXMIX= -45

 Intra band minimization:
   WEIMIN = 0.0000     energy-eigenvalue tresh-hold
   EBREAK =  0.99E-08  absolut break condition
   DEPER  =   0.30     relativ break condition  

   TIME   =   0.40     timestep for ELM

  volume/ion in A,a.u.               =      39.06       263.62
  Fermi-wavevector in a.u.,A,eV,Ry     =   1.051194  1.986469 15.034564  1.105009
  Thomas-Fermi vector in A             =   2.186228
 
 Write flags
   LWAVE        =      F    write WAVECAR
   LDOWNSAMPLE  =      F    k-point downsampling of WAVECAR
   LCHARG       =      F    write CHGCAR
   LVTOT        =      F    write LOCPOT, total local potential
   LVHAR        =      F    write LOCPOT, Hartree potential only
   LELF         =      F    write electronic localiz. function (ELF)
   LORBIT       =     10    0 simple, 1 ext, 2 COOP (PROOUT), +10 PAW based schemes


 Dipole corrections
   LMONO  =      F    monopole corrections only (constant potential shift)
   LDIPOL =      F    correct potential (dipole corrections)
   IDIPOL =      0    1-x, 2-y, 3-z, 4-all directions 
   EPSILON=  1.0000000 bulk dielectric constant

 Exchange correlation treatment:
   GGA     =    --    GGA type
   LEXCH   =     8    internal setting for exchange type
   VOSKOWN=      0    Vosko Wilk Nusair interpolation
   LHFCALC =     F    Hartree Fock is set to
   LHFONE  =     F    Hartree Fock one center treatment
   AEXX    =    0.0000 exact exchange contribution

 Linear response parameters
   LEPSILON=     F    determine dielectric tensor
   LRPA    =     F    only Hartree local field effects (RPA)
   LNABLA  =     F    use nabla operator in PAW spheres
   LVEL    =     F    velocity operator in full k-point grid
   LINTERFAST=   F  fast interpolation
   KINTER  =     0    interpolate to denser k-point grid
   CSHIFT  =0.1000    complex shift for real part using Kramers Kronig
   OMEGAMAX=  -1.0    maximum frequency
   DEG_THRESHOLD= 0.2000000E-02 threshold for treating states as degnerate
   RTIME   =   -0.100 relaxation time in fs
  (WPLASMAI=    0.000 imaginary part of plasma frequency in eV, 0.658/RTIME)
   DFIELD  = 0.0000000 0.0000000 0.0000000 field for delta impulse in time
 
 Orbital magnetization related:
   ORBITALMAG=     F  switch on orbital magnetization
   LCHIMAG   =     F  perturbation theory with respect to B field
   DQ        =  0.001000  dq finite difference perturbation B field
   LLRAUG    =     F  two centre corrections for induced B field



--------------------------------------------------------------------------------------------------------


 Static calculation
 charge density and potential remain constant during run
 non-spin polarized calculation
 RMM-DIIS sequential band-by-band and
  variant of blocked Davidson during initial phase
 perform sub-space diagonalisation
    before iterative eigenvector-optimisation
 no mixing
 using additional bands           55
 real space projection scheme for non local part
 use partial core corrections
 calculate Harris-corrections to forces 
   (improved forces if not selfconsistent)
 use gradient corrections 
 WARNING: stress and forces are not correct
  (second derivative of E(xc) not defined)
 use of overlap-Matrix (Vanderbilt PP)
 Fermi weights with tetrahedron method with Bloechl corrections


--------------------------------------------------------------------------------------------------------


  energy-cutoff  :      500.00
  volume of cell :     1484.46
      direct lattice vectors                 reciprocal lattice vectors
     8.791366577  0.000000000  0.000000000     0.113747958 -0.065672414  0.000000000
     4.395683289  7.613546790  0.000000000     0.000000000  0.131344829  0.000000000
     0.000000000  0.000000000 22.178121567     0.000000000  0.000000000  0.045089481

  length of vectors
     8.791366577  8.791366577 22.178121567     0.131344829  0.131344829  0.045089481


 
 k-points in units of 2pi/SCALE and weight: Automatic mesh                          
   0.00000000  0.00000000  0.00000000       0.016
   0.01421849 -0.00820905  0.00000000       0.062
   0.00000000  0.01641810  0.00000000       0.031
   0.02843699 -0.01641810  0.00000000       0.062
   0.00000000  0.03283621  0.00000000       0.031
   0.04265548 -0.02462716  0.00000000       0.062
   0.00000000  0.04925431  0.00000000       0.031
   0.05687398 -0.03283621  0.00000000       0.031
   0.00000000  0.06567241  0.00000000       0.016
   0.02843699 -0.00000000  0.00000000       0.031
   0.01421849  0.02462716  0.00000000       0.062
   0.04265548 -0.00820905  0.00000000       0.062
   0.02843699  0.03283621  0.00000000       0.062
  -0.01421849  0.04104526  0.00000000       0.062
   0.05687398 -0.01641810  0.00000000       0.062
   0.04265548  0.04104526  0.00000000       0.062
  -0.01421849  0.05746336  0.00000000       0.062
   0.05687398 -0.00000000  0.00000000       0.031
   0.02843699  0.04925431  0.00000000       0.062
  -0.04265548  0.05746336  0.00000000       0.062
  -0.02843699  0.06567241  0.00000000       0.031
 
 k-points in reciprocal lattice and weights: Automatic mesh                          
   0.00000000  0.00000000  0.00000000       0.016
   0.12500000 -0.00000000  0.00000000       0.062
   0.00000000  0.12500000  0.00000000       0.031
   0.25000000 -0.00000000  0.00000000       0.062
   0.00000000  0.25000000  0.00000000       0.031
   0.37500000 -0.00000000  0.00000000       0.062
   0.00000000  0.37500000  0.00000000       0.031
   0.50000000 -0.00000000  0.00000000       0.031
   0.00000000  0.50000000  0.00000000       0.016
   0.25000000  0.12500000  0.00000000       0.031
   0.12500000  0.25000000  0.00000000       0.062
   0.37500000  0.12500000  0.00000000       0.062
   0.25000000  0.37500000  0.00000000       0.062
  -0.12500000  0.25000000  0.00000000       0.062
   0.50000000  0.12500000  0.00000000       0.062
   0.37500000  0.50000000  0.00000000       0.062
  -0.12500000  0.37500000  0.00000000       0.062
   0.50000000  0.25000000  0.00000000       0.031
   0.25000000  0.50000000  0.00000000       0.062
  -0.37500000  0.25000000  0.00000000       0.062
  -0.25000000  0.37500000  0.00000000       0.031
 
 position of ions in fractional coordinates (direct lattice) 
   0.00000000  0.00000000  0.23817112
   0.33333331  0.00000000  0.23817112
   0.66666663  0.00000000  0.23817112
   0.00000000  0.33333334  0.23817112
   0.33333331  0.33333334  0.23817112
   0.66666669  0.33333334  0.23817112
   0.00000000  0.66666669  0.23817112
   0.33333331  0.66666669  0.23817112
   0.66666663  0.66666669  0.23817112
   0.11111110  0.11111111  0.34605705
   0.44444445  0.11111111  0.34605705
   0.77777779  0.11111111  0.34605705
   0.11111110  0.44444445  0.34605705
   0.44444442  0.44444445  0.34605705
   0.77777779  0.44444445  0.34605705
   0.11111110  0.77777779  0.34605705
   0.44444445  0.77777779  0.34605705
   0.77777779  0.77777779  0.34605705
   0.88882607  0.22234788  0.45367009
   0.22234057  0.22234059  0.45225121
   0.55531879  0.22234059  0.45225121
   0.88841155  0.55579426  0.45369347
   0.22234059  0.55531885  0.45225121
   0.55579426  0.55579426  0.45369347
   0.88882607  0.88882607  0.45367009
   0.22234785  0.88882607  0.45367009
   0.55579420  0.88841155  0.45369347
   0.00000000  0.00000000  0.56076608
   0.33312183  0.00530337  0.56208037
   0.66157474  0.00530337  0.56208037
   0.00530337  0.33312186  0.56208037
   0.66157480  0.33312186  0.56208037
   0.00530337  0.66157480  0.56208037
   0.33312183  0.66157480  0.56208037
   0.66666663  0.66666669  0.56074637
   0.33333331  0.33333334  0.55213309
   0.28230186  0.32811344  0.62999515
   0.38958467  0.32811344  0.62999515
 
 position of ions in cartesian coordinates  (Angst):
   0.00000000  0.00000000  5.28218814
   2.93045535  0.00000000  5.28218814
   5.86091070  0.00000000  5.28218814
   1.46522781  2.53784900  5.28218814
   4.39568315  2.53784900  5.28218814
   7.32613904  2.53784900  5.28218814
   2.93045562  5.07569801  5.28218814
   5.86091096  5.07569801  5.28218814
   8.79136632  5.07569801  5.28218814
   1.46522770  0.84594965  7.67489535
   4.39568332  0.84594965  7.67489535
   7.32613893  0.84594965  7.67489535
   2.93045542  3.38379860  7.67489535
   5.86091083  3.38379860  7.67489535
   8.79136671  3.38379860  7.67489535
   4.39568328  5.92164760  7.67489535
   7.32613890  5.92164760  7.67489535
  10.25659451  5.92164760  7.67489535
   8.79136665  1.69285599 10.06155044
   2.93201630  1.69280048 10.03008227
   5.85934988  1.69280048 10.03008227
  10.25344710  4.23156558 10.06206889
   4.39568342  4.22794606 10.03008227
   7.32928658  4.23156558 10.06206889
  11.72099368  6.76711885 10.06155044
   5.86173936  6.76711885 10.06155044
   8.79136631  6.76396288 10.06206889
   0.00000000  0.00000000 12.43673821
   2.95190804  0.04037743 12.46588667
   5.83945801  0.04037743 12.46588667
   1.51092204  2.53623886 12.46588667
   7.28044480  2.53623886 12.46588667
   2.95469715  5.03693072 12.46588667
   5.83666942  5.03693072 12.46588667
   8.79136632  5.07569801 12.43630105
   4.39568315  2.53784900 12.24527469
   3.92410191  2.49810701 13.97210898
   4.86726439  2.49810701 13.97210898
 


--------------------------------------------------------------------------------------------------------


 k-point   1 :   0.0000 0.0000 0.0000  plane waves:   37683
 k-point   2 :   0.1250-0.0000 0.0000  plane waves:   37658
 k-point   3 :   0.0000 0.1250 0.0000  plane waves:   37658
 k-point   4 :   0.2500-0.0000 0.0000  plane waves:   37682
 k-point   5 :   0.0000 0.2500 0.0000  plane waves:   37682
 k-point   6 :   0.3750-0.0000 0.0000  plane waves:   37686
 k-point   7 :   0.0000 0.3750 0.0000  plane waves:   37686
 k-point   8 :   0.5000-0.0000 0.0000  plane waves:   37668
 k-point   9 :   0.0000 0.5000 0.0000  plane waves:   37668
 k-point  10 :   0.2500 0.1250 0.0000  plane waves:   37666
 k-point  11 :   0.1250 0.2500 0.0000  plane waves:   37666
 k-point  12 :   0.3750 0.1250 0.0000  plane waves:   37708
 k-point  13 :   0.2500 0.3750 0.0000  plane waves:   37708
 k-point  14 :  -0.1250 0.2500 0.0000  plane waves:   37708
 k-point  15 :   0.5000 0.1250 0.0000  plane waves:   37726
 k-point  16 :   0.3750 0.5000 0.0000  plane waves:   37726
 k-point  17 :  -0.1250 0.3750 0.0000  plane waves:   37726
 k-point  18 :   0.5000 0.2500 0.0000  plane waves:   37706
 k-point  19 :   0.2500 0.5000 0.0000  plane waves:   37706
 k-point  20 :  -0.3750 0.2500 0.0000  plane waves:   37686
 k-point  21 :  -0.2500 0.3750 0.0000  plane waves:   37686

 maximum and minimum number of plane-waves per node :     37726    37658

 maximum number of plane-waves:     37726
 maximum index in each direction: 
   IXMAX=   16   IYMAX=   16   IZMAX=   40
   IXMIN=  -16   IYMIN=  -16   IZMIN=  -40


 serial   3D FFT for wavefunctions
 parallel 3D FFT for charge:
    minimum data exchange during FFTs selected (reduces bandwidth)


 total amount of memory used by VASP MPI-rank0   184457. kBytes
=======================================================================

   base      :      30000. kBytes
   nonlr-proj:      15489. kBytes
   fftplans  :       4330. kBytes
   grid      :      17879. kBytes
   one-center:        590. kBytes
   wavefun   :     116169. kBytes
 
     INWAV:  cpu time    0.0000: real time    0.0000
 initial charge density was supplied:
 number of electron     392.9999959 magnetization 
 keeping initial charge density in first step


--------------------------------------------------------------------------------------------------------


 Maximum index for non-local projection operator         3036
 Maximum index for augmentation-charges          702 (set IRDMAX)


--------------------------------------------------------------------------------------------------------


 First call to EWALD:  gamma=   0.155
 Maximum number of real-space cells 4x 4x 2
 Maximum number of reciprocal cells 2x 2x 5

    FEWALD:  cpu time    0.0013: real time    0.0013


--------------------------------------- Iteration      1(   1)  ---------------------------------------


    POTLOK:  cpu time    0.0447: real time    0.0451
    SETDIJ:  cpu time    0.0048: real time    0.0049
     EDDAV:  cpu time   15.2461: real time   15.2516
 BZINTS: Fermi energy:    9.237892;  393.000000 electrons
         Band energy: 0.118913E+04;  BLOECHL correction:   -0.021673
       DOS:  cpu time    0.0308: real time    0.0308
    --------------------------------------------
      LOOP:  cpu time   15.3265: real time   15.3324

 eigenvalue-minimisations  : 10584
 total energy-change (2. order) : 0.2360960E+04  (-0.1808685E+05)
 number of electron     392.9999959 magnetization 
 augmentation part      392.9999959 magnetization 

 Free energy of the ion-electron system (eV)
  ---------------------------------------------------
  alpha Z        PSCENC =       748.07356314
  Ewald energy   TEWEN  =     96840.98877953
  -Hartree energ DENC   =   -134124.20817371
  -exchange      EXHF   =         0.00000000
  -V(xc)+E(xc)   XCENC  =      -444.87201124
  PAW double counting   =     38700.41800073   -37095.23593866
  entropy T*S    EENTRO =         0.00000000
  eigenvalues    EBANDS =      1189.12570749
  atomic energy  EATOM  =     36546.66957486
  Solvation  Ediel_sol  =         0.00000000
  ---------------------------------------------------
  free energy    TOTEN  =      2360.95950215 eV

  energy without entropy =     2360.95950215  energy(sigma->0) =     2360.95950215


--------------------------------------------------------------------------------------------------------




--------------------------------------- Iteration      1(   2)  ---------------------------------------


     EDDAV:  cpu time   15.9220: real time   15.9265
 BZINTS: Fermi energy:    1.339282;  393.000000 electrons
         Band energy:-0.120065E+04;  BLOECHL correction:   -0.022630
       DOS:  cpu time    0.0285: real time    0.0285
    --------------------------------------------
      LOOP:  cpu time   15.9504: real time   15.9550

 eigenvalue-minimisations  : 11172
 total energy-change (2. order) :-0.2389774E+04  (-0.2264800E+04)
 number of electron     392.9999959 magnetization 
 augmentation part      392.9999959 magnetization 

 Free energy of the ion-electron system (eV)
  ---------------------------------------------------
  alpha Z        PSCENC =       748.07356314
  Ewald energy   TEWEN  =     96840.98877953
  -Hartree energ DENC   =   -134124.20817371
  -exchange      EXHF   =         0.00000000
  -V(xc)+E(xc)   XCENC  =      -444.87201124
  PAW double counting   =     38700.41800073   -37095.23593866
  entropy T*S    EENTRO =         0.00000000
  eigenvalues    EBANDS =     -1200.64789237
  atomic energy  EATOM  =     36546.66957486
  Solvation  Ediel_sol  =         0.00000000
  ---------------------------------------------------
  free energy    TOTEN  =       -28.81409771 eV

  energy without entropy =      -28.81409771  energy(sigma->0) =      -28.81409771


--------------------------------------------------------------------------------------------------------




--------------------------------------- Iteration      1(   3)  ---------------------------------------


     EDDAV:  cpu time   16.9869: real time   16.9916
 BZINTS: Fermi energy:    0.831083;  393.000000 electrons
         Band energy:-0.127494E+04;  BLOECHL correction:   -0.020119
       DOS:  cpu time    0.0293: real time    0.0293
    --------------------------------------------
      LOOP:  cpu time   17.0161: real time   17.0208

 eigenvalue-minimisations  : 12068
 total energy-change (2. order) :-0.7429079E+02  (-0.7253973E+02)
 number of electron     392.9999959 magnetization 
 augmentation part      392.9999959 magnetization 

 Free energy of the ion-electron system (eV)
  ---------------------------------------------------
  alpha Z        PSCENC =       748.07356314
  Ewald energy   TEWEN  =     96840.98877953
  -Hartree energ DENC   =   -134124.20817371
  -exchange      EXHF   =         0.00000000
  -V(xc)+E(xc)   XCENC  =      -444.87201124
  PAW double counting   =     38700.41800073   -37095.23593866
  entropy T*S    EENTRO =         0.00000000
  eigenvalues    EBANDS =     -1274.93867946
  atomic energy  EATOM  =     36546.66957486
  Solvation  Ediel_sol  =         0.00000000
  ---------------------------------------------------
  free energy    TOTEN  =      -103.10488480 eV

  energy without entropy =     -103.10488480  energy(sigma->0) =     -103.10488480


--------------------------------------------------------------------------------------------------------




--------------------------------------- Iteration      1(   4)  ---------------------------------------


     EDDAV:  cpu time   17.1140: real time   17.1186
 BZINTS: Fermi energy:    0.820235;  393.000000 electrons
         Band energy:-0.127588E+04;  BLOECHL correction:   -0.019912
       DOS:  cpu time    0.0281: real time    0.0281
    --------------------------------------------
      LOOP:  cpu time   17.1421: real time   17.1467

 eigenvalue-minimisations  : 12208
 total energy-change (2. order) :-0.9406514E+00  (-0.9391220E+00)
 number of electron     392.9999959 magnetization 
 augmentation part      392.9999959 magnetization 

 Free energy of the ion-electron system (eV)
  ---------------------------------------------------
  alpha Z        PSCENC =       748.07356314
  Ewald energy   TEWEN  =     96840.98877953
  -Hartree energ DENC   =   -134124.20817371
  -exchange      EXHF   =         0.00000000
  -V(xc)+E(xc)   XCENC  =      -444.87201124
  PAW double counting   =     38700.41800073   -37095.23593866
  entropy T*S    EENTRO =         0.00000000
  eigenvalues    EBANDS =     -1275.87933089
  atomic energy  EATOM  =     36546.66957486
  Solvation  Ediel_sol  =         0.00000000
  ---------------------------------------------------
  free energy    TOTEN  =      -104.04553623 eV

  energy without entropy =     -104.04553623  energy(sigma->0) =     -104.04553623


--------------------------------------------------------------------------------------------------------




--------------------------------------- Iteration      1(   5)  ---------------------------------------


     EDDAV:  cpu time   18.4176: real time   18.4229
 BZINTS: Fermi energy:    0.820032;  393.000000 electrons
         Band energy:-0.127590E+04;  BLOECHL correction:   -0.019907
       DOS:  cpu time    0.0275: real time    0.0275
    --------------------------------------------
      LOOP:  cpu time   18.4450: real time   18.4503

 eigenvalue-minimisations  : 13328
 total energy-change (2. order) :-0.2164639E-01  (-0.2164719E-01)
 number of electron     392.9999959 magnetization 
 augmentation part      392.9999959 magnetization 

 Free energy of the ion-electron system (eV)
  ---------------------------------------------------
  alpha Z        PSCENC =       748.07356314
  Ewald energy   TEWEN  =     96840.98877953
  -Hartree energ DENC   =   -134124.20817371
  -exchange      EXHF   =         0.00000000
  -V(xc)+E(xc)   XCENC  =      -444.87201124
  PAW double counting   =     38700.41800073   -37095.23593866
  entropy T*S    EENTRO =         0.00000000
  eigenvalues    EBANDS =     -1275.90097727
  atomic energy  EATOM  =     36546.66957486
  Solvation  Ediel_sol  =         0.00000000
  ---------------------------------------------------
  free energy    TOTEN  =      -104.06718261 eV

  energy without entropy =     -104.06718261  energy(sigma->0) =     -104.06718261


--------------------------------------------------------------------------------------------------------




--------------------------------------- Iteration      1(   6)  ---------------------------------------


    EDDIAG:  cpu time    2.9399: real time    2.9409
  RMM-DIIS:  cpu time    8.1939: real time    8.1963
    ORTHCH:  cpu time    0.5479: real time    0.5479
 BZINTS: Fermi energy:    0.820030;  393.000000 electrons
         Band energy:-0.127590E+04;  BLOECHL correction:   -0.019906
       DOS:  cpu time    0.0287: real time    0.0287
    --------------------------------------------
      LOOP:  cpu time   11.7105: real time   11.7138

 eigenvalue-minimisations  : 10558
 total energy-change (2. order) :-0.5155621E-03  (-0.5161483E-03)
 number of electron     392.9999959 magnetization 
 augmentation part      392.9999959 magnetization 

 Free energy of the ion-electron system (eV)
  ---------------------------------------------------
  alpha Z        PSCENC =       748.07356314
  Ewald energy   TEWEN  =     96840.98877953
  -Hartree energ DENC   =   -134124.20817371
  -exchange      EXHF   =         0.00000000
  -V(xc)+E(xc)   XCENC  =      -444.87201124
  PAW double counting   =     38700.41800073   -37095.23593866
  entropy T*S    EENTRO =         0.00000000
  eigenvalues    EBANDS =     -1275.90149283
  atomic energy  EATOM  =     36546.66957486
  Solvation  Ediel_sol  =         0.00000000
  ---------------------------------------------------
  free energy    TOTEN  =      -104.06769817 eV

  energy without entropy =     -104.06769817  energy(sigma->0) =     -104.06769817


--------------------------------------------------------------------------------------------------------




--------------------------------------- Iteration      1(   7)  ---------------------------------------


    EDDIAG:  cpu time    2.9400: real time    2.9409
  RMM-DIIS:  cpu time   11.4618: real time   11.4652
    ORTHCH:  cpu time    0.5483: real time    0.5483
 BZINTS: Fermi energy:    0.820029;  393.000000 electrons
         Band energy:-0.127590E+04;  BLOECHL correction:   -0.019906
       DOS:  cpu time    0.0294: real time    0.0294
    --------------------------------------------
      LOOP:  cpu time   14.9795: real time   14.9837

 eigenvalue-minimisations  : 14699
 total energy-change (2. order) :-0.1800064E-03  (-0.1798411E-03)
 number of electron     392.9999959 magnetization 
 augmentation part      392.9999959 magnetization 

 Free energy of the ion-electron system (eV)
  ---------------------------------------------------
  alpha Z        PSCENC =       748.07356314
  Ewald energy   TEWEN  =     96840.98877953
  -Hartree energ DENC   =   -134124.20817371
  -exchange      EXHF   =         0.00000000
  -V(xc)+E(xc)   XCENC  =      -444.87201124
  PAW double counting   =     38700.41800073   -37095.23593866
  entropy T*S    EENTRO =         0.00000000
  eigenvalues    EBANDS =     -1275.90167284
  atomic energy  EATOM  =     36546.66957486
  Solvation  Ediel_sol  =         0.00000000
  ---------------------------------------------------
  free energy    TOTEN  =      -104.06787818 eV

  energy without entropy =     -104.06787818  energy(sigma->0) =     -104.06787818


--------------------------------------------------------------------------------------------------------




--------------------------------------- Iteration      1(   8)  ---------------------------------------


    EDDIAG:  cpu time    2.9410: real time    2.9419
  RMM-DIIS:  cpu time    7.5738: real time    7.5759
    ORTHCH:  cpu time    0.5481: real time    0.5481
 BZINTS: Fermi energy:    0.820029;  393.000000 electrons
         Band energy:-0.127590E+04;  BLOECHL correction:   -0.019906
       DOS:  cpu time    0.0287: real time    0.0287
    --------------------------------------------
      LOOP:  cpu time   11.0916: real time   11.0946

 eigenvalue-minimisations  :  8275
 total energy-change (2. order) :-0.9256823E-05  (-0.9136206E-05)
 number of electron     392.9999959 magnetization 
 augmentation part      392.9999959 magnetization 

 Free energy of the ion-electron system (eV)
  ---------------------------------------------------
  alpha Z        PSCENC =       748.07356314
  Ewald energy   TEWEN  =     96840.98877953
  -Hartree energ DENC   =   -134124.20817371
  -exchange      EXHF   =         0.00000000
  -V(xc)+E(xc)   XCENC  =      -444.87201124
  PAW double counting   =     38700.41800073   -37095.23593866
  entropy T*S    EENTRO =         0.00000000
  eigenvalues    EBANDS =     -1275.90168210
  atomic energy  EATOM  =     36546.66957486
  Solvation  Ediel_sol  =         0.00000000
  ---------------------------------------------------
  free energy    TOTEN  =      -104.06788744 eV

  energy without entropy =     -104.06788744  energy(sigma->0) =     -104.06788744


--------------------------------------------------------------------------------------------------------




 average (electrostatic) potential at core
  the test charge radii are     1.1249  1.2296  0.5201
  (the norm of the test charge is              1.0000)
       1 -78.0809       2 -78.0567       3 -78.0566       4 -78.0567       5 -78.0464
       6 -78.0564       7 -78.0572       8 -78.0570       9 -78.0794      10 -78.3062
      11 -78.2696      12 -78.3061      13 -78.2698      14 -78.2696      15 -78.2882
      16 -78.3044      17 -78.2838      18 -78.2838      19 -78.2868      20 -78.3869
      21 -78.3869      22 -78.2662      23 -78.3793      24 -78.2662      25 -78.2801
      26 -78.2801      27 -78.2554      28 -78.0704      29 -78.0302      30 -78.0302
      31 -78.0444      32 -78.0444      33 -78.0416      34 -78.0415      35 -78.0599
      36 -42.3901      37 -36.7800      38 -36.7800
 
 
 
 E-fermi :   0.8200     XC(G=0):  -5.9411     alpha+bet : -5.5990

 Fermi energy:         0.8200287681

 k-point     1 :       0.0000    0.0000    0.0000
  band No.  band energies     occupation 
      1      -6.6131      2.00000
      2      -6.2019      2.00000
      3      -5.3881      2.00000
      4      -5.1316      2.00000
      5      -5.0169      2.00000
      6      -5.0153      2.00000
      7      -5.0149      2.00000
      8      -5.0134      2.00000
      9      -5.0125      2.00000
     10      -5.0074      2.00000
     11      -4.9897      2.00000
     12      -4.9705      2.00000
     13      -4.9705      2.00000
     14      -4.9671      2.00000
     15      -4.9622      2.00000
     16      -4.9609      2.00000
     17      -4.9222      2.00000
     18      -4.8066      2.00000
     19      -4.8062      2.00000
     20      -4.8052      2.00000
     21      -4.7952      2.00000
     22      -4.7945      2.00000
     23      -4.7928      2.00000
     24      -4.6216      2.00000
     25      -4.6132      2.00000
     26      -4.6126      2.00000
     27      -4.5977      2.00000
     28      -4.5913      2.00000
     29      -4.5913      2.00000
     30      -4.5843      2.00000
     31      -4.5816      2.00000
     32      -4.5538      2.00000
     33      -4.5533      2.00000
     34      -4.5514      2.00000
     35      -4.5503      2.00000
     36      -4.4686      2.00000
     37      -4.4532      2.00000
     38      -4.4521      2.00000
     39      -4.3977      2.00000
     40      -4.3784      2.00000
     41      -4.3762      2.00000
     42      -4.2259      2.00000
     43      -4.2243      2.00000
     44      -4.2115      2.00000
     45      -4.2113      2.00000
     46      -4.2014      2.00000
     47      -4.1986      2.00000
     48      -4.1974      2.00000
     49      -4.1928      2.00000
     50      -4.1771      2.00000
     51      -4.1744      2.00000
     52      -4.0623      2.00000
     53      -4.0562      2.00000
     54      -4.0322      2.00000
     55      -4.0133      2.00000
     56      -3.8409      2.00000
     57      -3.8340      2.00000
     58      -3.8336      2.00000
     59      -3.8309      2.00000
     60      -3.8289      2.00000
     61      -3.8234      2.00000
     62      -3.8170      2.00000
     63      -3.8006      2.00000
     64      -3.8003      2.00000
     65      -3.7665      2.00000
     66      -3.7660      2.00000
     67      -3.6736      2.00000
     68      -3.6732      2.00000
     69      -3.6568      2.00000
     70      -3.6561      2.00000
     71      -3.6545      2.00000
     72      -3.6469      2.00000
     73      -3.6402      2.00000
     74      -3.6388      2.00000
     75      -3.6216      2.00000
     76      -3.6204      2.00000
     77      -3.6014      2.00000
     78      -3.5875      2.00000
     79      -3.5837      2.00000
     80      -3.5834      2.00000
     81      -3.5720      2.00000
     82      -3.5712      2.00000
     83      -3.5603      2.00000
     84      -3.5160      2.00000
     85      -3.5159      2.00000
     86      -3.4413      2.00000
     87      -3.4404      2.00000
     88      -3.4399      2.00000
     89      -3.4267      2.00000
     90      -3.4262      2.00000
     91      -3.4092      2.00000
     92      -3.4089      2.00000
     93      -3.3663      2.00000
     94      -3.3654      2.00000
     95      -3.3525      2.00000
     96      -3.3430      2.00000
     97      -3.3408      2.00000
     98      -3.3341      2.00000
     99      -3.3152      2.00000
    100      -3.1198      2.00000
    101      -3.1195      2.00000
    102      -3.1106      2.00000
    103      -3.1062      2.00000
    104      -3.1054      2.00000
    105      -3.0937      2.00000
    106      -3.0930      2.00000
    107      -3.0773      2.00000
    108      -3.0600      2.00000
    109      -3.0308      2.00000
    110      -3.0303      2.00000
    111      -2.9965      2.00000
    112      -2.9877      2.00000
    113      -2.9599      2.00000
    114      -2.9518      2.00000
    115      -2.8998      2.00000
    116      -2.8645      2.00000
    117      -2.8637      2.00000
    118      -2.8311      2.00000
    119      -2.8307      2.00000
    120      -2.8047      2.00000
    121      -2.8030      2.00000
    122      -2.7677      2.00000
    123      -2.7570      2.00000
    124      -2.7533      2.00000
    125      -2.7477      2.00000
    126      -2.7476      2.00000
    127      -2.7242      2.00000
    128      -2.7238      2.00000
    129      -2.7232      2.00000
    130      -2.7164      2.00000
    131      -2.7145      2.00000
    132      -2.7134      2.00000
    133      -2.7068      2.00000
    134      -2.6253      2.00000
    135      -2.6196      2.00000
    136      -2.5434      2.00000
    137      -2.5376      2.00000
    138      -2.5361      2.00000
    139      -2.5258      2.00000
    140      -2.5192      2.00000
    141      -2.5188      2.00000
    142      -2.5097      2.00000
    143      -2.5085      2.00000
    144      -2.4965      2.00000
    145      -2.4961      2.00000
    146      -2.4882      2.00000
    147      -2.4873      2.00000
    148      -2.4428      2.00000
    149      -2.4279      2.00000
    150      -2.4201      2.00000
    151      -2.4201      2.00000
    152      -2.4174      2.00000
    153      -2.4074      2.00000
    154      -2.4067      2.00000
    155      -2.3768      2.00000
    156      -2.3710      2.00000
    157      -2.3700      2.00000
    158      -2.3475      2.00000
    159      -2.3469      2.00000
    160      -2.3420      2.00000
    161      -2.3294      2.00000
    162      -2.3229      2.00000
    163      -2.3196      2.00000
    164      -2.3190      2.00000
    165      -2.3188      2.00000
    166      -2.2920      2.00000
    167      -2.2851      2.00000
    168      -2.2840      2.00000
    169      -2.2588      2.00000
    170      -2.2586      2.00000
    171      -2.2553      2.00000
    172      -2.2261      2.00000
    173      -2.2244      2.00000
    174      -2.1628      2.00000
    175      -2.1608      2.00000
    176      -2.1346      2.00000
    177      -2.1323      2.00000
    178      -2.1319      2.00000
    179      -2.1130      2.00000
    180      -2.0418      2.00000
    181      -2.0264      2.00000
    182      -2.0263      2.00000
    183      -2.0220      2.00000
    184      -2.0141      2.00000
    185      -1.9631      2.00000
    186      -1.2928      2.00000
    187      -1.2863      2.00000
    188      -1.2587      2.00000
    189      -1.2512      2.00000
    190      -1.2330      2.00000
    191      -0.9938      2.00000
    192      -0.1865      2.00000
    193      -0.0273      2.00000
    194       0.2493      2.00000
    195       0.2574      2.00000
    196       0.3885      2.00000
    197       0.3908      2.00000
    198       0.4865      2.00000
    199       0.7622      2.06594
    200       0.8822      0.00000
    201       1.0169      0.00000
    202       1.0281      0.00000
    203       1.2240      0.00000
    204       2.0633      0.00000
    205       2.6864      0.00000
    206       2.7212      0.00000
    207       2.7255      0.00000
    208       3.0549      0.00000
    209       3.0676      0.00000
    210       4.0737      0.00000
    211       4.1626      0.00000
    212       4.1861      0.00000
    213       4.2775      0.00000
    214       4.3249      0.00000
    215       4.3376      0.00000
    216       4.4604      0.00000
    217       4.8895      0.00000
    218       4.9355      0.00000
    219       5.0543      0.00000
    220       5.0561      0.00000
    221       5.0641      0.00000
    222       5.0811      0.00000
    223       5.0820      0.00000
    224       5.1702      0.00000
    225       5.1889      0.00000
    226       5.3426      0.00000
    227       5.3472      0.00000
    228       5.3874      0.00000
    229       5.5771      0.00000
    230       6.0914      0.00000
    231       6.4425      0.00000
    232       6.4443      0.00000
    233       6.6666      0.00000
    234       6.6840      0.00000
    235       6.7497      0.00000
    236       6.8419      0.00000
    237       6.8445      0.00000
    238       6.9506      0.00000
    239       6.9748      0.00000
    240       7.0000      0.00000
    241       7.0299      0.00000
    242       7.0325      0.00000
    243       7.0662      0.00000
    244       7.2853      0.00000
    245       7.3541      0.00000
    246       7.3585      0.00000
    247       7.3783      0.00000
    248       7.4376      0.00000
    249       7.4438      0.00000
    250       7.4494      0.00000
    251       7.6381      0.00000
    252       7.7190      0.00000

 k-point     2 :       0.1250   -0.0000    0.0000
  band No.  band energies     occupation 
      1      -6.6018      2.00000
      2      -6.1653      2.00000
      3      -5.3504      2.00000
      4      -5.0997      2.00000
      5      -5.0760      2.00000
      6      -5.0373      2.00000
      7      -5.0150      2.00000
      8      -5.0140      2.00000
      9      -5.0058      2.00000
     10      -4.9888      2.00000
     11      -4.9876      2.00000
     12      -4.9721      2.00000
     13      -4.9678      2.00000
     14      -4.9159      2.00000
     15      -4.9023      2.00000
     16      -4.8981      2.00000
     17      -4.8931      2.00000
     18      -4.8765      2.00000
     19      -4.8480      2.00000
     20      -4.8457      2.00000
     21      -4.7380      2.00000
     22      -4.7363      2.00000
     23      -4.6888      2.00000
     24      -4.6785      2.00000
     25      -4.6719      2.00000
     26      -4.6696      2.00000
     27      -4.6231      2.00000
     28      -4.6191      2.00000
     29      -4.5729      2.00000
     30      -4.5696      2.00000
     31      -4.5458      2.00000
     32      -4.5392      2.00000
     33      -4.5295      2.00000
     34      -4.4948      2.00000
     35      -4.4691      2.00000
     36      -4.4652      2.00000
     37      -4.4524      2.00000
     38      -4.4430      2.00000
     39      -4.3496      2.00000
     40      -4.3377      2.00000
     41      -4.3327      2.00000
     42      -4.2881      2.00000
     43      -4.2841      2.00000
     44      -4.2702      2.00000
     45      -4.2435      2.00000
     46      -4.2355      2.00000
     47      -4.2292      2.00000
     48      -4.2226      2.00000
     49      -4.1629      2.00000
     50      -4.1581      2.00000
     51      -4.1229      2.00000
     52      -4.0461      2.00000
     53      -4.0351      2.00000
     54      -4.0154      2.00000
     55      -4.0144      2.00000
     56      -3.8659      2.00000
     57      -3.8582      2.00000
     58      -3.8538      2.00000
     59      -3.8373      2.00000
     60      -3.8268      2.00000
     61      -3.8256      2.00000
     62      -3.8169      2.00000
     63      -3.8095      2.00000
     64      -3.7971      2.00000
     65      -3.7843      2.00000
     66      -3.7489      2.00000
     67      -3.7194      2.00000
     68      -3.6913      2.00000
     69      -3.6882      2.00000
     70      -3.6811      2.00000
     71      -3.6771      2.00000
     72      -3.6446      2.00000
     73      -3.6418      2.00000
     74      -3.6366      2.00000
     75      -3.6301      2.00000
     76      -3.6144      2.00000
     77      -3.6097      2.00000
     78      -3.5921      2.00000
     79      -3.5894      2.00000
     80      -3.5841      2.00000
     81      -3.5592      2.00000
     82      -3.5512      2.00000
     83      -3.5434      2.00000
     84      -3.5392      2.00000
     85      -3.5237      2.00000
     86      -3.5173      2.00000
     87      -3.5113      2.00000
     88      -3.4952      2.00000
     89      -3.4634      2.00000
     90      -3.4562      2.00000
     91      -3.4215      2.00000
     92      -3.4142      2.00000
     93      -3.3710      2.00000
     94      -3.3601      2.00000
     95      -3.3352      2.00000
     96      -3.3016      2.00000
     97      -3.2563      2.00000
     98      -3.2350      2.00000
     99      -3.2346      2.00000
    100      -3.1736      2.00000
    101      -3.1676      2.00000
    102      -3.1494      2.00000
    103      -3.1397      2.00000
    104      -3.1156      2.00000
    105      -3.1132      2.00000
    106      -3.1014      2.00000
    107      -3.0891      2.00000
    108      -3.0724      2.00000
    109      -3.0338      2.00000
    110      -3.0319      2.00000
    111      -3.0057      2.00000
    112      -3.0017      2.00000
    113      -2.9470      2.00000
    114      -2.9459      2.00000
    115      -2.9143      2.00000
    116      -2.9049      2.00000
    117      -2.8911      2.00000
    118      -2.8747      2.00000
    119      -2.8723      2.00000
    120      -2.8601      2.00000
    121      -2.8540      2.00000
    122      -2.8137      2.00000
    123      -2.8098      2.00000
    124      -2.7981      2.00000
    125      -2.7888      2.00000
    126      -2.7881      2.00000
    127      -2.7675      2.00000
    128      -2.7502      2.00000
    129      -2.7404      2.00000
    130      -2.7290      2.00000
    131      -2.7084      2.00000
    132      -2.7018      2.00000
    133      -2.6934      2.00000
    134      -2.6824      2.00000
    135      -2.6585      2.00000
    136      -2.6511      2.00000
    137      -2.6222      2.00000
    138      -2.6127      2.00000
    139      -2.6008      2.00000
    140      -2.5727      2.00000
    141      -2.5569      2.00000
    142      -2.5346      2.00000
    143      -2.5161      2.00000
    144      -2.5077      2.00000
    145      -2.5068      2.00000
    146      -2.4874      2.00000
    147      -2.4669      2.00000
    148      -2.4647      2.00000
    149      -2.4508      2.00000
    150      -2.4498      2.00000
    151      -2.4388      2.00000
    152      -2.4290      2.00000
    153      -2.4130      2.00000
    154      -2.4113      2.00000
    155      -2.4013      2.00000
    156      -2.3933      2.00000
    157      -2.3900      2.00000
    158      -2.3827      2.00000
    159      -2.3693      2.00000
    160      -2.3629      2.00000
[...]
  0.000   0.000   0.000   0.000   0.000   0.000   0.000   0.000   0.000   0.000   0.000   0.000   0.000   0.000   0.000   0.000
  0.000   0.000   0.000   0.000   0.000   0.000   0.000   0.000   0.000   0.000   0.000   0.000   0.000   0.000   0.000   0.000
  0.000   0.000   0.000   0.000   0.000   0.000   0.000   0.000   0.000   0.000   1.000   0.000   0.000   0.000   0.000   0.000
  0.000   0.000   0.000   0.000   0.000   0.000   0.000   0.000   0.000   0.000   0.000   0.000   0.000   0.000   0.000   0.000
  0.000   0.000   0.000   0.000   0.000   0.000   0.000   0.000   0.000   0.000   0.000   0.000   0.000   0.000   0.000   0.000
  0.000   0.000   0.000   0.000   0.000   0.000   0.000   0.000   0.000   0.000   0.000   0.000   0.000   0.000   0.000   0.000
  0.000   0.000   0.000   0.000   0.000   0.000   0.000   0.000   0.000   0.000   0.000   0.000   0.000   0.000   0.000   0.000
  0.000   0.000   0.000   0.000   0.000   0.000   0.000   0.000   0.000   0.000   0.000   0.000   0.000   0.000   0.000   0.000
  0.000   0.000   0.000   0.000   0.000   0.000   0.000   0.000   0.000   0.000   0.000   0.000   0.000   0.000   0.000   0.000
  0.000   0.000   0.000   0.000   0.000   0.000   0.000   0.000   0.000   0.000   0.000   0.000   0.000   0.000   0.000   0.000


------------------------ aborting loop because EDIFF is reached ----------------------------------------





 total charge

# of ion       s       p       d       tot
------------------------------------------
    1        0.419   0.201   9.179   9.799
    2        0.415   0.204   9.177   9.796
    3        0.415   0.204   9.177   9.796
    4        0.418   0.203   9.177   9.798
    5        0.420   0.202   9.174   9.796
    6        0.418   0.203   9.177   9.798
    7        0.415   0.203   9.178   9.796
    8        0.415   0.203   9.178   9.796
    9        0.416   0.201   9.180   9.796
   10        0.409   0.270   9.162   9.840
   11        0.410   0.265   9.169   9.844
   12        0.409   0.270   9.162   9.840
   13        0.410   0.266   9.168   9.844
   14        0.410   0.266   9.168   9.844
   15        0.403   0.268   9.165   9.837
   16        0.411   0.269   9.160   9.840
   17        0.404   0.269   9.164   9.837
   18        0.404   0.269   9.164   9.837
   19        0.401   0.265   9.166   9.833
   20        0.438   0.299   9.139   9.877
   21        0.438   0.299   9.139   9.877
   22        0.392   0.273   9.167   9.832
   23        0.444   0.297   9.138   9.879
   24        0.392   0.273   9.167   9.832
   25        0.402   0.264   9.167   9.834
   26        0.402   0.264   9.167   9.834
   27        0.393   0.272   9.168   9.833
   28        0.411   0.200   9.178   9.789
   29        0.434   0.216   9.159   9.809
   30        0.434   0.216   9.159   9.809
   31        0.430   0.218   9.159   9.807
   32        0.430   0.218   9.159   9.807
   33        0.435   0.215   9.159   9.809
   34        0.435   0.215   9.159   9.809
   35        0.405   0.201   9.180   9.785
   36        0.398   0.367   4.247   5.011
   37        0.529   0.028   0.000   0.557
   38        0.529   0.028   0.000   0.557
--------------------------------------------------
tot         15.991   8.866 325.060 349.917
 
    CHARGE:  cpu time    0.6314: real time    0.6315
    FORLOC:  cpu time    0.0102: real time    0.0102
    FORNL :  cpu time    3.0635: real time    3.0645
    STRESS:  cpu time    9.1887: real time    9.1914
    FORCOR:  cpu time    0.0420: real time    0.0423
    FORHAR:  cpu time    0.0167: real time    0.0168
    OFIELD:  cpu time    0.0002: real time    0.0002

  FORCE on cell =-STRESS in cart. coord.  units (eV):
  Direction    XX          YY          ZZ          XY          YZ          ZX
  --------------------------------------------------------------------------------------
  Alpha Z   748.07356   748.07356   748.07356
  Ewald  119341.05229119323.25876************    -0.00000     0.10792    -0.00001
  Hartree129379.86623129376.51921************    -0.00000     0.76135    -0.00000
  E(xc)   -2061.74764 -2061.76251 -2068.82971    -0.00002     0.07740     0.00000
  Local  ************************259990.89354     0.00033    -0.77963    -0.00004
  n-local  -341.36881  -340.53881  -344.30224     2.46820     0.28428     0.06661
  augment  3227.54982  3227.30635  3241.56332    -0.00013    -0.09737     0.00002
  Kinetic  4854.81969  4857.38935  4891.41433     1.42652    -0.37606     0.13809
  Fock        0.00000     0.00000     0.00000     0.00000     0.00000     0.00000
  -------------------------------------------------------------------------------------
  Total      -9.17412    -9.15473     0.91837    -0.00000    -0.02211    -0.00000
  in kB      -9.90164    -9.88070     0.99120    -0.00000    -0.02386    -0.00000
  external pressure =       -6.26 kB  Pullay stress =        0.00 kB


 VOLUME and BASIS-vectors are now :
 -----------------------------------------------------------------------------
  energy-cutoff  :      500.00
  volume of cell :     1484.46
      direct lattice vectors                 reciprocal lattice vectors
     8.791366577  0.000000000  0.000000000     0.113747958 -0.065672414  0.000000000
     4.395683289  7.613546790  0.000000000     0.000000000  0.131344829  0.000000000
     0.000000000  0.000000000 22.178121567     0.000000000  0.000000000  0.045089481

  length of vectors
     8.791366577  8.791366577 22.178121567     0.131344829  0.131344829  0.045089481


 FORCES acting on ions
    electron-ion (+dipol)            ewald-force                    non-local-force                 convergence-correction
 -----------------------------------------------------------------------------------------------
   0.460E-04 0.529E-01 0.248E+04   -.953E-04 -.329E-02 -.248E+04   0.237E-12 0.360E-01 -.209E+01   -.832E-04 -.834E-01 0.124E+00
   -.346E+00 0.164E+00 0.248E+04   -.340E-01 -.161E+00 -.248E+04   0.198E+00 0.126E+00 -.151E+01   0.168E+00 -.116E+00 0.190E+00
   0.346E+00 0.164E+00 0.248E+04   0.341E-01 -.161E+00 -.248E+04   -.198E+00 0.126E+00 -.151E+01   -.169E+00 -.114E+00 0.190E+00
   0.129E+00 -.257E+00 0.248E+04   -.154E+00 0.517E-01 -.248E+04   0.887E-01 0.445E-01 -.148E+01   -.415E-01 0.149E+00 0.245E+00
   -.781E-05 -.116E+00 0.248E+04   0.980E-04 0.227E-02 -.248E+04   0.312E-12 0.475E-01 -.109E+01   0.618E-02 0.621E-01 0.334E+00
   -.129E+00 -.257E+00 0.248E+04   0.154E+00 0.516E-01 -.248E+04   -.887E-01 0.445E-01 -.148E+01   0.401E-01 0.150E+00 0.246E+00
   -.350E-02 0.113E+00 0.248E+04   -.120E+00 0.110E+00 -.248E+04   0.123E+00 -.188E+00 -.151E+01   -.239E-02 -.348E-01 0.175E+00
   0.353E-02 0.113E+00 0.248E+04   0.120E+00 0.109E+00 -.248E+04   -.123E+00 -.188E+00 -.151E+01   0.399E-02 -.358E-01 0.175E+00
   0.362E-04 0.153E-01 0.248E+04   0.792E-04 0.108E-02 -.248E+04   -.257E-12 -.392E-01 -.190E+01   -.663E-02 0.225E-01 0.139E+00
   0.169E+01 0.102E+01 0.812E+03   -.139E+01 -.816E+00 -.811E+03   -.417E+00 -.227E+00 -.862E+00   0.104E+00 0.241E-01 0.191E+00
   -.282E-04 0.162E+01 0.811E+03   0.405E-04 -.177E+01 -.811E+03   0.111E-11 0.168E+00 -.130E+00   0.617E-02 -.591E-01 0.219E+00
   -.169E+01 0.102E+01 0.812E+03   0.139E+01 -.816E+00 -.811E+03   0.417E+00 -.227E+00 -.862E+00   -.105E+00 0.247E-01 0.190E+00
   0.127E+01 -.788E+00 0.811E+03   -.152E+01 0.901E+00 -.811E+03   0.171E+00 -.132E+00 -.269E+00   0.418E-01 0.405E-01 0.174E+00
   -.127E+01 -.788E+00 0.811E+03   0.152E+01 0.901E+00 -.811E+03   -.171E+00 -.132E+00 -.269E+00   -.315E-01 0.396E-01 0.172E+00
   0.156E-04 -.153E+00 0.811E+03   -.108E-03 -.992E-01 -.811E+03   0.851E-12 0.130E+00 -.763E+00   -.126E-02 0.101E+00 0.188E+00
   -.807E-05 -.198E+01 0.812E+03   0.205E-04 0.159E+01 -.811E+03   0.354E-11 0.540E+00 -.814E+00   -.939E-04 -.144E+00 0.174E+00
   -.107E+00 0.234E-01 0.811E+03   -.105E+00 0.529E-01 -.810E+03   0.118E+00 -.621E-01 -.794E+00   0.760E-01 -.107E-01 0.162E+00
   0.107E+00 0.234E-01 0.811E+03   0.105E+00 0.530E-01 -.810E+03   -.118E+00 -.621E-01 -.794E+00   -.759E-01 -.915E-02 0.163E+00
   0.395E-04 -.438E+01 -.877E+03   -.126E-03 0.408E+01 0.876E+03   0.113E-11 0.173E+00 0.798E+00   0.108E-02 0.130E+00 0.247E+00
   -.160E+02 -.935E+01 -.885E+03   0.173E+02 0.995E+01 0.885E+03   -.149E+01 -.699E+00 -.125E+01   0.122E+00 0.449E-01 0.379E+00
   0.160E+02 -.935E+01 -.885E+03   -.173E+02 0.995E+01 0.885E+03   0.149E+01 -.699E+00 -.125E+01   -.133E+00 0.444E-01 0.378E+00
   -.105E+02 0.597E+01 -.876E+03   0.101E+02 -.569E+01 0.876E+03   0.337E+00 -.229E+00 0.393E+00   0.811E-01 -.534E-01 0.195E+00
   -.519E-04 0.182E+02 -.885E+03   0.383E-04 -.198E+02 0.886E+03   0.120E-10 0.183E+01 -.155E+01   -.551E-02 -.996E-01 0.364E+00
   0.105E+02 0.597E+01 -.876E+03   -.101E+02 -.569E+01 0.876E+03   -.337E+00 -.229E+00 0.393E+00   -.795E-01 -.528E-01 0.195E+00
   0.377E+01 0.232E+01 -.877E+03   -.353E+01 -.218E+01 0.877E+03   -.150E+00 -.650E-01 0.803E+00   -.952E-01 -.690E-01 0.197E+00
   -.377E+01 0.232E+01 -.877E+03   0.353E+01 -.218E+01 0.877E+03   0.150E+00 -.650E-01 0.803E+00   0.954E-01 -.680E-01 0.197E+00
   0.196E-04 -.121E+02 -.876E+03   0.110E-03 0.115E+02 0.876E+03   0.293E-11 0.446E+00 0.356E+00   -.319E-03 0.131E+00 0.155E+00
   0.537E-04 0.493E+00 -.249E+04   -.114E-03 -.575E+00 0.249E+04   0.177E-12 0.269E-01 0.198E+01   0.292E-03 0.270E-01 0.679E-01
   -.124E+02 -.211E+02 -.249E+04   0.133E+02 0.224E+02 0.249E+04   -.110E+01 -.158E+01 0.128E+01   0.237E+00 0.289E+00 0.750E-01
   0.124E+02 -.211E+02 -.249E+04   -.133E+02 0.224E+02 0.249E+04   0.110E+01 -.158E+01 0.128E+01   -.238E+00 0.290E+00 0.751E-01
   -.238E+02 -.494E-01 -.249E+04   0.255E+02 0.504E-01 0.249E+04   -.195E+01 -.536E-01 0.152E+01   0.336E+00 0.641E-01 0.824E-01
   0.238E+02 -.494E-01 -.249E+04   -.255E+02 0.503E-01 0.249E+04   0.195E+01 -.536E-01 0.152E+01   -.336E+00 0.651E-01 0.831E-01
   -.138E+02 0.217E+02 -.249E+04   0.144E+02 -.230E+02 0.249E+04   -.893E+00 0.160E+01 0.129E+01   0.202E+00 -.375E+00 0.817E-01
   0.138E+02 0.217E+02 -.249E+04   -.144E+02 -.230E+02 0.249E+04   0.893E+00 0.160E+01 0.129E+01   -.201E+00 -.375E+00 0.823E-01
   0.260E-04 -.267E+00 -.249E+04   0.104E-03 0.250E+00 0.249E+04   0.371E-12 0.564E-01 0.215E+01   -.630E-02 -.188E-01 0.984E-01
   -.231E-04 -.130E+01 -.127E+04   0.573E-04 0.115E+01 0.127E+04   0.364E-12 0.554E-01 -.865E+00   0.435E-03 0.244E-01 0.114E+00
   0.124E+02 -.141E+00 -.267E+03   -.149E+02 0.105E+00 0.269E+03   0.255E+01 0.371E-01 -.134E+01   0.814E-02 0.360E-02 -.583E-01
   -.124E+02 -.141E+00 -.267E+03   0.149E+02 0.105E+00 0.269E+03   -.255E+01 0.371E-01 -.134E+01   -.808E-02 0.361E-02 -.583E-01
 -----------------------------------------------------------------------------------------------
   0.306E-03 -.635E+00 0.501E+01   -.391E-13 -.824E-13 -.671E-11   0.412E-11 0.627E+00 -.114E+02   -.573E-02 0.102E-01 0.640E+01
 
 
 POSITION                                       TOTAL-FORCE (eV/Angst)
 -----------------------------------------------------------------------------------
      0.00000      0.00000      5.28219         0.000000      0.002157     -0.052964
      2.93046      0.00000      5.28219        -0.013538      0.014064      0.021720
      5.86091      0.00000      5.28219         0.013538      0.014064      0.021720
      1.46523      2.53785      5.28219         0.022817     -0.011006      0.010154
      4.39568      2.53785      5.28219        -0.000000     -0.004411     -0.031119
      7.32614      2.53785      5.28219        -0.022817     -0.011006      0.010154
      2.93046      5.07570      5.28219        -0.003056     -0.001280      0.024165
      5.86091      5.07570      5.28219         0.003056     -0.001280      0.024165
      8.79137      5.07570      5.28219        -0.000000     -0.000371     -0.002661
      1.46523      0.84595      7.67490        -0.007251      0.001036     -0.024676
      4.39568      0.84595      7.67490        -0.000000     -0.043110     -0.057282
      7.32614      0.84595      7.67490         0.007251      0.001036     -0.024676
      2.93046      3.38380      7.67490        -0.037487      0.020885     -0.049796
      5.86091      3.38380      7.67490         0.037487      0.020885     -0.049796
      8.79137      3.38380      7.67490        -0.000000     -0.021719      0.015921
      4.39568      5.92165      7.67490         0.000000      0.007774     -0.027376
      7.32614      5.92165      7.67490        -0.018416      0.004266      0.012792
     10.25659      5.92165      7.67490         0.018416      0.004266      0.012792
      8.79137      1.69286     10.06155        -0.000000     -0.003404      0.037781
      2.93202      1.69280     10.03008        -0.083937     -0.059267     -0.141480
      5.85935      1.69280     10.03008         0.083937     -0.059267     -0.141480
     10.25345      4.23157     10.06207         0.019185     -0.006997      0.007611
      4.39568      4.22795     10.03008         0.000000      0.129610     -0.126773
      7.32929      4.23157     10.06207        -0.019185     -0.006997      0.007611
     11.72099      6.76712     10.06155        -0.001502      0.003032      0.024705
      5.86174      6.76712     10.06155         0.001502      0.003032      0.024705
      8.79137      6.76396     10.06207         0.000000      0.026348      0.010972
      0.00000      0.00000     12.43674        -0.000000     -0.027773     -0.022107
      2.95191      0.04038     12.46589        -0.003183     -0.004350      0.017648
      5.83946      0.04038     12.46589         0.003183     -0.004350      0.017648
      1.51092      2.53624     12.46589         0.038279      0.011869      0.059280
      7.28044      2.53624     12.46589        -0.038279      0.011869      0.059280
      2.95470      5.03693     12.46589        -0.015482      0.015561      0.006990
      5.83667      5.03693     12.46589         0.015482      0.015561      0.006990
      8.79137      5.07570     12.43630         0.000000      0.021112     -0.014867
      4.39568      2.53785     12.24527        -0.000000     -0.071653      0.329013
      3.92410      2.49811     13.97211         0.026403      0.004905      0.001618
      4.86726      2.49811     13.97211        -0.026403      0.004905      0.001618
 -----------------------------------------------------------------------------------
    total drift:                               -0.005420      0.002577      0.044322


--------------------------------------------------------------------------------------------------------



  FREE ENERGIE OF THE ION-ELECTRON SYSTEM (eV)
  ---------------------------------------------------
  free  energy   TOTEN  =      -104.06788744 eV

  energy  without entropy=     -104.06788744  energy(sigma->0) =     -104.06788744
 


--------------------------------------------------------------------------------------------------------


    POTLOK:  cpu time    0.0562: real time    0.0562


--------------------------------------------------------------------------------------------------------


 stress matrix after NEB project (eV)
     -9.17412     -0.00000     -0.00000
     -0.00000     -9.15473     -0.02211
     -0.00000     -0.02211      0.91837
  FORCES: max atom, RMS     0.026903    0.006172
  FORCE total and by dimension    0.038047    0.026403
  Stress total and by dimension   12.992998    9.174124
     LOOP+:  cpu time  134.7538: real time  134.8007
 -----------------------------------------------------------------------------
|                                                                             |
|           W    W    AA    RRRRR   N    N  II  N    N   GGGG   !!!           |
|           W    W   A  A   R    R  NN   N  II  NN   N  G    G  !!!           |
|           W    W  A    A  R    R  N N  N  II  N N  N  G       !!!           |
|           W WW W  AAAAAA  RRRRR   N  N N  II  N  N N  G  GGG   !            |
|           WW  WW  A    A  R   R   N   NN  II  N   NN  G    G                |
|           W    W  A    A  R    R  N    N  II  N    N   GGGG   !!!           |
|                                                                             |
|     Tetrahedron method does not include variations of the Fermi             |
|     occupations, so forces and stress will be inaccurate. We suggest        |
|     using a different smearing scheme ISMEAR = 1 or 2 for metals in         |
|     relaxations.                                                            |
|                                                                             |
 -----------------------------------------------------------------------------

    4ORBIT:  cpu time    0.0000: real time    0.0000



 total charge

# of ion       s       p       d       tot
------------------------------------------
    1        0.419   0.201   9.179   9.799
    2        0.415   0.204   9.177   9.796
    3        0.415   0.204   9.177   9.796
    4        0.418   0.203   9.177   9.798
    5        0.420   0.202   9.174   9.796
    6        0.418   0.203   9.177   9.798
    7        0.415   0.203   9.178   9.796
    8        0.415   0.203   9.178   9.796
    9        0.416   0.201   9.180   9.796
   10        0.409   0.270   9.162   9.840
   11        0.410   0.265   9.169   9.844
   12        0.409   0.270   9.162   9.840
   13        0.410   0.266   9.168   9.844
   14        0.410   0.266   9.168   9.844
   15        0.403   0.268   9.165   9.837
   16        0.411   0.269   9.160   9.840
   17        0.404   0.269   9.164   9.837
   18        0.404   0.269   9.164   9.837
   19        0.401   0.265   9.166   9.833
   20        0.438   0.299   9.139   9.877
   21        0.438   0.299   9.139   9.877
   22        0.392   0.273   9.167   9.832
   23        0.444   0.297   9.138   9.879
   24        0.392   0.273   9.167   9.832
   25        0.402   0.264   9.167   9.834
   26        0.402   0.264   9.167   9.834
   27        0.393   0.272   9.168   9.833
   28        0.411   0.200   9.178   9.789
   29        0.434   0.216   9.159   9.809
   30        0.434   0.216   9.159   9.809
   31        0.430   0.218   9.159   9.807
   32        0.430   0.218   9.159   9.807
   33        0.435   0.215   9.159   9.809
   34        0.435   0.215   9.159   9.809
   35        0.405   0.201   9.180   9.785
   36        0.398   0.367   4.247   5.011
   37        0.529   0.028   0.000   0.557
   38        0.529   0.028   0.000   0.557
--------------------------------------------------
tot         15.991   8.866 325.060 349.917
 
 BZINTS: Fermi energy:    0.820029;  393.000000 electrons
         Band energy:-0.127590E+04;  BLOECHL correction:   -0.019906

 total amount of memory used by VASP MPI-rank0   184457. kBytes
=======================================================================

   base      :      30000. kBytes
   nonlr-proj:      15489. kBytes
   fftplans  :       4330. kBytes
   grid      :      17879. kBytes
   one-center:        590. kBytes
   wavefun   :     116169. kBytes
 
  
  
 General timing and accounting informations for this job:
 ========================================================
  
                  Total CPU time used (sec):      148.416
                            User time (sec):      142.952
                          System time (sec):        5.464
                         Elapsed time (sec):      148.891
  
                   Maximum memory used (kb):      460036.
                   Average memory used (kb):          N/A
  
                          Minor page faults:        90502
                          Major page faults:            0
                 Voluntary context switches:         5436
