PROCAR new format
# of k-points:   10         # of bands:  252         # of ions:   37

 k-point     1 :    0.00000000 0.00000000 0.00000000     weight = 0.01562500

band     1 # energy   -6.32233303 # occ.  2.00000000
 
ion      s      p      d    tot
    1  0.006  0.001  0.000  0.007
    2  0.006  0.001  0.000  0.006
    3  0.006  0.001  0.000  0.006
    4  0.006  0.001  0.000  0.006
    5  0.006  0.001  0.000  0.006
    6  0.006  0.001  0.000  0.006
    7  0.006  0.001  0.000  0.006
    8  0.006  0.001  0.000  0.006
    9  0.006  0.001  0.000  0.006
   10  0.023  0.000  0.000  0.023
   11  0.023  0.000  0.000  0.023
   12  0.023  0.000  0.000  0.023
   13  0.023  0.000  0.000  0.023
   14  0.023  0.000  0.000  0.023
   15  0.023  0.000  0.000  0.023
   16  0.023  0.000  0.000  0.023
   17  0.023  0.000  0.000  0.023
   18  0.023  0.000  0.000  0.023
   19  0.023  0.000  0.000  0.023
   20  0.025  0.000  0.000  0.025
   21  0.025  0.000  0.000  0.025
   22  0.023  0.000  0.000  0.023
   23  0.025  0.000  0.000  0.025
   24  0.023  0.000  0.000  0.023
   25  0.023  0.000  0.000  0.023
   26  0.023  0.000  0.000  0.023
   27  0.023  0.000  0.000  0.023
   28  0.006  0.001  0.000  0.006
   29  0.006  0.001  0.000  0.006
   30  0.006  0.001  0.000  0.006
   31  0.006  0.001  0.000  0.006
   32  0.006  0.001  0.000  0.006
   33  0.006  0.001  0.000  0.006
   34  0.006  0.001  0.000  0.006
   35  0.005  0.001  0.000  0.006
   36  0.009  0.000  0.000  0.010
   37  0.001  0.000  0.000  0.001
tot    0.525  0.012  0.006  0.544
 
band     2 # energy   -5.45686161 # occ.  2.00000000
 
ion      s      p      d    tot
    1  0.008  0.000  0.000  0.009
    2  0.009  0.000  0.000  0.009
    3  0.009  0.000  0.000  0.009
    4  0.009  0.000  0.000  0.009
    5  0.009  0.000  0.000  0.009
    6  0.009  0.000  0.000  0.009
    7  0.009  0.000  0.000  0.009
    8  0.009  0.000  0.000  0.009
    9  0.009  0.000  0.000  0.010
   10  0.011  0.001  0.015  0.027
   11  0.011  0.001  0.013  0.025
   12  0.011  0.001  0.015  0.027
   13  0.011  0.001  0.013  0.025
   14  0.011  0.001  0.013  0.025
   15  0.012  0.001  0.013  0.026
   16  0.011  0.001  0.015  0.027
   17  0.012  0.001  0.013  0.026
   18  0.012  0.001  0.013  0.026
   19  0.010  0.001  0.015  0.026
   20  0.013  0.001  0.015  0.029
   21  0.013  0.001  0.015  0.029
   22  0.010  0.001  0.014  0.025
   23  0.013  0.001  0.015  0.029
   24  0.010  0.001  0.014  0.025
   25  0.010  0.001  0.015  0.026
   26  0.010  0.001  0.015  0.026
   27  0.010  0.001  0.014  0.025
   28  0.007  0.000  0.000  0.007
   29  0.007  0.000  0.000  0.008
   30  0.007  0.000  0.000  0.008
   31  0.007  0.000  0.000  0.008
   32  0.007  0.000  0.000  0.008
   33  0.007  0.000  0.000  0.008
   34  0.007  0.000  0.000  0.008
   35  0.006  0.000  0.000  0.007
   36  0.015  0.000  0.001  0.016
   37  0.003  0.000  0.000  0.003
tot    0.358  0.025  0.260  0.643
 
band     3 # energy   -5.16226752 # occ.  2.00000000
 
ion      s      p      d    tot
    1  0.009  0.000  0.024  0.033
    2  0.012  0.000  0.020  0.032
    3  0.012  0.000  0.020  0.032
    4  0.012  0.000  0.020  0.032
    5  0.012  0.000  0.018  0.030
    6  0.012  0.000  0.020  0.032
    7  0.012  0.000  0.020  0.032
    8  0.012  0.000  0.020  0.032
    9  0.015  0.000  0.019  0.034
   10  0.001  0.000  0.018  0.020
   11  0.001  0.000  0.023  0.024
   12  0.001  0.000  0.018  0.020
   13  0.001  0.000  0.023  0.024
   14  0.001  0.000  0.023  0.024
   15  0.000  0.000  0.025  0.025
   16  0.001  0.000  0.018  0.020
   17  0.000  0.000  0.025  0.025
   18  0.000  0.000  0.025  0.025
   19  0.000  0.000  0.014  0.014
   20  0.000  0.000  0.020  0.020
   21  0.000  0.000  0.020  0.020
   22  0.001  0.000  0.015  0.016
   23  0.000  0.000  0.020  0.020
   24  0.001  0.000  0.015  0.016
   25  0.000  0.000  0.014  0.014
   26  0.000  0.000  0.014  0.014
   27  0.001  0.000  0.015  0.016
   28  0.004  0.000  0.011  0.015
   29  0.005  0.000  0.008  0.014
   30  0.005  0.000  0.008  0.014
   31  0.005  0.000  0.008  0.014
   32  0.005  0.000  0.008  0.014
   33  0.005  0.000  0.008  0.014
   34  0.005  0.000  0.008  0.014
   35  0.004  0.000  0.009  0.013
   36  0.015  0.000  0.000  0.015
   37  0.003  0.000  0.000  0.003
tot    0.180  0.005  0.590  0.775
 
band     4 # energy   -5.06512320 # occ.  2.00000000
 
ion      s      p      d    tot
    1  0.015  0.001  0.000  0.016
    2  0.003  0.000  0.010  0.013
    3  0.003  0.000  0.010  0.013
    4  0.003  0.000  0.010  0.013
    5  0.002  0.000  0.010  0.011
    6  0.003  0.000  0.010  0.013
    7  0.003  0.000  0.010  0.013
    8  0.003  0.000  0.010  0.013
    9  0.000  0.001  0.012  0.013
   10  0.003  0.000  0.049  0.052
   11  0.000  0.001  0.018  0.019
   12  0.003  0.000  0.049  0.052
   13  0.000  0.001  0.018  0.019
   14  0.000  0.001  0.018  0.019
   15  0.012  0.001  0.005  0.018
   16  0.003  0.000  0.049  0.052
   17  0.012  0.001  0.005  0.018
   18  0.012  0.001  0.005  0.018
   19  0.001  0.000  0.034  0.035
   20  0.006  0.000  0.052  0.058
   21  0.006  0.000  0.052  0.058
   22  0.014  0.001  0.001  0.016
   23  0.006  0.000  0.052  0.058
   24  0.014  0.001  0.001  0.016
   25  0.001  0.000  0.034  0.035
   26  0.001  0.000  0.034  0.035
   27  0.014  0.001  0.001  0.016
   28  0.000  0.000  0.005  0.006
   29  0.000  0.000  0.007  0.007
   30  0.000  0.000  0.007  0.007
   31  0.000  0.000  0.007  0.007
   32  0.000  0.000  0.007  0.007
   33  0.000  0.000  0.007  0.007
   34  0.000  0.000  0.007  0.007
   35  0.002  0.001  0.002  0.005
   36  0.018  0.001  0.003  0.022
   37  0.003  0.000  0.000  0.003
tot    0.164  0.015  0.610  0.789
 
band     5 # energy   -5.02790380 # occ.  2.00000000
 
ion      s      p      d    tot
    1  0.001  0.000  0.000  0.001
    2  0.000  0.000  0.005  0.005
    3  0.000  0.000  0.005  0.005
    4  0.000  0.000  0.005  0.006
    5  0.005  0.001  0.004  0.009
    6  0.000  0.000  0.005  0.005
    7  0.000  0.000  0.005  0.005
    8  0.000  0.000  0.005  0.005
    9  0.002  0.000  0.003  0.005
   10  0.008  0.001  0.005  0.014
   11  0.011  0.000  0.037  0.049
   12  0.008  0.001  0.005  0.014
   13  0.011  0.000  0.037  0.049
   14  0.011  0.000  0.037  0.048
   15  0.000  0.000  0.045  0.046
   16  0.008  0.001  0.005  0.014
   17  0.000  0.000  0.045  0.046
   18  0.000  0.000  0.046  0.047
   19  0.014  0.001  0.027  0.042
   20  0.005  0.001  0.015  0.021
   21  0.005  0.001  0.014  0.020
   22  0.002  0.000  0.063  0.066
   23  0.005  0.001  0.014  0.020
   24  0.002  0.000  0.064  0.066
   25  0.013  0.001  0.027  0.041
   26  0.014  0.001  0.027  0.042
   27  0.002  0.000  0.063  0.066
   28  0.004  0.001  0.005  0.010
   29  0.000  0.000  0.004  0.004
   30  0.000  0.000  0.004  0.004
   31  0.000  0.000  0.004  0.004
   32  0.000  0.000  0.004  0.004
   33  0.000  0.000  0.004  0.004
   34  0.000  0.000  0.004  0.004
   35  0.002  0.001  0.007  0.010
   36  0.000  0.000  0.000  0.000
   37  0.000  0.000  0.000  0.000
tot    0.133  0.017  0.650  0.800
 
band     6 # energy   -5.02617908 # occ.  2.00000000
 
ion      s      p      d    tot
    1  0.000  0.000  0.000  0.000
    2  0.001  0.000  0.004  0.004
    3  0.002  0.001  0.005  0.007
    4  0.001  0.000  0.004  0.005
    5  0.000  0.000  0.007  0.007
    6  0.000  0.000  0.003  0.004
    7  0.002  0.001  0.005  0.008
    8  0.000  0.000  0.003  0.003
    9  0.000  0.000  0.008  0.009
   10  0.000  0.000  0.029  0.030
   11  0.006  0.000  0.056  0.061
   12  0.000  0.001  0.027  0.028
   13  0.003  0.000  0.069  0.072
   14  0.017  0.001  0.004  0.022
   15  0.008  0.001  0.030  0.039
   16  0.000  0.001  0.027  0.028
   17  0.004  0.001  0.031  0.036
   18  0.024  0.001  0.025  0.049
   19  0.003  0.000  0.049  0.053
   20  0.003  0.000  0.031  0.034
   21  0.001  0.001  0.018  0.019
   22  0.004  0.001  0.042  0.047
   23  0.001  0.001  0.021  0.023
   24  0.025  0.001  0.017  0.043
   25  0.011  0.001  0.008  0.019
   26  0.002  0.000  0.060  0.062
   27  0.008  0.001  0.037  0.046
   28  0.000  0.000  0.005  0.005
   29  0.001  0.000  0.004  0.006
   30  0.000  0.000  0.002  0.002
   31  0.001  0.000  0.004  0.005
   32  0.001  0.001  0.004  0.006
   33  0.000  0.000  0.002  0.002
   34  0.002  0.001  0.004  0.007
   35  0.000  0.000  0.008  0.009
   36  0.000  0.000  0.000  0.000
   37  0.000  0.000  0.000  0.000
tot    0.131  0.017  0.652  0.800
 
band     7 # energy   -5.02617180 # occ.  2.00000000
 
ion      s      p      d    tot
    1  0.000  0.000  0.000  0.000
    2  0.001  0.001  0.004  0.006
    3  0.000  0.000  0.003  0.003
    4  0.001  0.000  0.004  0.005
    5  0.000  0.000  0.007  0.007
    6  0.001  0.000  0.005  0.007
    7  0.000  0.000  0.003  0.003
    8  0.002  0.001  0.005  0.008
    9  0.000  0.000  0.008  0.009
   10  0.000  0.001  0.026  0.027
   11  0.011  0.001  0.030  0.042
   12  0.000  0.000  0.029  0.029
   13  0.014  0.001  0.017  0.032
   14  0.000  0.000  0.082  0.082
   15  0.016  0.001  0.028  0.044
   16  0.000  0.000  0.028  0.029
   17  0.020  0.001  0.027  0.047
   18  0.000  0.001  0.031  0.033
   19  0.007  0.001  0.029  0.036
   20  0.000  0.001  0.015  0.016
   21  0.002  0.000  0.029  0.032
   22  0.021  0.001  0.022  0.044
   23  0.002  0.001  0.026  0.028
   24  0.000  0.001  0.046  0.047
   25  0.000  0.000  0.070  0.071
   26  0.009  0.001  0.018  0.027
   27  0.017  0.001  0.027  0.044
   28  0.000  0.000  0.005  0.005
   29  0.001  0.000  0.002  0.003
   30  0.002  0.000  0.005  0.007
   31  0.001  0.000  0.003  0.004
   32  0.000  0.000  0.003  0.003
   33  0.002  0.001  0.005  0.007
   34  0.000  0.000  0.002  0.003
   35  0.000  0.000  0.008  0.009
   36  0.000  0.000  0.000  0.000
   37  0.000  0.000  0.000  0.000
tot    0.131  0.017  0.652  0.800
 
band     8 # energy   -5.02080837 # occ.  2.00000000
 
ion      s      p      d    tot
    1  0.000  0.000  0.009  0.009
    2  0.000  0.000  0.003  0.004
    3  0.000  0.000  0.003  0.003
    4  0.001  0.001  0.006  0.008
    5  0.000  0.000  0.003  0.003
    6  0.001  0.001  0.005  0.008
    7  0.000  0.000  0.003  0.004
    8  0.000  0.000  0.003  0.004
    9  0.000  0.000  0.003  0.003
   10  0.021  0.001  0.024  0.046
   11  0.000  0.002  0.010  0.012
   12  0.019  0.001  0.028  0.047
   13  0.006  0.001  0.030  0.037
   14  0.006  0.001  0.032  0.039
   15  0.000  0.000  0.082  0.083
   16  0.000  0.001  0.063  0.063
   17  0.004  0.000  0.033  0.038
   18  0.004  0.000  0.028  0.033
   19  0.000  0.001  0.015  0.016
   20  0.015  0.001  0.020  0.036
   21  0.014  0.001  0.023  0.038
   22  0.001  0.000  0.031  0.032
   23  0.000  0.000  0.062  0.062
   24  0.001  0.000  0.028  0.030
   25  0.008  0.001  0.027  0.036
   26  0.008  0.001  0.026  0.034
   27  0.000  0.000  0.054  0.055
   28  0.000  0.000  0.003  0.003
   29  0.001  0.000  0.004  0.005
   30  0.001  0.000  0.004  0.005
   31  0.000  0.000  0.002  0.002
   32  0.000  0.000  0.001  0.002
   33  0.001  0.000  0.003  0.004
   34  0.001  0.000  0.003  0.004
   35  0.000  0.000  0.001  0.001
   36  0.000  0.000  0.001  0.001
   37  0.000  0.000  0.000  0.000
tot    0.115  0.016  0.678  0.808
 
band     9 # energy   -5.02080682 # occ.  2.00000000
 
ion      s      p      d    tot
    1  0.000  0.000  0.009  0.009
    2  0.001  0.000  0.005  0.006
    3  0.001  0.000  0.005  0.007
    4  0.000  0.000  0.002  0.002
    5  0.000  0.000  0.003  0.003
    6  0.000  0.000  0.002  0.002
    7  0.001  0.001  0.005  0.006
    8  0.001  0.000  0.004  0.006
    9  0.000  0.000  0.003  0.003
   10  0.006  0.001  0.052  0.058
   11  0.008  0.000  0.038  0.047
   12  0.008  0.001  0.049  0.057
   13  0.002  0.001  0.018  0.022
   14  0.002  0.001  0.016  0.019
   15  0.005  0.000  0.014  0.020
   16  0.026  0.001  0.014  0.041
   17  0.002  0.000  0.063  0.065
   18  0.001  0.000  0.068  0.069
   19  0.011  0.000  0.030  0.041
   20  0.004  0.000  0.050  0.055
   21  0.006  0.001  0.046  0.052
   22  0.000  0.000  0.045  0.045
   23  0.020  0.001  0.008  0.029
   24  0.000  0.000  0.047  0.048
   25  0.002  0.001  0.018  0.022
   26  0.003  0.001  0.019  0.023
   27  0.001  0.000  0.021  0.023
   28  0.000  0.000  0.003  0.003
   29  0.000  0.000  0.002  0.002
   30  0.000  0.000  0.002  0.002
   31  0.001  0.000  0.004  0.006
   32  0.001  0.000  0.004  0.006
   33  0.000  0.000  0.003  0.003
   34  0.000  0.000  0.003  0.004
   35  0.000  0.000  0.001  0.001
   36  0.000  0.000  0.001  0.001
   37  0.000  0.000  0.000  0.000
tot    0.115  0.016  0.678  0.808
 
band    10 # energy   -5.00294623 # occ.  2.00000000
 
ion      s      p      d    tot
    1  0.004  0.000  0.001  0.006
    2  0.000  0.000  0.008  0.009
    3  0.000  0.000  0.008  0.009
    4  0.000  0.000  0.008  0.009
    5  0.000  0.000  0.008  0.008
    6  0.000  0.000  0.008  0.009
    7  0.000  0.000  0.008  0.009
    8  0.000  0.000  0.008  0.009
    9  0.000  0.000  0.004  0.004
   10  0.001  0.000  0.020  0.022
   11  0.006  0.000  0.025  0.031
   12  0.001  0.000  0.020  0.022
   13  0.006  0.000  0.025  0.031
   14  0.006  0.000  0.025  0.031
   15  0.001  0.000  0.072  0.073
   16  0.001  0.000  0.020  0.022
   17  0.001  0.000  0.072  0.073
   18  0.001  0.000  0.072  0.073
   19  0.004  0.000  0.024  0.028
   20  0.000  0.001  0.024  0.025
   21  0.000  0.001  0.024  0.025
   22  0.000  0.000  0.057  0.058
   23  0.000  0.001  0.024  0.025
   24  0.000  0.000  0.057  0.058
   25  0.004  0.000  0.024  0.028
   26  0.004  0.000  0.024  0.028
   27  0.000  0.000  0.057  0.058
   28  0.000  0.000  0.007  0.008
   29  0.000  0.000  0.007  0.007
   30  0.000  0.000  0.007  0.007
   31  0.000  0.000  0.007  0.007
   32  0.000  0.000  0.007  0.007
   33  0.000  0.000  0.007  0.007
   34  0.000  0.000  0.007  0.007
   35  0.001  0.000  0.003  0.003
   36  0.006  0.000  0.000  0.007
   37  0.001  0.000  0.000  0.001
tot    0.050  0.008  0.783  0.842
 
band    11 # energy   -4.99748081 # occ.  2.00000000
 
ion      s      p      d    tot
    1  0.001  0.000  0.026  0.027
    2  0.001  0.000  0.010  0.012
    3  0.001  0.000  0.010  0.012
    4  0.001  0.000  0.010  0.012
    5  0.000  0.000  0.000  0.000
    6  0.001  0.000  0.010  0.012
    7  0.001  0.000  0.010  0.012
    8  0.001  0.000  0.010  0.012
    9  0.008  0.001  0.000  0.009
   10  0.005  0.000  0.066  0.071
   11  0.002  0.000  0.039  0.041
   12  0.005  0.000  0.066  0.071
   13  0.002  0.000  0.039  0.042
   14  0.002  0.000  0.039  0.042
   15  0.004  0.001  0.003  0.007
   16  0.005  0.000  0.066  0.071
   17  0.004  0.001  0.003  0.007
   18  0.004  0.001  0.003  0.007
   19  0.000  0.000  0.022  0.022
   20  0.000  0.000  0.027  0.028
   21  0.000  0.000  0.027  0.028
   22  0.002  0.000  0.027  0.029
   23  0.000  0.000  0.027  0.028
   24  0.002  0.000  0.027  0.029
   25  0.000  0.000  0.022  0.022
   26  0.000  0.000  0.022  0.022
   27  0.002  0.000  0.027  0.029
   28  0.010  0.000  0.008  0.018
   29  0.003  0.000  0.012  0.015
   30  0.003  0.000  0.012  0.015
   31  0.003  0.000  0.012  0.015
   32  0.003  0.000  0.012  0.015
   33  0.003  0.000  0.012  0.015
   34  0.003  0.000  0.012  0.015
   35  0.001  0.000  0.017  0.018
   36  0.001  0.000  0.000  0.001
   37  0.000  0.000  0.000  0.000
tot    0.084  0.007  0.738  0.829
 
band    12 # energy   -4.98436649 # occ.  2.00000000
 
ion      s      p      d    tot
    1  0.000  0.000  0.019  0.019
    2  0.003  0.000  0.005  0.009
    3  0.001  0.000  0.009  0.010
    4  0.003  0.000  0.006  0.009
    5  0.000  0.000  0.006  0.006
    6  0.000  0.000  0.008  0.009
    7  0.001  0.000  0.008  0.010
    8  0.001  0.000  0.008  0.009
    9  0.000  0.000  0.008  0.008
   10  0.000  0.000  0.032  0.032
   11  0.001  0.000  0.027  0.028
   12  0.001  0.000  0.035  0.036
   13  0.002  0.000  0.028  0.029
   14  0.000  0.000  0.021  0.022
   15  0.004  0.000  0.024  0.029
   16  0.001  0.000  0.035  0.036
   17  0.005  0.000  0.018  0.023
   18  0.000  0.000  0.063  0.063
   19  0.007  0.000  0.037  0.044
   20  0.000  0.000  0.086  0.086
   21  0.007  0.000  0.023  0.030
   22  0.000  0.000  0.037  0.037
   23  0.006  0.000  0.032  0.038
   24  0.000  0.000  0.014  0.014
   25  0.000  0.000  0.062  0.062
   26  0.008  0.000  0.033  0.041
   27  0.000  0.000  0.033  0.033
   28  0.000  0.000  0.012  0.012
   29  0.000  0.000  0.009  0.009
   30  0.002  0.000  0.005  0.007
   31  0.000  0.000  0.009  0.009
   32  0.002  0.001  0.005  0.008
   33  0.002  0.000  0.005  0.007
   34  0.002  0.001  0.005  0.008
   35  0.000  0.000  0.007  0.007
   36  0.000  0.000  0.000  0.001
   37  0.000  0.000  0.000  0.000
tot    0.061  0.008  0.774  0.842
 
band    13 # energy   -4.98431808 # occ.  2.00000000
 
ion      s      p      d    tot
    1  0.000  0.000  0.019  0.019
    2  0.000  0.000  0.009  0.009
    3  0.002  0.000  0.006  0.009
    4  0.000  0.000  0.009  0.009
    5  0.000  0.000  0.006  0.006
    6  0.003  0.000  0.007  0.010
    7  0.002  0.000  0.006  0.009
    8  0.002  0.000  0.007  0.010
    9  0.000  0.000  0.008  0.008
   10  0.001  0.000  0.036  0.037
   11  0.001  0.000  0.024  0.024
   12  0.000  0.000  0.033  0.033
   13  0.000  0.000  0.023  0.023
   14  0.002  0.000  0.029  0.031
   15  0.002  0.000  0.046  0.048
   16  0.000  0.000  0.033  0.034
   17  0.001  0.000  0.052  0.053
   18  0.006  0.000  0.007  0.014
   19  0.003  0.000  0.051  0.054
   20  0.009  0.000  0.008  0.017
   21  0.002  0.000  0.071  0.073
   22  0.000  0.000  0.019  0.019
   23  0.003  0.000  0.062  0.065
   24  0.000  0.000  0.042  0.042
   25  0.010  0.000  0.026  0.037
   26  0.002  0.000  0.055  0.057
   27  0.000  0.000  0.022  0.022
   28  0.000  0.000  0.012  0.012
   29  0.003  0.000  0.004  0.007
   30  0.001  0.001  0.008  0.009
   31  0.003  0.001  0.004  0.007
   32  0.000  0.000  0.008  0.008
   33  0.001  0.001  0.007  0.009
   34  0.001  0.000  0.007  0.008
   35  0.000  0.000  0.007  0.007
   36  0.000  0.000  0.000  0.001
   37  0.000  0.000  0.000  0.000
tot    0.061  0.008  0.774  0.842
 
band    14 # energy   -4.97088152 # occ.  2.00000000
 
ion      s      p      d    tot
    1  0.000  0.000  0.005  0.006
    2  0.003  0.001  0.006  0.010
    3  0.001  0.000  0.011  0.012
    4  0.003  0.000  0.006  0.010
    5  0.000  0.000  0.016  0.017
    6  0.001  0.000  0.010  0.011
    7  0.001  0.000  0.010  0.011
    8  0.001  0.001  0.009  0.010
    9  0.000  0.000  0.014  0.014
   10  0.008  0.000  0.011  0.019
   11  0.003  0.000  0.055  0.058
   12  0.001  0.000  0.062  0.064
   13  0.002  0.000  0.062  0.064
   14  0.009  0.000  0.023  0.033
   15  0.000  0.000  0.025  0.025
   16  0.002  0.000  0.054  0.056
   17  0.000  0.000  0.019  0.019
   18  0.000  0.000  0.051  0.051
   19  0.001  0.000  0.030  0.031
   20  0.002  0.000  0.039  0.041
   21  0.000  0.000  0.025  0.025
   22  0.001  0.000  0.062  0.064
   23  0.001  0.000  0.027  0.028
   24  0.008  0.000  0.010  0.018
   25  0.002  0.000  0.021  0.023
   26  0.000  0.000  0.032  0.033
   27  0.002  0.000  0.054  0.056
   28  0.000  0.000  0.002  0.002
   29  0.000  0.000  0.006  0.006
   30  0.001  0.000  0.002  0.003
   31  0.000  0.000  0.005  0.006
   32  0.001  0.000  0.004  0.005
   33  0.001  0.000  0.002  0.003
   34  0.001  0.000  0.004  0.006
   35  0.000  0.000  0.006  0.006
   36  0.000  0.000  0.001  0.001
   37  0.000  0.000  0.000  0.000
tot    0.057  0.007  0.780  0.845
 
band    15 # energy   -4.97084347 # occ.  2.00000000
 
ion      s      p      d    tot
    1  0.000  0.000  0.005  0.006
    2  0.000  0.000  0.011  0.012
    3  0.003  0.001  0.006  0.010
    4  0.000  0.000  0.011  0.011
    5  0.000  0.000  0.016  0.017
    6  0.003  0.000  0.008  0.011
    7  0.002  0.001  0.007  0.010
    8  0.002  0.000  0.008  0.011
    9  0.000  0.000  0.014  0.014
   10  0.000  0.000  0.073  0.073
   11  0.006  0.000  0.038  0.045
   12  0.006  0.000  0.022  0.029
   13  0.008  0.000  0.031  0.039
   14  0.000  0.000  0.070  0.071
   15  0.000  0.000  0.039  0.039
   16  0.005  0.000  0.031  0.036
   17  0.000  0.000  0.044  0.044
   18  0.000  0.000  0.012  0.012
   19  0.001  0.000  0.025  0.027
   20  0.000  0.000  0.022  0.022
   21  0.001  0.000  0.036  0.037
   22  0.006  0.000  0.021  0.028
   23  0.001  0.000  0.033  0.035
   24  0.000  0.000  0.074  0.074
   25  0.000  0.000  0.035  0.035
   26  0.002  0.000  0.023  0.025
   27  0.005  0.000  0.030  0.036
   28  0.000  0.000  0.002  0.002
   29  0.001  0.000  0.002  0.003
   30  0.000  0.000  0.006  0.007
   31  0.001  0.000  0.002  0.004
   32  0.000  0.000  0.004  0.004
   33  0.001  0.000  0.006  0.007
   34  0.000  0.000  0.003  0.004
   35  0.000  0.000  0.006  0.006
   36  0.000  0.000  0.001  0.001
   37  0.000  0.000  0.000  0.000
tot    0.057  0.007  0.780  0.845
 
band    16 # energy   -4.94735457 # occ.  2.00000000
 
ion      s      p      d    tot
    1  0.000  0.000  0.002  0.002
    2  0.002  0.000  0.011  0.013
    3  0.002  0.000  0.011  0.013
    4  0.002  0.000  0.011  0.013
    5  0.008  0.000  0.005  0.013
    6  0.002  0.000  0.011  0.013
    7  0.002  0.000  0.011  0.013
    8  0.002  0.000  0.011  0.013
    9  0.001  0.000  0.018  0.019
   10  0.001  0.000  0.008  0.010
   11  0.000  0.000  0.016  0.017
   12  0.001  0.000  0.008  0.010
   13  0.000  0.000  0.016  0.017
   14  0.000  0.000  0.016  0.017
   15  0.001  0.000  0.022  0.023
   16  0.001  0.000  0.008  0.010
   17  0.001  0.000  0.022  0.023
   18  0.001  0.000  0.022  0.023
   19  0.002  0.000  0.027  0.030
   20  0.006  0.001  0.042  0.049
   21  0.006  0.001  0.042  0.049
   22  0.002  0.001  0.015  0.017
   23  0.006  0.001  0.042  0.049
   24  0.002  0.001  0.015  0.017
   25  0.002  0.000  0.027  0.030
   26  0.002  0.000  0.028  0.030
   27  0.002  0.001  0.015  0.017
   28  0.004  0.000  0.009  0.013
   29  0.008  0.000  0.023  0.031
   30  0.008  0.000  0.022  0.031
   31  0.008  0.000  0.023  0.031
   32  0.008  0.000  0.022  0.031
   33  0.008  0.000  0.023  0.031
   34  0.008  0.000  0.022  0.031
   35  0.021  0.001  0.015  0.037
   36  0.007  0.001  0.001  0.009
   37  0.002  0.000  0.000  0.002
tot    0.139  0.010  0.643  0.793
 
band    17 # energy   -4.82643319 # occ.  2.00000000
 
ion      s      p      d    tot
    1  0.001  0.001  0.005  0.007
    2  0.000  0.000  0.011  0.011
    3  0.000  0.000  0.011  0.011
    4  0.000  0.000  0.011  0.011
    5  0.003  0.000  0.004  0.007
    6  0.000  0.000  0.011  0.011
    7  0.000  0.000  0.011  0.011
    8  0.000  0.000  0.011  0.011
    9  0.000  0.000  0.008  0.008
   10  0.000  0.000  0.034  0.035
   11  0.000  0.000  0.026  0.026
   12  0.000  0.000  0.034  0.035
   13  0.000  0.000  0.026  0.026
   14  0.000  0.000  0.026  0.026
   15  0.003  0.001  0.049  0.052
   16  0.000  0.000  0.034  0.035
   17  0.003  0.001  0.049  0.052
   18  0.003  0.001  0.049  0.052
   19  0.001  0.000  0.031  0.032
   20  0.000  0.000  0.024  0.025
   21  0.000  0.000  0.024  0.024
   22  0.001  0.001  0.053  0.055
   23  0.000  0.000  0.024  0.025
   24  0.001  0.001  0.053  0.055
   25  0.001  0.000  0.031  0.032
   26  0.001  0.000  0.031  0.032
   27  0.001  0.001  0.053  0.055
   28  0.005  0.000  0.009  0.014
   29  0.001  0.000  0.010  0.011
   30  0.001  0.000  0.010  0.011
   31  0.001  0.000  0.010  0.011
   32  0.001  0.000  0.010  0.011
   33  0.001  0.000  0.010  0.011
   34  0.001  0.000  0.010  0.011
   35  0.004  0.000  0.002  0.006
   36  0.003  0.001  0.001  0.005
   37  0.000  0.000  0.000  0.000
tot    0.037  0.015  0.805  0.857
 
band    18 # energy   -4.81442338 # occ.  2.00000000
 
ion      s      p      d    tot
    1  0.000  0.001  0.018  0.019
    2  0.001  0.001  0.008  0.010
    3  0.000  0.000  0.011  0.011
    4  0.001  0.001  0.007  0.009
    5  0.000  0.000  0.003  0.003
    6  0.001  0.000  0.005  0.006
    7  0.000  0.000  0.010  0.011
    8  0.001  0.000  0.005  0.006
    9  0.000  0.000  0.008  0.008
   10  0.000  0.000  0.052  0.053
   11  0.001  0.001  0.028  0.030
   12  0.002  0.000  0.051  0.052
   13  0.000  0.001  0.023  0.025
   14  0.000  0.000  0.002  0.003
   15  0.000  0.000  0.035  0.035
   16  0.002  0.000  0.051  0.053
   17  0.000  0.000  0.044  0.045
   18  0.000  0.000  0.084  0.084
   19  0.000  0.000  0.032  0.032
   20  0.000  0.000  0.004  0.005
   21  0.001  0.001  0.018  0.020
   22  0.003  0.000  0.047  0.050
   23  0.001  0.001  0.022  0.023
   24  0.000  0.000  0.046  0.046
   25  0.000  0.000  0.070  0.070
   26  0.000  0.000  0.039  0.039
   27  0.003  0.000  0.047  0.051
   28  0.000  0.000  0.006  0.007
   29  0.000  0.000  0.005  0.006
   30  0.000  0.000  0.008  0.009
   31  0.001  0.000  0.004  0.005
   32  0.001  0.001  0.005  0.006
   33  0.000  0.000  0.008  0.009
   34  0.001  0.001  0.005  0.007
   35  0.000  0.001  0.018  0.018
   36  0.000  0.000  0.000  0.000
   37  0.000  0.000  0.000  0.000
tot    0.021  0.015  0.830  0.866
 
band    19 # energy   -4.81440898 # occ.  2.00000000
 
ion      s      p      d    tot
    1  0.000  0.001  0.018  0.019
    2  0.000  0.000  0.008  0.008
    3  0.001  0.001  0.004  0.006
    4  0.000  0.000  0.009  0.010
    5  0.000  0.000  0.003  0.003
    6  0.001  0.001  0.010  0.011
    7  0.001  0.001  0.005  0.007
    8  0.001  0.001  0.010  0.011
    9  0.000  0.000  0.008  0.008
   10  0.003  0.000  0.051  0.054
   11  0.000  0.000  0.010  0.010
   12  0.001  0.000  0.050  0.051
   13  0.000  0.000  0.015  0.016
   14  0.001  0.001  0.029  0.031
   15  0.000  0.000  0.073  0.074
   16  0.000  0.000  0.051  0.051
   17  0.000  0.000  0.064  0.064
   18  0.001  0.000  0.026  0.027
   19  0.000  0.000  0.061  0.061
   20  0.001  0.001  0.028  0.030
   21  0.000  0.000  0.010  0.011
   22  0.001  0.000  0.048  0.050
   23  0.000  0.000  0.007  0.007
   24  0.004  0.000  0.045  0.049
   25  0.001  0.000  0.025  0.025
   26  0.000  0.000  0.054  0.054
   27  0.001  0.000  0.047  0.048
   28  0.000  0.000  0.006  0.007
   29  0.001  0.001  0.007  0.008
   30  0.001  0.001  0.004  0.006
   31  0.001  0.000  0.007  0.009
   32  0.000  0.000  0.007  0.007
   33  0.001  0.001  0.004  0.006
   34  0.000  0.000  0.006  0.007
   35  0.000  0.001  0.018  0.018
   36  0.000  0.000  0.000  0.000
   37  0.000  0.000  0.000  0.000
tot    0.021  0.015  0.830  0.866
 
band    20 # energy   -4.81343102 # occ.  2.00000000
 
ion      s      p      d    tot
    1  0.000  0.000  0.005  0.005
    2  0.000  0.000  0.009  0.009
    3  0.000  0.000  0.010  0.010
    4  0.000  0.000  0.009  0.009
    5  0.000  0.001  0.014  0.016
    6  0.000  0.000  0.010  0.010
    7  0.000  0.000  0.010  0.010
    8  0.000  0.000  0.010  0.010
    9  0.003  0.001  0.000  0.004
   10  0.002  0.000  0.039  0.040
   11  0.000  0.001  0.055  0.055
   12  0.002  0.000  0.040  0.042
   13  0.000  0.001  0.054  0.055
   14  0.000  0.001  0.060  0.061
   15  0.000  0.000  0.021  0.021
   16  0.002  0.000  0.040  0.042
   17  0.000  0.000  0.021  0.022
   18  0.000  0.000  0.019  0.019
   19  0.001  0.001  0.053  0.054
   20  0.001  0.000  0.047  0.049
   21  0.001  0.000  0.051  0.053
   22  0.000  0.000  0.010  0.010
   23  0.001  0.000  0.051  0.052
   24  0.001  0.000  0.014  0.014
   25  0.001  0.001  0.051  0.053
   26  0.001  0.001  0.053  0.055
   27  0.000  0.000  0.010  0.011
   28  0.005  0.001  0.002  0.008
   29  0.000  0.000  0.009  0.010
   30  0.001  0.000  0.008  0.009
   31  0.000  0.000  0.009  0.010
   32  0.000  0.000  0.009  0.010
   33  0.001  0.000  0.008  0.009
   34  0.000  0.000  0.009  0.010
   35  0.001  0.001  0.002  0.003
   36  0.000  0.000  0.002  0.002
   37  0.000  0.000  0.000  0.000
tot    0.026  0.014  0.825  0.865
 
band    21 # energy   -4.80589622 # occ.  2.00000000
 
ion      s      p      d    tot
    1  0.000  0.000  0.001  0.001
    2  0.001  0.001  0.007  0.009
    3  0.000  0.000  0.011  0.012
    4  0.002  0.001  0.006  0.009
    5  0.000  0.001  0.014  0.014
    6  0.001  0.000  0.005  0.007
    7  0.000  0.000  0.011  0.011
    8  0.001  0.000  0.006  0.007
    9  0.000  0.001  0.014  0.014
   10  0.000  0.001  0.022  0.023
   11  0.000  0.000  0.079  0.079
   12  0.000  0.000  0.036  0.037
   13  0.000  0.000  0.074  0.074
   14  0.001  0.000  0.036  0.037
   15  0.000  0.000  0.021  0.022
   16  0.000  0.000  0.038  0.038
   17  0.001  0.000  0.024  0.025
   18  0.002  0.001  0.051  0.054
   19  0.001  0.000  0.016  0.017
   20  0.003  0.000  0.032  0.035
   21  0.001  0.000  0.060  0.061
   22  0.000  0.000  0.032  0.033
   23  0.001  0.000  0.064  0.065
   24  0.000  0.001  0.019  0.020
   25  0.003  0.001  0.043  0.047
   26  0.001  0.000  0.019  0.021
   27  0.000  0.000  0.034  0.034
   28  0.000  0.000  0.012  0.012
   29  0.001  0.000  0.005  0.006
   30  0.000  0.000  0.007  0.008
   31  0.001  0.000  0.004  0.006
   32  0.002  0.001  0.004  0.007
   33  0.000  0.000  0.007  0.008
   34  0.002  0.001  0.005  0.007
   35  0.000  0.000  0.001  0.001
   36  0.000  0.001  0.001  0.002