PROCAR new format
# of k-points:   10         # of bands:  252         # of ions:   37

 k-point     1 :    0.00000000 0.00000000 0.00000000     weight = 0.01562500

band     1 # energy   -8.21191547 # occ.  2.00000000
 
ion      s      p      d    tot
    1  0.007  0.001  0.000  0.007
    2  0.006  0.001  0.000  0.007
    3  0.006  0.001  0.000  0.007
    4  0.006  0.001  0.000  0.007
    5  0.006  0.001  0.000  0.007
    6  0.006  0.001  0.000  0.007
    7  0.006  0.001  0.000  0.007
    8  0.006  0.001  0.000  0.007
    9  0.006  0.001  0.000  0.007
   10  0.026  0.000  0.000  0.027
   11  0.027  0.000  0.000  0.028
   12  0.026  0.000  0.000  0.027
   13  0.027  0.000  0.000  0.028
   14  0.027  0.000  0.000  0.028
   15  0.026  0.000  0.000  0.027
   16  0.026  0.000  0.000  0.027
   17  0.026  0.000  0.000  0.027
   18  0.026  0.000  0.000  0.027
   19  0.023  0.000  0.000  0.024
   20  0.027  0.000  0.000  0.027
   21  0.027  0.000  0.000  0.027
   22  0.025  0.000  0.000  0.025
   23  0.027  0.000  0.000  0.027
   24  0.025  0.000  0.000  0.025
   25  0.023  0.000  0.000  0.024
   26  0.023  0.000  0.000  0.024
   27  0.025  0.000  0.000  0.025
   28  0.005  0.000  0.000  0.005
   29  0.005  0.000  0.000  0.005
   30  0.005  0.000  0.000  0.005
   31  0.005  0.000  0.000  0.005
   32  0.005  0.000  0.000  0.005
   33  0.005  0.000  0.000  0.005
   34  0.005  0.000  0.000  0.005
   35  0.005  0.000  0.000  0.005
   36  0.005  0.001  0.000  0.006
   37  0.000  0.000  0.000  0.000
tot    0.566  0.012  0.003  0.582
 
band     2 # energy   -7.02442442 # occ.  2.00000000
 
ion      s      p      d    tot
    1  0.017  0.000  0.001  0.019
    2  0.017  0.000  0.001  0.018
    3  0.017  0.000  0.001  0.018
    4  0.017  0.000  0.001  0.018
    5  0.017  0.000  0.001  0.018
    6  0.017  0.000  0.001  0.018
    7  0.017  0.000  0.001  0.018
    8  0.017  0.000  0.001  0.018
    9  0.017  0.000  0.001  0.018
   10  0.011  0.001  0.003  0.015
   11  0.010  0.002  0.003  0.014
   12  0.011  0.001  0.003  0.015
   13  0.010  0.002  0.003  0.014
   14  0.010  0.002  0.003  0.014
   15  0.010  0.001  0.002  0.014
   16  0.011  0.001  0.003  0.015
   17  0.010  0.001  0.002  0.014
   18  0.010  0.001  0.002  0.014
   19  0.013  0.001  0.004  0.018
   20  0.016  0.001  0.004  0.021
   21  0.016  0.001  0.004  0.021
   22  0.014  0.001  0.003  0.019
   23  0.016  0.001  0.004  0.021
   24  0.014  0.001  0.004  0.019
   25  0.013  0.001  0.004  0.018
   26  0.013  0.001  0.004  0.018
   27  0.014  0.001  0.003  0.019
   28  0.013  0.000  0.000  0.014
   29  0.014  0.001  0.001  0.015
   30  0.014  0.001  0.001  0.015
   31  0.014  0.001  0.001  0.015
   32  0.014  0.001  0.001  0.015
   33  0.014  0.001  0.001  0.015
   34  0.014  0.001  0.001  0.015
   35  0.013  0.000  0.000  0.014
   36  0.012  0.000  0.000  0.012
   37  0.001  0.000  0.000  0.001
tot    0.496  0.032  0.071  0.598
 
band     3 # energy   -6.08531824 # occ.  2.00000000
 
ion      s      p      d    tot
    1  0.000  0.001  0.009  0.009
    2  0.004  0.000  0.007  0.011
    3  0.004  0.000  0.007  0.011
    4  0.004  0.000  0.007  0.011
    5  0.000  0.000  0.003  0.003
    6  0.004  0.000  0.007  0.011
    7  0.004  0.000  0.007  0.011
    8  0.004  0.000  0.007  0.011
    9  0.027  0.001  0.001  0.029
   10  0.011  0.000  0.024  0.035
   11  0.014  0.003  0.010  0.027
   12  0.011  0.000  0.024  0.035
   13  0.014  0.003  0.010  0.027
   14  0.014  0.003  0.010  0.027
   15  0.015  0.002  0.015  0.031
   16  0.011  0.000  0.024  0.035
   17  0.015  0.002  0.015  0.031
   18  0.015  0.002  0.015  0.031
   19  0.000  0.001  0.020  0.021
   20  0.022  0.001  0.018  0.041
   21  0.022  0.001  0.018  0.041
   22  0.017  0.002  0.003  0.022
   23  0.022  0.001  0.018  0.041
   24  0.017  0.002  0.003  0.022
   25  0.000  0.001  0.020  0.021
   26  0.000  0.001  0.020  0.021
   27  0.017  0.002  0.003  0.022
   28  0.003  0.000  0.000  0.003
   29  0.001  0.000  0.004  0.006
   30  0.001  0.000  0.004  0.006
   31  0.001  0.000  0.004  0.006
   32  0.001  0.000  0.004  0.006
   33  0.001  0.000  0.004  0.006
   34  0.001  0.000  0.004  0.006
   35  0.009  0.001  0.000  0.010
   36  0.005  0.002  0.002  0.009
   37  0.000  0.000  0.000  0.000
tot    0.307  0.039  0.355  0.701
 
band     4 # energy   -6.06991870 # occ.  2.00000000
 
ion      s      p      d    tot
    1  0.030  0.000  0.013  0.043
    2  0.017  0.000  0.018  0.036
    3  0.017  0.000  0.018  0.036
    4  0.017  0.000  0.018  0.036
    5  0.018  0.000  0.019  0.037
    6  0.017  0.000  0.018  0.036
    7  0.017  0.000  0.018  0.036
    8  0.017  0.000  0.018  0.036
    9  0.008  0.000  0.020  0.028
   10  0.001  0.000  0.030  0.031
   11  0.005  0.001  0.023  0.028
   12  0.001  0.000  0.030  0.031
   13  0.005  0.001  0.023  0.028
   14  0.005  0.001  0.023  0.028
   15  0.023  0.001  0.016  0.040
   16  0.001  0.000  0.030  0.031
   17  0.023  0.001  0.016  0.040
   18  0.023  0.001  0.016  0.040
   19  0.001  0.001  0.006  0.007
   20  0.004  0.000  0.007  0.012
   21  0.004  0.000  0.007  0.012
   22  0.003  0.001  0.004  0.009
   23  0.004  0.000  0.007  0.012
   24  0.003  0.001  0.004  0.009
   25  0.001  0.001  0.006  0.007
   26  0.001  0.001  0.006  0.007
   27  0.003  0.001  0.004  0.009
   28  0.001  0.000  0.000  0.002
   29  0.001  0.000  0.001  0.002
   30  0.001  0.000  0.001  0.002
   31  0.001  0.000  0.001  0.002
   32  0.001  0.000  0.001  0.002
   33  0.001  0.000  0.001  0.002
   34  0.001  0.000  0.001  0.002
   35  0.000  0.000  0.001  0.001
   36  0.004  0.000  0.000  0.005
   37  0.000  0.000  0.000  0.000
tot    0.283  0.016  0.422  0.721
 
band     5 # energy   -6.06577363 # occ.  2.00000000
 
ion      s      p      d    tot
    1  0.000  0.000  0.007  0.007
    2  0.005  0.001  0.004  0.009
    3  0.005  0.001  0.003  0.009
    4  0.005  0.001  0.004  0.010
    5  0.000  0.001  0.008  0.009
    6  0.000  0.000  0.003  0.003
    7  0.006  0.001  0.003  0.010
    8  0.000  0.000  0.003  0.003
    9  0.000  0.000  0.001  0.001
   10  0.000  0.000  0.032  0.033
   11  0.040  0.002  0.016  0.058
   12  0.021  0.002  0.011  0.033
   13  0.046  0.001  0.014  0.061
   14  0.000  0.003  0.031  0.034
   15  0.004  0.001  0.010  0.016
   16  0.018  0.001  0.014  0.033
   17  0.005  0.001  0.012  0.017
   18  0.000  0.004  0.002  0.006
   19  0.003  0.001  0.010  0.014
   20  0.000  0.003  0.030  0.033
   21  0.046  0.001  0.015  0.062
   22  0.021  0.002  0.009  0.032
   23  0.040  0.002  0.017  0.058
   24  0.000  0.000  0.033  0.033
   25  0.000  0.004  0.003  0.007
   26  0.003  0.001  0.011  0.015
   27  0.018  0.001  0.013  0.032
   28  0.000  0.000  0.001  0.001
   29  0.000  0.000  0.002  0.003
   30  0.006  0.001  0.003  0.010
   31  0.000  0.000  0.002  0.003
   32  0.005  0.001  0.004  0.009
   33  0.006  0.001  0.003  0.009
   34  0.004  0.001  0.004  0.008
   35  0.000  0.000  0.005  0.005
   36  0.000  0.002  0.003  0.005
   37  0.000  0.000  0.000  0.000
tot    0.308  0.044  0.342  0.694
 
band     6 # energy   -6.06577104 # occ.  2.00000000
 
ion      s      p      d    tot
    1  0.000  0.000  0.007  0.007
    2  0.002  0.001  0.003  0.006
    3  0.002  0.001  0.003  0.006
    4  0.002  0.000  0.003  0.005
    5  0.000  0.001  0.008  0.009
    6  0.007  0.001  0.003  0.012
    7  0.001  0.000  0.003  0.005
    8  0.007  0.001  0.003  0.012
    9  0.000  0.000  0.001  0.001
   10  0.025  0.002  0.005  0.033
   11  0.018  0.002  0.024  0.044
   12  0.005  0.001  0.027  0.033
   13  0.011  0.002  0.027  0.041
   14  0.057  0.001  0.009  0.068
   15  0.002  0.003  0.006  0.011
   16  0.008  0.001  0.024  0.033
   17  0.001  0.003  0.005  0.009
   18  0.006  0.000  0.014  0.020
   19  0.001  0.003  0.006  0.010
   20  0.058  0.001  0.011  0.070
   21  0.011  0.003  0.026  0.040
   22  0.005  0.000  0.027  0.032
   23  0.018  0.002  0.024  0.044
   24  0.026  0.002  0.004  0.031
   25  0.004  0.000  0.013  0.017
   26  0.001  0.003  0.005  0.009
   27  0.008  0.001  0.024  0.032
   28  0.000  0.000  0.001  0.001
   29  0.007  0.001  0.003  0.012
   30  0.001  0.000  0.003  0.004
   31  0.007  0.001  0.004  0.012
   32  0.002  0.001  0.002  0.005
   33  0.001  0.001  0.003  0.005
   34  0.003  0.001  0.002  0.006
   35  0.000  0.000  0.005  0.005
   36  0.000  0.002  0.003  0.005
   37  0.000  0.000  0.000  0.000
tot    0.308  0.044  0.342  0.694
 
band     7 # energy   -6.03956994 # occ.  2.00000000
 
ion      s      p      d    tot
    1  0.006  0.001  0.001  0.009
    2  0.000  0.001  0.006  0.007
    3  0.000  0.001  0.006  0.007
    4  0.000  0.001  0.006  0.007
    5  0.018  0.002  0.001  0.020
    6  0.000  0.001  0.006  0.007
    7  0.000  0.001  0.006  0.007
    8  0.000  0.001  0.006  0.007
    9  0.000  0.000  0.002  0.002
   10  0.026  0.003  0.002  0.030
   11  0.020  0.001  0.022  0.043
   12  0.026  0.003  0.002  0.030
   13  0.020  0.001  0.022  0.043
   14  0.020  0.001  0.022  0.043
   15  0.000  0.001  0.024  0.025
   16  0.026  0.003  0.002  0.030
   17  0.000  0.001  0.024  0.025
   18  0.000  0.001  0.024  0.025
   19  0.025  0.002  0.006  0.034
   20  0.006  0.002  0.017  0.025
   21  0.006  0.002  0.017  0.025
   22  0.008  0.000  0.026  0.035
   23  0.006  0.002  0.017  0.025
   24  0.008  0.000  0.026  0.035
   25  0.025  0.002  0.006  0.034
   26  0.025  0.002  0.006  0.034
   27  0.008  0.000  0.026  0.035
   28  0.011  0.001  0.001  0.013
   29  0.000  0.000  0.004  0.004
   30  0.000  0.000  0.004  0.004
   31  0.000  0.000  0.004  0.004
   32  0.000  0.000  0.004  0.004
   33  0.000  0.000  0.004  0.004
   34  0.000  0.000  0.004  0.004
   35  0.004  0.001  0.002  0.007
   36  0.000  0.000  0.000  0.001
   37  0.000  0.000  0.000  0.000
tot    0.298  0.040  0.357  0.696
 
band     8 # energy   -6.01365044 # occ.  2.00000000
 
ion      s      p      d    tot
    1  0.000  0.001  0.005  0.006
    2  0.006  0.001  0.004  0.011
    3  0.007  0.001  0.003  0.011
    4  0.006  0.001  0.004  0.011
    5  0.000  0.000  0.003  0.003
    6  0.000  0.000  0.003  0.004
    7  0.007  0.001  0.004  0.012
    8  0.000  0.000  0.003  0.004
    9  0.000  0.001  0.011  0.012
   10  0.037  0.000  0.016  0.053
   11  0.001  0.002  0.015  0.018
   12  0.008  0.004  0.010  0.022
   13  0.001  0.002  0.016  0.018
   14  0.002  0.001  0.010  0.014
   15  0.016  0.001  0.034  0.052
   16  0.010  0.003  0.011  0.024
   17  0.013  0.001  0.037  0.051
   18  0.058  0.002  0.004  0.064
   19  0.013  0.001  0.027  0.041
   20  0.004  0.001  0.010  0.015
   21  0.001  0.001  0.015  0.017
   22  0.006  0.003  0.011  0.021
   23  0.001  0.001  0.015  0.017
   24  0.027  0.000  0.013  0.041
   25  0.046  0.002  0.004  0.052
   26  0.010  0.001  0.029  0.040
   27  0.008  0.003  0.012  0.022
   28  0.000  0.001  0.006  0.007
   29  0.000  0.000  0.002  0.002
   30  0.003  0.001  0.002  0.006
   31  0.000  0.000  0.002  0.002
   32  0.003  0.001  0.003  0.007
   33  0.003  0.001  0.002  0.005
   34  0.003  0.001  0.003  0.006
   35  0.000  0.001  0.003  0.003
   36  0.000  0.000  0.001  0.001
   37  0.000  0.000  0.000  0.000
tot    0.299  0.042  0.353  0.694
 
band     9 # energy   -6.01364157 # occ.  2.00000000
 
ion      s      p      d    tot
    1  0.000  0.001  0.005  0.006
    2  0.003  0.001  0.003  0.007
    3  0.002  0.001  0.004  0.006
    4  0.002  0.001  0.003  0.006
    5  0.000  0.000  0.003  0.003
    6  0.008  0.001  0.004  0.014
    7  0.001  0.001  0.004  0.006
    8  0.008  0.001  0.004  0.014
    9  0.000  0.001  0.011  0.012
   10  0.000  0.004  0.009  0.013
   11  0.002  0.001  0.012  0.015
   12  0.029  0.001  0.014  0.044
   13  0.002  0.001  0.012  0.015
   14  0.000  0.002  0.017  0.019
   15  0.042  0.001  0.016  0.059
   16  0.026  0.001  0.014  0.042
   17  0.045  0.002  0.013  0.060
   18  0.000  0.000  0.046  0.047
   19  0.033  0.002  0.013  0.048
   20  0.000  0.001  0.017  0.018
   21  0.003  0.001  0.012  0.016
   22  0.021  0.001  0.013  0.035
   23  0.003  0.001  0.012  0.016
   24  0.000  0.004  0.011  0.015
   25  0.000  0.001  0.036  0.037
   26  0.036  0.002  0.011  0.049
   27  0.020  0.001  0.013  0.034
   28  0.000  0.001  0.006  0.007
   29  0.004  0.001  0.002  0.007
   30  0.001  0.000  0.002  0.004
   31  0.004  0.001  0.002  0.007
   32  0.001  0.000  0.001  0.003
   33  0.001  0.000  0.003  0.004
   34  0.001  0.000  0.001  0.003
   35  0.000  0.001  0.003  0.003
   36  0.000  0.000  0.001  0.001
   37  0.000  0.000  0.000  0.000
tot    0.299  0.042  0.353  0.694
 
band    10 # energy   -5.93447304 # occ.  2.00000000
 
ion      s      p      d    tot
    1  0.000  0.000  0.000  0.000
    2  0.000  0.000  0.000  0.001
    3  0.000  0.000  0.000  0.000
    4  0.000  0.000  0.000  0.001
    5  0.001  0.000  0.000  0.001
    6  0.000  0.000  0.000  0.001
    7  0.000  0.000  0.000  0.000
    8  0.000  0.000  0.000  0.001
    9  0.000  0.000  0.000  0.000
   10  0.000  0.000  0.003  0.003
   11  0.001  0.000  0.003  0.004
   12  0.000  0.000  0.003  0.003
   13  0.001  0.000  0.003  0.004
   14  0.001  0.000  0.003  0.004
   15  0.000  0.000  0.003  0.004
   16  0.000  0.000  0.003  0.003
   17  0.000  0.000  0.003  0.004
   18  0.000  0.000  0.003  0.004
   19  0.006  0.001  0.020  0.028
   20  0.004  0.001  0.029  0.034
   21  0.004  0.001  0.029  0.034
   22  0.007  0.001  0.026  0.034
   23  0.004  0.001  0.029  0.034
   24  0.007  0.001  0.026  0.034
   25  0.006  0.001  0.020  0.028
   26  0.006  0.001  0.020  0.028
   27  0.007  0.001  0.026  0.034
   28  0.024  0.000  0.021  0.045
   29  0.026  0.000  0.022  0.047
   30  0.026  0.000  0.022  0.047
   31  0.026  0.000  0.022  0.047
   32  0.026  0.000  0.022  0.047
   33  0.026  0.000  0.022  0.047
   34  0.026  0.000  0.022  0.047
   35  0.028  0.000  0.022  0.050
   36  0.014  0.001  0.003  0.018
   37  0.001  0.000  0.000  0.001
tot    0.280  0.011  0.430  0.721
 
band    11 # energy   -5.58661017 # occ.  2.00000000
 
ion      s      p      d    tot
    1  0.015  0.002  0.002  0.019
    2  0.000  0.001  0.008  0.009
    3  0.000  0.001  0.008  0.009
    4  0.000  0.001  0.008  0.009
    5  0.000  0.000  0.002  0.002
    6  0.000  0.001  0.008  0.009
    7  0.000  0.001  0.008  0.009
    8  0.000  0.001  0.008  0.009
    9  0.016  0.001  0.000  0.017
   10  0.010  0.001  0.013  0.024
   11  0.003  0.000  0.043  0.046
   12  0.010  0.001  0.013  0.024
   13  0.003  0.000  0.043  0.046
   14  0.003  0.000  0.043  0.046
   15  0.003  0.001  0.024  0.028
   16  0.010  0.001  0.013  0.024
   17  0.003  0.001  0.024  0.028
   18  0.003  0.001  0.024  0.028
   19  0.005  0.001  0.011  0.017
   20  0.001  0.000  0.051  0.052
   21  0.001  0.000  0.051  0.052
   22  0.010  0.001  0.021  0.033
   23  0.001  0.000  0.051  0.052
   24  0.010  0.001  0.021  0.032
   25  0.005  0.001  0.011  0.017
   26  0.005  0.001  0.011  0.017
   27  0.010  0.001  0.021  0.033
   28  0.011  0.001  0.001  0.013
   29  0.000  0.000  0.006  0.006
   30  0.000  0.000  0.006  0.006
   31  0.000  0.000  0.006  0.006
   32  0.000  0.000  0.006  0.006
   33  0.000  0.000  0.006  0.006
   34  0.000  0.000  0.006  0.006
   35  0.007  0.001  0.002  0.011
   36  0.001  0.000  0.001  0.001
   37  0.000  0.000  0.000  0.000
tot    0.147  0.027  0.581  0.756
 
band    12 # energy   -5.57845986 # occ.  2.00000000
 
ion      s      p      d    tot
    1  0.000  0.001  0.004  0.005
    2  0.001  0.001  0.005  0.006
    3  0.009  0.001  0.005  0.015
    4  0.001  0.001  0.005  0.006
    5  0.000  0.001  0.011  0.012
    6  0.005  0.001  0.004  0.010
    7  0.009  0.001  0.005  0.015
    8  0.005  0.001  0.004  0.010
    9  0.000  0.000  0.008  0.009
   10  0.000  0.001  0.051  0.051
   11  0.016  0.001  0.021  0.038
   12  0.007  0.002  0.019  0.028
   13  0.016  0.001  0.021  0.038
   14  0.000  0.000  0.050  0.050
   15  0.002  0.000  0.020  0.022
   16  0.007  0.002  0.019  0.028
   17  0.002  0.000  0.020  0.022
   18  0.000  0.001  0.011  0.012
   19  0.006  0.000  0.018  0.025
   20  0.000  0.000  0.074  0.074
   21  0.017  0.001  0.023  0.041
   22  0.003  0.001  0.019  0.022
   23  0.017  0.001  0.023  0.041
   24  0.000  0.001  0.032  0.033
   25  0.000  0.001  0.013  0.014
   26  0.006  0.000  0.018  0.025
   27  0.003  0.001  0.019  0.022
   28  0.000  0.000  0.008  0.009
   29  0.002  0.001  0.004  0.007
   30  0.010  0.001  0.004  0.015
   31  0.002  0.001  0.004  0.007
   32  0.003  0.001  0.004  0.008
   33  0.010  0.001  0.004  0.015
   34  0.003  0.001  0.004  0.008
   35  0.000  0.000  0.003  0.004
   36  0.000  0.003  0.002  0.005
   37  0.000  0.000  0.000  0.000
tot    0.160  0.032  0.556  0.748
 
band    13 # energy   -5.57845152 # occ.  2.00000000
 
ion      s      p      d    tot
    1  0.000  0.001  0.004  0.005
    2  0.009  0.001  0.004  0.014
    3  0.001  0.000  0.004  0.005
    4  0.009  0.001  0.004  0.014
    5  0.000  0.001  0.011  0.012
    6  0.005  0.001  0.005  0.011
    7  0.001  0.000  0.004  0.005
    8  0.005  0.001  0.005  0.011
    9  0.000  0.000  0.008  0.009
   10  0.010  0.002  0.008  0.020
   11  0.005  0.000  0.040  0.046
   12  0.002  0.001  0.040  0.043
   13  0.005  0.000  0.040  0.046
   14  0.022  0.001  0.011  0.034
   15  0.001  0.001  0.014  0.015
   16  0.002  0.001  0.040  0.043
   17  0.001  0.001  0.014  0.015
   18  0.002  0.000  0.023  0.025
   19  0.002  0.001  0.015  0.017
   20  0.022  0.002  0.006  0.030
   21  0.006  0.000  0.057  0.063
   22  0.001  0.001  0.028  0.030
   23  0.006  0.000  0.057  0.063
   24  0.003  0.001  0.014  0.019
   25  0.008  0.000  0.020  0.028
   26  0.002  0.001  0.015  0.018
   27  0.001  0.001  0.028  0.030
   28  0.000  0.000  0.008  0.009
   29  0.008  0.001  0.004  0.013
   30  0.000  0.000  0.004  0.005
   31  0.008  0.001  0.004  0.013
   32  0.007  0.001  0.004  0.012
   33  0.000  0.000  0.004  0.005
   34  0.007  0.001  0.004  0.012
   35  0.000  0.000  0.003  0.004
   36  0.000  0.003  0.002  0.005
   37  0.000  0.000  0.000  0.000
tot    0.160  0.032  0.556  0.748
 
band    14 # energy   -5.54966737 # occ.  2.00000000
 
ion      s      p      d    tot
    1  0.006  0.000  0.001  0.007
    2  0.000  0.001  0.008  0.009
    3  0.000  0.001  0.008  0.009
    4  0.000  0.001  0.008  0.009
    5  0.018  0.002  0.000  0.021
    6  0.000  0.001  0.008  0.009
    7  0.000  0.001  0.008  0.009
    8  0.000  0.001  0.008  0.009
    9  0.004  0.001  0.002  0.007
   10  0.000  0.000  0.043  0.044
   11  0.007  0.002  0.010  0.018
   12  0.000  0.000  0.043  0.044
   13  0.007  0.002  0.010  0.018
   14  0.007  0.002  0.010  0.018
   15  0.009  0.001  0.024  0.034
   16  0.000  0.000  0.043  0.044
   17  0.009  0.001  0.024  0.034
   18  0.009  0.001  0.024  0.034
   19  0.009  0.001  0.039  0.048
   20  0.010  0.002  0.011  0.023
   21  0.010  0.002  0.011  0.023
   22  0.001  0.000  0.034  0.035
   23  0.010  0.002  0.011  0.023
   24  0.001  0.000  0.034  0.035
   25  0.009  0.001  0.039  0.048
   26  0.009  0.001  0.039  0.048
   27  0.001  0.000  0.034  0.035
   28  0.001  0.001  0.004  0.006
   29  0.000  0.001  0.005  0.006
   30  0.000  0.001  0.005  0.006
   31  0.000  0.001  0.005  0.006
   32  0.000  0.001  0.005  0.006
   33  0.000  0.001  0.005  0.006
   34  0.000  0.001  0.005  0.006
   35  0.004  0.000  0.000  0.004
   36  0.014  0.002  0.001  0.018
   37  0.001  0.000  0.000  0.001
tot    0.154  0.031  0.575  0.759
 
band    15 # energy   -5.52162283 # occ.  2.00000000
 
ion      s      p      d    tot
    1  0.000  0.001  0.014  0.015
    2  0.000  0.000  0.006  0.006
    3  0.008  0.001  0.005  0.014
    4  0.000  0.000  0.005  0.006
    5  0.000  0.000  0.005  0.005
    6  0.006  0.001  0.005  0.012
    7  0.009  0.001  0.005  0.015
    8  0.007  0.001  0.005  0.013
    9  0.000  0.001  0.007  0.009
   10  0.009  0.000  0.020  0.030
   11  0.000  0.001  0.020  0.021
   12  0.003  0.001  0.026  0.030
   13  0.000  0.001  0.020  0.021
   14  0.001  0.001  0.020  0.022
   15  0.003  0.001  0.053  0.057
   16  0.002  0.001  0.027  0.029
   17  0.004  0.001  0.047  0.052
   18  0.015  0.002  0.006  0.023
   19  0.003  0.001  0.054  0.058
   20  0.000  0.000  0.024  0.024
   21  0.000  0.001  0.021  0.022
   22  0.007  0.001  0.028  0.036
   23  0.000  0.001  0.020  0.022
   24  0.024  0.001  0.017  0.041
   25  0.017  0.001  0.005  0.023
   26  0.005  0.001  0.048  0.054
   27  0.005  0.001  0.030  0.035
   28  0.000  0.001  0.005  0.005
   29  0.001  0.000  0.003  0.004
   30  0.006  0.001  0.002  0.009
   31  0.000  0.000  0.003  0.004
   32  0.002  0.001  0.005  0.008
   33  0.006  0.001  0.003  0.009
   34  0.003  0.001  0.005  0.008
   35  0.000  0.001  0.008  0.009
   36  0.000  0.000  0.001  0.001
   37  0.000  0.000  0.000  0.000
tot    0.147  0.028  0.576  0.752
 
band    16 # energy   -5.52162189 # occ.  2.00000000
 
ion      s      p      d    tot
    1  0.000  0.001  0.014  0.015
    2  0.010  0.001  0.005  0.016
    3  0.002  0.000  0.005  0.008
    4  0.010  0.001  0.005  0.016
    5  0.000  0.000  0.005  0.005
    6  0.004  0.001  0.005  0.010
    7  0.001  0.000  0.005  0.007
    8  0.003  0.001  0.005  0.009
    9  0.000  0.001  0.007  0.009
   10  0.000  0.001  0.029  0.029
   11  0.001  0.001  0.020  0.022
   12  0.007  0.000  0.023  0.030
   13  0.001  0.001  0.020  0.022
   14  0.000  0.001  0.020  0.021
   15  0.012  0.002  0.018  0.032
   16  0.007  0.000  0.022  0.030
   17  0.010  0.002  0.024  0.036
   18  0.000  0.000  0.065  0.065
   19  0.014  0.001  0.017  0.032
   20  0.000  0.002  0.019  0.021
   21  0.000  0.001  0.022  0.023
   22  0.016  0.001  0.022  0.039
   23  0.000  0.000  0.023  0.023
   24  0.000  0.000  0.033  0.034
   25  0.000  0.000  0.067  0.067
   26  0.012  0.001  0.023  0.036
   27  0.019  0.001  0.020  0.039
   28  0.000  0.001  0.005  0.005
   29  0.005  0.001  0.004  0.010
   30  0.000  0.000  0.004  0.005
   31  0.005  0.001  0.004  0.010
   32  0.004  0.001  0.002  0.007
   33  0.000  0.000  0.004  0.005
   34  0.003  0.001  0.002  0.006
   35  0.000  0.001  0.008  0.009
   36  0.000  0.000  0.001  0.001
   37  0.000  0.000  0.000  0.000
tot    0.147  0.028  0.576  0.752
 
band    17 # energy   -5.19698250 # occ.  2.00000000
 
ion      s      p      d    tot
    1  0.000  0.000  0.015  0.016
    2  0.008  0.000  0.012  0.021
    3  0.004  0.001  0.008  0.012
    4  0.008  0.000  0.012  0.021
    5  0.000  0.000  0.026  0.027
    6  0.001  0.000  0.013  0.015
    7  0.003  0.001  0.008  0.012
    8  0.001  0.000  0.013  0.014
    9  0.000  0.001  0.005  0.007
   10  0.000  0.000  0.008  0.009
   11  0.000  0.000  0.048  0.048
   12  0.000  0.000  0.015  0.015
   13  0.000  0.000  0.048  0.048
   14  0.000  0.000  0.051  0.052
   15  0.000  0.000  0.036  0.036
   16  0.000  0.000  0.015  0.016
   17  0.000  0.000  0.035  0.035
   18  0.000  0.000  0.019  0.019
   19  0.000  0.000  0.012  0.012
   20  0.000  0.000  0.038  0.038
   21  0.001  0.000  0.054  0.055
   22  0.000  0.000  0.032  0.033
   23  0.001  0.000  0.055  0.056
   24  0.000  0.000  0.035  0.035
   25  0.000  0.000  0.009  0.009
   26  0.000  0.000  0.012  0.012
   27  0.000  0.000  0.032  0.032
   28  0.000  0.000  0.011  0.012
   29  0.003  0.001  0.006  0.009
   30  0.011  0.001  0.010  0.021
   31  0.003  0.001  0.006  0.009
   32  0.002  0.001  0.012  0.015
   33  0.011  0.001  0.010  0.021
   34  0.003  0.001  0.012  0.016
   35  0.000  0.000  0.018  0.018
   36  0.000  0.003  0.002  0.004
   37  0.000  0.000  0.000  0.000
tot    0.061  0.016  0.754  0.830
 
band    18 # energy   -5.19698080 # occ.  2.00000000
 
ion      s      p      d    tot
    1  0.000  0.000  0.015  0.016
    2  0.000  0.000  0.010  0.011
    3  0.005  0.000  0.014  0.019
    4  0.000  0.001  0.010  0.011
    5  0.000  0.000  0.026  0.027
    6  0.007  0.001  0.009  0.017
    7  0.005  0.000  0.014  0.020
    8  0.007  0.001  0.009  0.017
    9  0.000  0.001  0.005  0.007
   10  0.000  0.000  0.017  0.018
   11  0.000  0.000  0.050  0.051
   12  0.000  0.000  0.011  0.011
   13  0.000  0.000  0.050  0.051
   14  0.000  0.000  0.047  0.047
   15  0.000  0.000  0.024  0.024
   16  0.000  0.000  0.010  0.011
   17  0.000  0.000  0.025  0.025
   18  0.000  0.000  0.041  0.041
   19  0.000  0.000  0.010  0.010
   20  0.001  0.000  0.060  0.061
   21  0.000  0.000  0.044  0.044
   22  0.000  0.000  0.034  0.034
   23  0.000  0.000  0.043  0.043
   24  0.000  0.000  0.031  0.031
   25  0.000  0.000  0.013  0.013
   26  0.000  0.000  0.010  0.010
   27  0.000  0.000  0.034  0.034
   28  0.000  0.000  0.011  0.012
   29  0.008  0.001  0.013  0.021
   30  0.000  0.001  0.009  0.009
   31  0.008  0.001  0.013  0.021
   32  0.008  0.001  0.006  0.016
   33  0.000  0.001  0.009  0.009
   34  0.008  0.001  0.006  0.015
   35  0.000  0.000  0.018  0.018
   36  0.000  0.003  0.002  0.004
   37  0.000  0.000  0.000  0.000
tot    0.061  0.016  0.754  0.830
 
band    19 # energy   -5.17858649 # occ.  2.00000000
 
ion      s      p      d    tot
    1  0.014  0.000  0.004  0.018
    2  0.000  0.001  0.011  0.012
    3  0.000  0.001  0.011  0.012
    4  0.000  0.001  0.011  0.012
    5  0.001  0.000  0.014  0.015
    6  0.000  0.001  0.011  0.012
    7  0.000  0.001  0.011  0.012
    8  0.000  0.001  0.011  0.012
    9  0.007  0.001  0.002  0.010
   10  0.000  0.000  0.026  0.027
   11  0.000  0.000  0.047  0.047
   12  0.000  0.000  0.026  0.027
   13  0.000  0.000  0.047  0.047
   14  0.000  0.000  0.047  0.047
   15  0.000  0.000  0.033  0.034
   16  0.000  0.000  0.026  0.027
   17  0.000  0.000  0.033  0.034
   18  0.000  0.000  0.033  0.034
   19  0.000  0.000  0.023  0.023
   20  0.001  0.000  0.041  0.042
   21  0.001  0.000  0.041  0.042
   22  0.001  0.000  0.030  0.031
   23  0.001  0.000  0.041  0.042
   24  0.001  0.000  0.030  0.031
   25  0.000  0.000  0.023  0.023
   26  0.000  0.000  0.023  0.023
   27  0.001  0.000  0.030  0.031
   28  0.010  0.001  0.000  0.011
   29  0.000  0.001  0.012  0.013
   30  0.000  0.001  0.012  0.013
   31  0.000  0.001  0.012  0.013
   32  0.000  0.001  0.012  0.013
   33  0.000  0.001  0.012  0.013
   34  0.000  0.001  0.012  0.013
   35  0.012  0.001  0.002  0.015
   36  0.000  0.000  0.004  0.004
   37  0.000  0.000  0.000  0.000
tot    0.050  0.014  0.768  0.832
 
band    20 # energy   -5.17271496 # occ.  2.00000000
 
ion      s      p      d    tot
    1  0.000  0.000  0.007  0.008
    2  0.000  0.001  0.020  0.020
    3  0.000  0.001  0.020  0.020
    4  0.000  0.001  0.020  0.020
    5  0.022  0.001  0.000  0.023
    6  0.000  0.001  0.020  0.020
    7  0.000  0.001  0.020  0.020
    8  0.000  0.001  0.020  0.020
    9  0.018  0.000  0.011  0.029
   10  0.000  0.000  0.039  0.039
   11  0.000  0.001  0.028  0.029
   12  0.000  0.000  0.039  0.039
   13  0.000  0.001  0.028  0.029
   14  0.000  0.001  0.028  0.029
   15  0.000  0.000  0.034  0.035
   16  0.000  0.000  0.039  0.039
   17  0.000  0.000  0.034  0.035
   18  0.000  0.000  0.034  0.035
   19  0.001  0.000  0.026  0.027
   20  0.000  0.000  0.030  0.030
   21  0.000  0.000  0.030  0.030
   22  0.001  0.000  0.018  0.019
   23  0.000  0.000  0.030  0.030
   24  0.001  0.000  0.018  0.019
   25  0.001  0.000  0.026  0.027
   26  0.001  0.000  0.026  0.027
   27  0.001  0.000  0.018  0.019
   28  0.008  0.000  0.007  0.015
   29  0.000  0.000  0.013  0.013
   30  0.000  0.000  0.013  0.013
   31  0.000  0.000  0.013  0.013
   32  0.000  0.000  0.013  0.013
   33  0.000  0.000  0.013  0.013
   34  0.000  0.000  0.013  0.013
   35  0.000  0.000  0.003  0.003
   36  0.008  0.000  0.000  0.008
   37  0.000  0.000  0.000  0.000
tot    0.062  0.016  0.749  0.827
 
band    21 # energy   -5.13687981 # occ.  2.00000000
 
ion      s      p      d    tot
    1  0.000  0.002  0.012  0.014
    2  0.013  0.001  0.016  0.029
    3  0.010  0.001  0.011  0.022
    4  0.013  0.001  0.016  0.029
    5  0.000  0.001  0.016  0.017
    6  0.000  0.001  0.017  0.018
    7  0.010  0.001  0.011  0.022
    8  0.000  0.001  0.017  0.018
    9  0.000  0.000  0.036  0.036
   10  0.000  0.001  0.055  0.055
   11  0.000  0.000  0.025  0.025
   12  0.000  0.000  0.061  0.061
   13  0.000  0.000  0.025  0.025
   14  0.000  0.000  0.034  0.035
   15  0.000  0.001  0.033  0.034
   16  0.000  0.000  0.061  0.061
   17  0.000  0.001  0.033  0.034
   18  0.000  0.001  0.028  0.029
   19  0.000  0.000  0.025  0.025
   20  0.000  0.000  0.021  0.021
   21  0.000  0.000  0.017  0.018
   22  0.001  0.000  0.010  0.011
   23  0.000  0.000  0.017  0.018
   24  0.004  0.000  0.022  0.027
   25  0.001  0.000  0.036  0.037
   26  0.000  0.000  0.025  0.025
   27  0.001  0.000  0.010  0.011
   28  0.000  0.000  0.011  0.011
   29  0.000  0.000  0.005  0.006
   30  0.004  0.000  0.003  0.007
   31  0.000  0.000  0.005  0.006
   32  0.002  0.000  0.008  0.010
   33  0.004  0.000  0.003  0.007
   34  0.002  0.000  0.008  0.010
   35  0.000  0.001  0.006  0.006
   36  0.000  0.000  0.002  0.002