 vasp.6.2.0 18Jan21 (build Jun 12 2021 23:27:24) complex                        
  
 executed on             LinuxIFC date 2022.05.28  02:20:53
 running on   28 total cores
 distrk:  each k-point on   28 cores,    1 groups
 distr:  one band on NCORE=   1 cores,   28 groups


--------------------------------------------------------------------------------------------------------


 INCAR:
   ISMEAR = -5
   SIGMA = 0.1
   ISPIN = 1
   EDIFF = 1.d-5
   EDIFFG = -0.01
   NSW = 0
   NELM = 150
   ENCUT = 500
   ISIF = 2
   IBRION = 2
   LREAL = Auto
   ALGO = Fast
   ICHARG = 11
   LORBIT = 10
   LCHARG = .F.
   LWAVE = .F.

 POTCAR:    PAW_PBE Cu 22Jun2005                  
 POTCAR:    PAW_PBE Fe 06Sep2000                  
 POTCAR:    PAW_PBE C 08Apr2002                   
 POTCAR:    PAW_PBE O 08Apr2002                   
 -----------------------------------------------------------------------------
|                                                                             |
|           W    W    AA    RRRRR   N    N  II  N    N   GGGG   !!!           |
|           W    W   A  A   R    R  NN   N  II  NN   N  G    G  !!!           |
|           W    W  A    A  R    R  N N  N  II  N N  N  G       !!!           |
|           W WW W  AAAAAA  RRRRR   N  N N  II  N  N N  G  GGG   !            |
|           WW  WW  A    A  R   R   N   NN  II  N   NN  G    G                |
|           W    W  A    A  R    R  N    N  II  N    N   GGGG   !!!           |
|                                                                             |
|     For optimal performance we recommend to set                             |
|       NCORE = 2 up to number-of-cores-per-socket                            |
|     NCORE specifies how many cores store one orbital (NPAR=cpu/NCORE).      |
|     This setting can greatly improve the performance of VASP for DFT.       |
|     The default, NCORE=1 might be grossly inefficient on modern             |
|     multi-core architectures or massively parallel machines. Do your        |
|     own testing! More info at https://www.vasp.at/wiki/index.php/NCORE      |
|     Unfortunately you need to use the default for GW and RPA                |
|     calculations (for HF NCORE is supported but not extensively tested      |
|     yet).                                                                   |
|                                                                             |
 -----------------------------------------------------------------------------

 POTCAR:    PAW_PBE Cu 22Jun2005                  
   VRHFIN =Cu: d10 p1                                                                               
   LEXCH  = PE                                                                                      
   EATOM  =  1390.9808 eV,  102.2342 Ry                                                             
                                                                                                    
   TITEL  = PAW_PBE Cu 22Jun2005                                                                    
   LULTRA =        F    use ultrasoft PP ?                                                          
   IUNSCR =        1    unscreen: 0-lin 1-nonlin 2-no                                               
   RPACOR =    2.000    partial core radius                                                         
   POMASS =   63.546; ZVAL   =   11.000    mass and valenz                                          
   RCORE  =    2.300    outmost cutoff radius                                                       
   RWIGS  =    2.200; RWIGS  =    1.164    wigner-seitz radius (au A)                               
   ENMAX  =  295.446; ENMIN  =  221.585 eV                                                          
   ICORE  =        3    local potential                                                             
   LCOR   =        T    correct aug charges                                                         
   LPAW   =        T    paw PP                                                                      
   EAUG   =  586.980                                                                                
   DEXC   =    0.000                                                                                
   RMAX   =    2.344    core radius for proj-oper                                                   
   RAUG   =    1.300    factor for augmentation sphere                                              
   RDEP   =    2.302    radius for radial grids                                                     
   RDEPT  =    1.771    core radius for aug-charge                                                  
                                                                                                    
   Atomic configuration                                                                             
    9 entries                                                                                       
     n  l   j            E        occ.                                                              
     1  0  0.50     -8850.2468   2.0000                                                             
     2  0  0.50     -1062.3498   2.0000                                                             
     2  1  1.50      -916.8226   6.0000                                                             
     3  0  0.50      -114.6929   2.0000                                                             
     3  1  1.50       -72.1325   6.0000                                                             
     3  2  2.50        -5.0394  10.0000                                                             
     4  0  0.50        -4.6097   1.0000                                                             
     4  1  0.50        -4.0817   0.0000                                                             
     4  3  2.50        -1.3606   0.0000                                                             
   Description                                                                                      
     l       E           TYP  RCUT    TYP  RCUT                                                     
     2     -5.0393973     23  2.200                                                                 
     2     10.8846608     23  2.200                                                                 
     0     -4.6097109     23  2.200                                                                 
     0      8.2520465     23  2.200                                                                 
     1     -2.7211652     23  2.200                                                                 
     1     21.7055443     23  2.200                                                                 
     3      2.7211652     23  2.300                                                                 
  local pseudopotential read in
  partial core-charges read in
  partial kinetic energy density read in
  atomic valenz-charges read in
  non local Contribution for L=           2  read in
    real space projection operators read in
  non local Contribution for L=           2  read in
    real space projection operators read in
  non local Contribution for L=           0  read in
    real space projection operators read in
  non local Contribution for L=           0  read in
    real space projection operators read in
  non local Contribution for L=           1  read in
    real space projection operators read in
  non local Contribution for L=           1  read in
    real space projection operators read in
    PAW grid and wavefunctions read in
 
   number of l-projection  operators is LMAX  =           6
   number of lm-projection operators is LMMAX =          18
 
 POTCAR:    PAW_PBE Fe 06Sep2000                  
   VRHFIN =Fe:  d7 s1                                                                               
   LEXCH  = PE                                                                                      
   EATOM  =   594.3153 eV,   43.6809 Ry                                                             
                                                                                                    
   TITEL  = PAW_PBE Fe 06Sep2000                                                                    
   LULTRA =        F    use ultrasoft PP ?                                                          
   IUNSCR =        1    unscreen: 0-lin 1-nonlin 2-no                                               
   RPACOR =    2.000    partial core radius                                                         
   POMASS =   55.847; ZVAL   =    8.000    mass and valenz                                          
   RCORE  =    2.300    outmost cutoff radius                                                       
   RWIGS  =    2.460; RWIGS  =    1.302    wigner-seitz radius (au A)                               
   ENMAX  =  267.882; ENMIN  =  200.911 eV                                                          
   RCLOC  =    1.701    cutoff for local pot                                                        
   LCOR   =        T    correct aug charges                                                         
   LPAW   =        T    paw PP                                                                      
   EAUG   =  511.368                                                                                
   DEXC   =    0.000                                                                                
   RMAX   =    2.356    core radius for proj-oper                                                   
   RAUG   =    1.300    factor for augmentation sphere                                              
   RDEP   =    2.442    radius for radial grids                                                     
   RDEPT  =    1.890    core radius for aug-charge                                                  
                                                                                                    
   Atomic configuration                                                                             
    9 entries                                                                                       
     n  l   j            E        occ.                                                              
     1  0  0.50     -6993.8440   2.0000                                                             
     2  0  0.50      -814.6047   2.0000                                                             
     2  1  1.50      -693.3689   6.0000                                                             
     3  0  0.50       -89.4732   2.0000                                                             
     3  1  1.50       -55.6373   6.0000                                                             
     3  2  2.50        -3.8151   7.0000                                                             
     4  0  0.50        -4.2551   1.0000                                                             
     4  1  1.50        -3.4015   0.0000                                                             
     4  3  2.50        -1.3606   0.0000                                                             
   Description                                                                                      
     l       E           TYP  RCUT    TYP  RCUT                                                     
     2     -3.8151135     23  2.300                                                                 
     2     -5.1756961     23  2.300                                                                 
     0     -4.2550963     23  2.300                                                                 
     0      7.2035603     23  2.300                                                                 
     1     -2.7211652     23  2.300                                                                 
     1     18.4316424     23  2.300                                                                 
  local pseudopotential read in
  partial core-charges read in
  partial kinetic energy density read in
  atomic valenz-charges read in
  non local Contribution for L=           2  read in
    real space projection operators read in
  non local Contribution for L=           2  read in
    real space projection operators read in
  non local Contribution for L=           0  read in
    real space projection operators read in
  non local Contribution for L=           0  read in
    real space projection operators read in
  non local Contribution for L=           1  read in
    real space projection operators read in
  non local Contribution for L=           1  read in
    real space projection operators read in
    PAW grid and wavefunctions read in
 
   number of l-projection  operators is LMAX  =           6
   number of lm-projection operators is LMMAX =          18
 
 POTCAR:    PAW_PBE C 08Apr2002                   
   VRHFIN =C: s2p2                                                                                  
   LEXCH  = PE                                                                                      
   EATOM  =   147.1560 eV,   10.8157 Ry                                                             
                                                                                                    
   TITEL  = PAW_PBE C 08Apr2002                                                                     
   LULTRA =        F    use ultrasoft PP ?                                                          
   IUNSCR =        1    unscreen: 0-lin 1-nonlin 2-no                                               
   RPACOR =    1.200    partial core radius                                                         
   POMASS =   12.011; ZVAL   =    4.000    mass and valenz                                          
   RCORE  =    1.500    outmost cutoff radius                                                       
   RWIGS  =    1.630; RWIGS  =    0.863    wigner-seitz radius (au A)                               
   ENMAX  =  400.000; ENMIN  =  300.000 eV                                                          
   ICORE  =        2    local potential                                                             
   LCOR   =        T    correct aug charges                                                         
   LPAW   =        T    paw PP                                                                      
   EAUG   =  644.873                                                                                
   DEXC   =    0.000                                                                                
   RMAX   =    1.529    core radius for proj-oper                                                   
   RAUG   =    1.300    factor for augmentation sphere                                              
   RDEP   =    1.501    radius for radial grids                                                     
   RDEPT  =    1.300    core radius for aug-charge                                                  
                                                                                                    
   Atomic configuration                                                                             
    4 entries                                                                                       
     n  l   j            E        occ.                                                              
     1  0  0.50      -273.3789   2.0000                                                             
     2  0  0.50       -13.7508   2.0000                                                             
     2  1  0.50        -5.2854   2.0000                                                             
     3  2  1.50        -5.4423   0.0000                                                             
   Description                                                                                      
     l       E           TYP  RCUT    TYP  RCUT                                                     
     0    -13.7508458     23  1.200                                                                 
     0     -8.2022199     23  1.200                                                                 
     1     -5.2854383     23  1.500                                                                 
     1     34.0145650     23  1.500                                                                 
     2     -5.4423304      7  1.500                                                                 
  local pseudopotential read in
  partial core-charges read in
  partial kinetic energy density read in
  atomic valenz-charges read in
  non local Contribution for L=           0  read in
    real space projection operators read in
  non local Contribution for L=           0  read in
    real space projection operators read in
  non local Contribution for L=           1  read in
    real space projection operators read in
  non local Contribution for L=           1  read in
    real space projection operators read in
    PAW grid and wavefunctions read in
 
   number of l-projection  operators is LMAX  =           4
   number of lm-projection operators is LMMAX =           8
 
 POTCAR:    PAW_PBE O 08Apr2002                   
   VRHFIN =O: s2p4                                                                                  
   LEXCH  = PE                                                                                      
   EATOM  =   432.3788 eV,   31.7789 Ry                                                             
                                                                                                    
   TITEL  = PAW_PBE O 08Apr2002                                                                     
   LULTRA =        F    use ultrasoft PP ?                                                          
   IUNSCR =        1    unscreen: 0-lin 1-nonlin 2-no                                               
   RPACOR =    1.200    partial core radius                                                         
   POMASS =   16.000; ZVAL   =    6.000    mass and valenz                                          
   RCORE  =    1.520    outmost cutoff radius                                                       
   RWIGS  =    1.550; RWIGS  =    0.820    wigner-seitz radius (au A)                               
   ENMAX  =  400.000; ENMIN  =  300.000 eV                                                          
   ICORE  =        2    local potential                                                             
   LCOR   =        T    correct aug charges                                                         
   LPAW   =        T    paw PP                                                                      
   EAUG   =  605.392                                                                                
   DEXC   =    0.000                                                                                
   RMAX   =    1.553    core radius for proj-oper                                                   
   RAUG   =    1.300    factor for augmentation sphere                                              
   RDEP   =    1.550    radius for radial grids                                                     
   RDEPT  =    1.329    core radius for aug-charge                                                  
                                                                                                    
   Atomic configuration                                                                             
    4 entries                                                                                       
     n  l   j            E        occ.                                                              
     1  0  0.50      -514.6923   2.0000                                                             
     2  0  0.50       -23.9615   2.0000                                                             
     2  1  0.50        -9.0305   4.0000                                                             
     3  2  1.50        -9.5241   0.0000                                                             
   Description                                                                                      
     l       E           TYP  RCUT    TYP  RCUT                                                     
     0    -23.9615318     23  1.200                                                                 
     0     -9.5240782     23  1.200                                                                 
     1     -9.0304911     23  1.520                                                                 
     1      8.1634956     23  1.520                                                                 
     2     -9.5240782      7  1.500                                                                 
  local pseudopotential read in
  partial core-charges read in
  partial kinetic energy density read in
  kinetic energy density of atom read in
  atomic valenz-charges read in
  non local Contribution for L=           0  read in
    real space projection operators read in
  non local Contribution for L=           0  read in
    real space projection operators read in
  non local Contribution for L=           1  read in
    real space projection operators read in
  non local Contribution for L=           1  read in
    real space projection operators read in
    PAW grid and wavefunctions read in
 
   number of l-projection  operators is LMAX  =           4
   number of lm-projection operators is LMMAX =           8
 
 Optimization of the real space projectors (new method)

 maximal supplied QI-value         = 16.25
 optimisation between [QCUT,QGAM] = [ 11.38, 22.75] = [ 36.24,144.96] Ry 
 Optimized for a Real-space Cutoff    1.52 Angstroem

   l    n(q)    QCUT    max X(q) W(low)/X(q) W(high)/X(q)  e(spline) 
   2      9    11.376     4.610    0.21E-03    0.10E-03    0.26E-06
   2      9    11.376     8.522    0.33E-03    0.16E-03    0.37E-06
   0     10    11.376    51.609    0.62E-04    0.20E-04    0.13E-06
   0     10    11.376    27.747    0.54E-04    0.20E-04    0.13E-06
   1     10    11.376    20.408    0.13E-04    0.99E-04    0.19E-06
   1     10    11.376    13.425    0.12E-04    0.87E-04    0.17E-06
 Optimization of the real space projectors (new method)

 maximal supplied QI-value         = 16.25
 optimisation between [QCUT,QGAM] = [ 11.38, 22.75] = [ 36.24,144.96] Ry 
 Optimized for a Real-space Cutoff    1.39 Angstroem

   l    n(q)    QCUT    max X(q) W(low)/X(q) W(high)/X(q)  e(spline) 
   2      8    11.376    80.901    0.45E-03    0.44E-04    0.21E-06
   2      8    11.376    75.754    0.45E-03    0.45E-04    0.22E-06
   0      9    11.376    58.752    0.65E-04    0.95E-04    0.17E-06
   0      9    11.376    30.679    0.59E-04    0.87E-04    0.16E-06
   1      9    11.376    17.977    0.38E-03    0.10E-03    0.14E-06
   1      9    11.376    13.559    0.31E-03    0.90E-04    0.12E-06
 Optimization of the real space projectors (new method)

 maximal supplied QI-value         = 25.13
 optimisation between [QCUT,QGAM] = [ 11.31, 22.87] = [ 35.82,146.48] Ry 
 Optimized for a Real-space Cutoff    1.00 Angstroem

   l    n(q)    QCUT    max X(q) W(low)/X(q) W(high)/X(q)  e(spline) 
   0      7    11.310   115.676    0.43E-03    0.13E-02    0.19E-06
   0      7    11.310    87.132    0.43E-03    0.13E-02    0.18E-06
   1      6    11.310     4.429    0.42E-03    0.74E-03    0.11E-06
   1      6    11.310     2.733    0.34E-03    0.55E-03    0.92E-07
 Optimization of the real space projectors (new method)

 maximal supplied QI-value         = 24.76
 optimisation between [QCUT,QGAM] = [ 11.39, 22.77] = [ 36.31,145.25] Ry 
 Optimized for a Real-space Cutoff    1.00 Angstroem

   l    n(q)    QCUT    max X(q) W(low)/X(q) W(high)/X(q)  e(spline) 
   0      7    11.387    20.381    0.39E-03    0.13E-02    0.15E-06
   0      7    11.387    15.268    0.42E-03    0.14E-02    0.17E-06
   1      6    11.387     5.964    0.41E-03    0.11E-02    0.17E-06
   1      6    11.387     5.382    0.39E-03    0.87E-03    0.15E-06
  PAW_PBE Cu 22Jun2005                  :
 energy of atom  1       EATOM=-1390.9808
 kinetic energy error for atom=    0.0043 (will be added to EATOM!!)
  PAW_PBE Fe 06Sep2000                  :
 energy of atom  2       EATOM= -594.3153
 kinetic energy error for atom=    0.0026 (will be added to EATOM!!)
  PAW_PBE C 08Apr2002                   :
 energy of atom  3       EATOM= -147.1560
 kinetic energy error for atom=    0.0076 (will be added to EATOM!!)
  PAW_PBE O 08Apr2002                   :
 energy of atom  4       EATOM= -432.3788
 kinetic energy error for atom=    0.0224 (will be added to EATOM!!)
 
 
 POSCAR: Cu-Fe-CO2
  positions in direct lattice
  velocities in cartesian coordinates
 exchange correlation table for  LEXCH =        8
   RHO(1)=    0.500       N(1)  =     2000
   RHO(2)=  100.500       N(2)  =     4000

 VTST: version 3.2, (02/03/18)

 CHAIN: initializing optimizer
 
 OPT: Using VASP Conjugate-Gradient optimizer
 CHAIN: Read ICHAIN            0
 
 POSCAR: Cu-Fe-CO2
  positions in direct lattice
  velocities in cartesian coordinates
 


--------------------------------------------------------------------------------------------------------


 ion  position               nearest neighbor table
   1  0.000  0.000  0.229-   7 2.57   3 2.57   4 2.57   2 2.57   6 2.57   8 2.57  12 2.57  10 2.57
                            16 2.57
   2  0.333  0.000  0.229-   8 2.57   9 2.57   5 2.57   1 2.57   3 2.57  11 2.57   4 2.57  10 2.57
                            17 2.57
   3  0.667  0.000  0.229-   1 2.57   7 2.57   6 2.57   9 2.57   2 2.57  12 2.57   5 2.57  18 2.57
                            11 2.57
   4  0.000  0.333  0.229-   5 2.57   6 2.57   1 2.57   7 2.57   2 2.57  13 2.57   9 2.57  10 2.57
                            15 2.57
   5  0.333  0.333  0.229-   4 2.57   2 2.57   7 2.57  13 2.57   8 2.57   6 2.57   3 2.57  11 2.57
                            14 2.57
   6  0.667  0.333  0.229-   4 2.57   9 2.57  15 2.57   3 2.57   1 2.57   8 2.57  14 2.57   5 2.57
                            12 2.57
   7  0.000  0.667  0.229-   1 2.57   3 2.57  16 2.57  18 2.57   4 2.57   5 2.57   8 2.57   9 2.57
                            13 2.57
   8  0.333  0.667  0.229-   9 2.57   2 2.57  17 2.57   6 2.57   1 2.57   7 2.57   5 2.57  14 2.57
                            16 2.57
   9  0.667  0.667  0.229-   8 2.57   6 2.57   2 2.57  17 2.57   3 2.57   7 2.57   4 2.57  15 2.57
                            18 2.57
  10  0.111  0.111  0.318-  20 2.55  26 2.56  19 2.56  11 2.57  12 2.57  13 2.57   1 2.57   2 2.57
                             4 2.57  15 2.57  16 2.57  17 2.57
  11  0.444  0.111  0.318-  20 2.55  21 2.55  27 2.56  10 2.57  13 2.57   2 2.57  17 2.57  14 2.57
                            12 2.57   5 2.57   3 2.57  18 2.57
  12  0.778  0.111  0.318-  21 2.55  19 2.56  25 2.56  15 2.57  10 2.57  14 2.57  18 2.57   3 2.57
                             1 2.57  16 2.57  11 2.57   6 2.57
  13  0.111  0.444  0.318-  23 2.55  20 2.55  22 2.56  16 2.57  18 2.57  10 2.57  11 2.57  14 2.57
                             5 2.57   4 2.57   7 2.57  15 2.57
  14  0.444  0.444  0.318-  21 2.55  23 2.55  24 2.56  15 2.57  17 2.57  12 2.57  16 2.57  13 2.57
                            11 2.57   6 2.57   8 2.57   5 2.57
  15  0.778  0.444  0.318-  19 2.56  24 2.56  22 2.56  14 2.57  17 2.57  12 2.57   6 2.57  18 2.57
                            10 2.57   9 2.57  13 2.57   4 2.57
  16  0.111  0.778  0.318-  23 2.55  25 2.56  26 2.56  18 2.57  13 2.57   7 2.57  14 2.57  17 2.57
                            12 2.57  10 2.57   8 2.57   1 2.57
  17  0.444  0.778  0.318-  26 2.56  27 2.56  24 2.56  14 2.57  15 2.57   8 2.57   9 2.57  11 2.57
                            16 2.57  18 2.57  10 2.57   2 2.57
  18  0.778  0.778  0.318-  25 2.56  22 2.56  27 2.56  16 2.57  13 2.57   7 2.57  15 2.57  12 2.57
                            17 2.57   9 2.57   3 2.57  11 2.57
  19  0.889  0.223  0.407-  28 2.55  15 2.56  12 2.56  10 2.56  22 2.56  24 2.56  32 2.57  31 2.57
                            21 2.57  20 2.57  25 2.57  26 2.57
  20  0.222  0.222  0.407-  36 2.47  11 2.55  13 2.55  10 2.55  29 2.55  31 2.55  23 2.56  21 2.56
                            26 2.57  19 2.57  27 2.57  22 2.57
  21  0.555  0.222  0.407-  36 2.47  14 2.55  11 2.55  12 2.55  32 2.55  30 2.55  20 2.56  23 2.56
                            19 2.57  25 2.57  24 2.57  27 2.57
  22  0.888  0.556  0.407-  35 2.54  31 2.56  33 2.56  18 2.56  15 2.56  24 2.56  27 2.56  13 2.56
                            19 2.56  25 2.56  23 2.57  20 2.57
  23  0.222  0.555  0.407-  36 2.47  13 2.55  14 2.55  16 2.55  33 2.55  34 2.55  20 2.56  21 2.56
                            25 2.57  26 2.57  22 2.57  24 2.57
  24  0.556  0.556  0.407-  35 2.54  32 2.56  34 2.56  15 2.56  17 2.56  22 2.56  27 2.56  14 2.56
                            19 2.56  26 2.56  21 2.57  23 2.57
  25  0.889  0.889  0.407-  28 2.55  18 2.56  16 2.56  12 2.56  22 2.56  27 2.56  33 2.57  30 2.57
                            21 2.57  23 2.57  19 2.57  26 2.57
  26  0.223  0.889  0.407-  28 2.55  17 2.56  10 2.56  16 2.56  27 2.56  24 2.56  29 2.57  34 2.57
                            20 2.57  23 2.57  25 2.57  19 2.57
  27  0.556  0.888  0.407-  35 2.54  29 2.56  30 2.56  17 2.56  18 2.56  24 2.56  22 2.56  11 2.56
                            26 2.56  25 2.56  20 2.57  21 2.57
  28  0.000  0.000  0.495-  25 2.55  19 2.55  26 2.55  33 2.58  30 2.58  31 2.58  29 2.58  32 2.58
                            34 2.58
  29  0.333  0.003  0.496-  31 2.54  30 2.54  36 2.54  20 2.55  27 2.56  26 2.57  28 2.58  35 2.58
                            34 2.61
  30  0.664  0.003  0.496-  32 2.54  29 2.54  36 2.54  21 2.55  27 2.56  25 2.57  28 2.58  35 2.58
                            33 2.61
  31  0.003  0.333  0.496-  29 2.54  33 2.54  36 2.54  20 2.55  22 2.56  19 2.57  28 2.58  35 2.58
                            32 2.61
  32  0.664  0.333  0.496-  30 2.54  34 2.54  36 2.54  21 2.55  24 2.56  19 2.57  28 2.58  35 2.58
                            31 2.61
  33  0.003  0.664  0.496-  34 2.54  31 2.54  36 2.54  23 2.55  22 2.56  25 2.57  28 2.58  35 2.58
                            30 2.61
  34  0.333  0.664  0.496-  33 2.54  32 2.54  36 2.54  23 2.55  24 2.56  26 2.57  28 2.58  35 2.58
                            29 2.61
  35  0.667  0.667  0.495-  24 2.54  27 2.54  22 2.54  34 2.58  32 2.58  29 2.58  30 2.58  33 2.58
                            31 2.58
  36  0.333  0.333  0.491-  37 1.92  23 2.47  20 2.47  21 2.47  31 2.54  29 2.54  33 2.54  34 2.54
                            32 2.54  30 2.54
  37  0.332  0.336  0.573-  38 1.25  39 1.25  36 1.92
  38  0.182  0.333  0.591-  37 1.25
  39  0.486  0.333  0.591-  37 1.25
 
  LATTYP: Found a hexagonal cell.
 ALAT       =     7.6967864036
 C/A-ratio  =     3.0484540560
  
  Lattice vectors:
  
 A1 = (  -3.8483927580,  -6.6656128093,   0.0000000000)
 A2 = (   7.6967864037,   0.0000000000,   0.0000000000)
 A3 = (   0.0000000000,   0.0000000000,  23.4632997305)


Analysis of symmetry for initial positions (statically):
=====================================================================
 Subroutine PRICEL returns:
 Original cell was already a primitive cell.
 

 Routine SETGRP: Setting up the symmetry group for a 
 hexagonal supercell.


 Subroutine GETGRP returns: Found  2 space group operations
 (whereof  2 operations were pure point group operations)
 out of a pool of 24 trial point group operations.


The static configuration has the point symmetry C_1h.


Analysis of symmetry for dynamics (positions and initial velocities):
=====================================================================
 Subroutine PRICEL returns:
 Original cell was already a primitive cell.
 

 Routine SETGRP: Setting up the symmetry group for a 
 hexagonal supercell.


 Subroutine GETGRP returns: Found  2 space group operations
 (whereof  2 operations were pure point group operations)
 out of a pool of 24 trial point group operations.


The dynamic configuration has the point symmetry C_1h.


Analysis of constrained symmetry for selective dynamics:
=====================================================================
 Subroutine PRICEL returns:
 Original cell was already a primitive cell.
 

 Routine SETGRP: Setting up the symmetry group for a 
 hexagonal supercell.


 Subroutine GETGRP returns: Found  2 space group operations
 (whereof  2 operations were pure point group operations)
 out of a pool of 24 trial point group operations.


The constrained configuration has the point symmetry C_1h.


 Subroutine INISYM returns: Found  2 space group operations
 (whereof  2 operations are pure point group operations),
 and found     1 'primitive' translations


----------------------------------------------------------------------------------------

                                     Primitive cell                                     

  volume of cell :    1203.7564

  direct lattice vectors                    reciprocal lattice vectors
     7.696786404  0.000000000  0.000000000     0.129924354 -0.075011849  0.000000000
     3.848392758  6.665612809  0.000000000     0.000000000  0.150023716  0.000000000
     0.000000000  0.000000000 23.463299730     0.000000000  0.000000000  0.042619751

  length of vectors
     7.696786404  7.696786404 23.463299730     0.150023716  0.150023716  0.042619751

  position of ions in fractional coordinates (direct lattice)
     0.000000000  0.000000000  0.228934536
     0.333333343  0.000000000  0.228934536
     0.666666687  0.000000000  0.228934536
     1.000000000  0.333333343  0.228934536
     0.333333313  0.333333343  0.228934536
     0.666666687  0.333333343  0.228934536
     1.000000000  0.666666687  0.228934536
     0.333333373  0.666666687  0.228934536
     0.666666627  0.666666687  0.228934536
     0.111111119  0.111111112  0.318214403
     0.444444418  0.111111112  0.318214403
     0.777777791  0.111111112  0.318214403
     0.111111119  0.444444448  0.318214403
     0.444444478  0.444444448  0.318214403
     0.777777731  0.444444448  0.318214403
     0.111111112  0.777777731  0.318214403
     0.444444478  0.777777731  0.318214403
     0.777777851  0.777777731  0.318214403
     0.888692878  0.222614261  0.407199846
     0.222388617  0.222388602  0.406672281
     0.555222827  0.222388602  0.406672281
     0.888387484  0.555806228  0.407211057
     0.222388587  0.555222767  0.406672281
     0.555806288  0.555806228  0.407211057
     0.888692878  0.888692878  0.407199846
     0.222614276  0.888692878  0.407199846
     0.555806228  0.888387484  0.407211057
     0.000000000  0.000000000  0.495471267
     0.333086648  0.003312615  0.495909983
     0.663600767  0.003312615  0.495909983
     0.003312615  0.333086648  0.495909983
     0.663600767  0.333086648  0.495909983
     0.003312615  0.663600767  0.495909983
     0.333086678  0.663600767  0.495909983
     0.666666627  0.666666687  0.495491578
     0.333333313  0.333333343  0.490776560
     0.332065218  0.335869533  0.572659542
     0.181703671  0.332666572  0.591156547
     0.485629727  0.332666572  0.591156547

  ion indices of the primitive-cell ions
   primitive index   ion index
                 1           1
                 2           2
                 3           3
                 4           4
                 5           5
                 6           6
                 7           7
                 8           8
                 9           9
                10          10
                11          11
                12          12
                13          13
                14          14
                15          15
                16          16
                17          17
                18          18
                19          19
                20          20
                21          21
                22          22
                23          23
                24          24
                25          25
                26          26
                27          27
                28          28
                29          29
                30          30
                31          31
                32          32
                33          33
                34          34
                35          35
                36          36
                37          37
                38          38
                39          39

----------------------------------------------------------------------------------------

 
 
 KPOINTS: Automatic mesh                          

Automatic generation of k-mesh.
 Grid dimensions read from file:
 generate k-points for:    8    8    1

 Generating k-lattice:

  Cartesian coordinates                     Fractional coordinates (reciprocal lattice)
     0.016240544 -0.009376481  0.000000000     0.125000000 -0.000000000  0.000000000
     0.000000000  0.018752964  0.000000000     0.000000000  0.125000000  0.000000000
     0.000000000  0.000000000  0.042619751     0.000000000  0.000000000  1.000000000

  Length of vectors
     0.018752964  0.018752964  0.042619751

  Shift w.r.t. Gamma in fractional coordinates (k-lattice)
     0.000000000  0.000000000  0.000000000

 TETIRR: Found    100 inequivalent tetrahedra from      384
 
 Subroutine IBZKPT returns following result:
 ===========================================
 
 Found     21 irreducible k-points:
 
 Following reciprocal coordinates:
            Coordinates               Weight
  0.000000  0.000000  0.000000      1.000000
  0.125000 -0.000000  0.000000      4.000000
  0.000000  0.125000  0.000000      2.000000
  0.250000 -0.000000  0.000000      4.000000
  0.000000  0.250000  0.000000      2.000000
  0.375000 -0.000000  0.000000      4.000000
  0.000000  0.375000  0.000000      2.000000
  0.500000 -0.000000  0.000000      2.000000
  0.000000  0.500000  0.000000      1.000000
  0.250000  0.125000  0.000000      2.000000
  0.125000  0.250000  0.000000      4.000000
  0.375000  0.125000  0.000000      4.000000
  0.250000  0.375000  0.000000      4.000000
 -0.125000  0.250000  0.000000      4.000000
  0.500000  0.125000  0.000000      4.000000
  0.375000  0.500000  0.000000      4.000000
 -0.125000  0.375000  0.000000      4.000000
  0.500000  0.250000  0.000000      2.000000
  0.250000  0.500000  0.000000      4.000000
 -0.375000  0.250000  0.000000      4.000000
 -0.250000  0.375000  0.000000      2.000000
 
 Following cartesian coordinates:
            Coordinates               Weight
  0.000000  0.000000  0.000000      1.000000
  0.016241 -0.009376  0.000000      4.000000
  0.000000  0.018753  0.000000      2.000000
  0.032481 -0.018753  0.000000      4.000000
  0.000000  0.037506  0.000000      2.000000
  0.048722 -0.028129  0.000000      4.000000
  0.000000  0.056259  0.000000      2.000000
  0.064962 -0.037506  0.000000      2.000000
  0.000000  0.075012  0.000000      1.000000
  0.032481  0.000000  0.000000      2.000000
  0.016241  0.028129  0.000000      4.000000
  0.048722 -0.009376  0.000000      4.000000
  0.032481  0.037506  0.000000      4.000000
 -0.016241  0.046882  0.000000      4.000000
  0.064962 -0.018753  0.000000      4.000000
  0.048722  0.046882  0.000000      4.000000
 -0.016241  0.065635  0.000000      4.000000
  0.064962  0.000000  0.000000      2.000000
  0.032481  0.056259  0.000000      4.000000
 -0.048722  0.065635  0.000000      4.000000
 -0.032481  0.075012  0.000000      2.000000
 


--------------------------------------------------------------------------------------------------------




 Dimension of arrays:
   k-points           NKPTS =     21   k-points in BZ     NKDIM =     21   number of bands    NBANDS=    252
   number of dos      NEDOS =    301   number of ions     NIONS =     39
   non local maximal  LDIM  =      6   non local SUM 2l+1 LMDIM =     18
   total plane-waves  NPLWV = 225792
   max r-space proj   IRMAX =   2801   max aug-charges    IRDMAX=   6880
   dimension x,y,z NGX =    42 NGY =   42 NGZ =  128
   dimension x,y,z NGXF=    84 NGYF=   84 NGZF=  256
   support grid    NGXF=    84 NGYF=   84 NGZF=  256
   ions per type =              35   1   1   2
   NGX,Y,Z   is equivalent  to a cutoff of   9.07,  9.07,  9.07 a.u.
   NGXF,Y,Z  is equivalent  to a cutoff of  18.14, 18.14, 18.14 a.u.

 SYSTEM =  unknown system                          
 POSCAR =  Cu-Fe-CO2                               

 Startparameter for this run:
   NWRITE =      2    write-flag & timer
   PREC   = normal    normal or accurate (medium, high low for compatibility)
   ISTART =      0    job   : 0-new  1-cont  2-samecut
   ICHARG =     11    charge: 1-file 2-atom 10-const
   ISPIN  =      1    spin polarized calculation?
   LNONCOLLINEAR =      F non collinear calculations
   LSORBIT =      F    spin-orbit coupling
   INIWAV =      1    electr: 0-lowe 1-rand  2-diag
   LASPH  =      F    aspherical Exc in radial PAW
   METAGGA=      F    non-selfconsistent MetaGGA calc.

 Electronic Relaxation 1
   ENCUT  =  500.0 eV  36.75 Ry    6.06 a.u.  14.03 14.03 42.78*2*pi/ulx,y,z
   ENINI  =  500.0     initial cutoff
   ENAUG  =  644.9 eV  augmentation charge cutoff
   NELM   =    150;   NELMIN=  2; NELMDL= -5     # of ELM steps 
   EDIFF  = 0.1E-04   stopping-criterion for ELM
   LREAL  =      T    real-space projection
   NLSPLINE    = F    spline interpolate recip. space projectors
   LCOMPAT=      F    compatible to vasp.4.4
   GGA_COMPAT  = T    GGA compatible to vasp.4.4-vasp.4.6
   LMAXPAW     = -100 max onsite density
   LMAXMIX     =    2 max onsite mixed and CHGCAR
   VOSKOWN=      0    Vosko Wilk Nusair interpolation
   ROPT   =   -0.00050  -0.00050  -0.00050  -0.00050
 Ionic relaxation
   EDIFFG = -.1E-01   stopping-criterion for IOM
   NSW    =      0    number of steps for IOM
   NBLOCK =      1;   KBLOCK =      1    inner block; outer block 
   IBRION =     -1    ionic relax: 0-MD 1-quasi-New 2-CG
   NFREE  =      1    steps in history (QN), initial steepest desc. (CG)
   ISIF   =      2    stress and relaxation
   IWAVPR =     10    prediction:  0-non 1-charg 2-wave 3-comb
   ISYM   =      2    0-nonsym 1-usesym 2-fastsym
   LCORR  =      T    Harris-Foulkes like correction to forces

   POTIM  = 0.5000    time-step for ionic-motion
   TEIN   =    0.0    initial temperature
   TEBEG  =    0.0;   TEEND  =   0.0 temperature during run
   SMASS  =  -3.00    Nose mass-parameter (am)
   estimated Nose-frequenzy (Omega)   =  0.10E-29 period in steps = 0.13E+47 mass=  -0.135E-26a.u.
   SCALEE = 1.0000    scale energy and forces
   NPACO  =    256;   APACO  = 16.0  distance and # of slots for P.C.
   PSTRESS=    0.0 pullay stress

  Mass of Ions in am
   POMASS =  63.55 55.85 12.01 16.00
  Ionic Valenz
   ZVAL   =  11.00  8.00  4.00  6.00
  Atomic Wigner-Seitz radii
   RWIGS  =  -1.00 -1.00 -1.00 -1.00
  virtual crystal weights 
   VCA    =   1.00  1.00  1.00  1.00
   NELECT =     409.0000    total number of electrons
   NUPDOWN=      -1.0000    fix difference up-down

 DOS related values:
   EMIN   =  10.00;   EMAX   =-10.00  energy-range for DOS
   EFERMI =   0.00
   ISMEAR =    -5;   SIGMA  =   0.10  broadening in eV -4-tet -1-fermi 0-gaus

 Electronic relaxation 2 (details)
   IALGO  =     68    algorithm
   LDIAG  =      T    sub-space diagonalisation (order eigenvalues)
   LSUBROT=      F    optimize rotation matrix (better conditioning)
   TURBO    =      0    0=normal 1=particle mesh
   IRESTART =      0    0=no restart 2=restart with 2 vectors
   NREBOOT  =      0    no. of reboots
   NMIN     =      0    reboot dimension
   EREF     =   0.00    reference energy to select bands
   IMIX   =      4    mixing-type and parameters
     AMIX     =   0.40;   BMIX     =  1.00
     AMIX_MAG =   1.60;   BMIX_MAG =  1.00
     AMIN     =   0.10
     WC   =   100.;   INIMIX=   1;  MIXPRE=   1;  MAXMIX= -45

 Intra band minimization:
   WEIMIN = 0.0000     energy-eigenvalue tresh-hold
   EBREAK =  0.99E-08  absolut break condition
   DEPER  =   0.30     relativ break condition  

   TIME   =   0.40     timestep for ELM

  volume/ion in A,a.u.               =      30.87       208.29
  Fermi-wavevector in a.u.,A,eV,Ry     =   1.142360  2.158748 17.755424  1.304987
  Thomas-Fermi vector in A             =   2.279058
 
 Write flags
   LWAVE        =      F    write WAVECAR
   LDOWNSAMPLE  =      F    k-point downsampling of WAVECAR
   LCHARG       =      F    write CHGCAR
   LVTOT        =      F    write LOCPOT, total local potential
   LVHAR        =      F    write LOCPOT, Hartree potential only
   LELF         =      F    write electronic localiz. function (ELF)
   LORBIT       =     10    0 simple, 1 ext, 2 COOP (PROOUT), +10 PAW based schemes


 Dipole corrections
   LMONO  =      F    monopole corrections only (constant potential shift)
   LDIPOL =      F    correct potential (dipole corrections)
   IDIPOL =      0    1-x, 2-y, 3-z, 4-all directions 
   EPSILON=  1.0000000 bulk dielectric constant

 Exchange correlation treatment:
   GGA     =    --    GGA type
   LEXCH   =     8    internal setting for exchange type
   VOSKOWN=      0    Vosko Wilk Nusair interpolation
   LHFCALC =     F    Hartree Fock is set to
   LHFONE  =     F    Hartree Fock one center treatment
   AEXX    =    0.0000 exact exchange contribution

 Linear response parameters
   LEPSILON=     F    determine dielectric tensor
   LRPA    =     F    only Hartree local field effects (RPA)
   LNABLA  =     F    use nabla operator in PAW spheres
   LVEL    =     F    velocity operator in full k-point grid
   LINTERFAST=   F  fast interpolation
   KINTER  =     0    interpolate to denser k-point grid
   CSHIFT  =0.1000    complex shift for real part using Kramers Kronig
   OMEGAMAX=  -1.0    maximum frequency
   DEG_THRESHOLD= 0.2000000E-02 threshold for treating states as degnerate
   RTIME   =   -0.100 relaxation time in fs
  (WPLASMAI=    0.000 imaginary part of plasma frequency in eV, 0.658/RTIME)
   DFIELD  = 0.0000000 0.0000000 0.0000000 field for delta impulse in time
 
 Orbital magnetization related:
   ORBITALMAG=     F  switch on orbital magnetization
   LCHIMAG   =     F  perturbation theory with respect to B field
   DQ        =  0.001000  dq finite difference perturbation B field
   LLRAUG    =     F  two centre corrections for induced B field



--------------------------------------------------------------------------------------------------------


 Static calculation
 charge density and potential remain constant during run
 non-spin polarized calculation
 RMM-DIIS sequential band-by-band and
  variant of blocked Davidson during initial phase
 perform sub-space diagonalisation
    before iterative eigenvector-optimisation
 no mixing
 using additional bands           47
 real space projection scheme for non local part
 use partial core corrections
 calculate Harris-corrections to forces 
   (improved forces if not selfconsistent)
 use gradient corrections 
 WARNING: stress and forces are not correct
  (second derivative of E(xc) not defined)
 use of overlap-Matrix (Vanderbilt PP)
 Fermi weights with tetrahedron method with Bloechl corrections


--------------------------------------------------------------------------------------------------------


  energy-cutoff  :      500.00
  volume of cell :     1203.76
      direct lattice vectors                 reciprocal lattice vectors
     7.696786404  0.000000000  0.000000000     0.129924354 -0.075011849  0.000000000
     3.848392758  6.665612809  0.000000000     0.000000000  0.150023716  0.000000000
     0.000000000  0.000000000 23.463299730     0.000000000  0.000000000  0.042619751

  length of vectors
     7.696786404  7.696786404 23.463299730     0.150023716  0.150023716  0.042619751


 
 k-points in units of 2pi/SCALE and weight: Automatic mesh                          
   0.00000000  0.00000000  0.00000000       0.016
   0.01624054 -0.00937648  0.00000000       0.062
   0.00000000  0.01875296  0.00000000       0.031
   0.03248109 -0.01875296  0.00000000       0.062
   0.00000000  0.03750593  0.00000000       0.031
   0.04872163 -0.02812944  0.00000000       0.062
   0.00000000  0.05625889  0.00000000       0.031
   0.06496218 -0.03750592  0.00000000       0.031
   0.00000000  0.07501186  0.00000000       0.016
   0.03248109  0.00000000  0.00000000       0.031
   0.01624054  0.02812945  0.00000000       0.062
   0.04872163 -0.00937648  0.00000000       0.062
   0.03248109  0.03750593  0.00000000       0.062
  -0.01624054  0.04688241  0.00000000       0.062
   0.06496218 -0.01875296  0.00000000       0.062
   0.04872163  0.04688241  0.00000000       0.062
  -0.01624054  0.06563537  0.00000000       0.062
   0.06496218  0.00000000  0.00000000       0.031
   0.03248109  0.05625890  0.00000000       0.062
  -0.04872163  0.06563537  0.00000000       0.062
  -0.03248109  0.07501186  0.00000000       0.031
 
 k-points in reciprocal lattice and weights: Automatic mesh                          
   0.00000000  0.00000000  0.00000000       0.016
   0.12500000 -0.00000000  0.00000000       0.062
   0.00000000  0.12500000  0.00000000       0.031
   0.25000000 -0.00000000  0.00000000       0.062
   0.00000000  0.25000000  0.00000000       0.031
   0.37500000 -0.00000000  0.00000000       0.062
   0.00000000  0.37500000  0.00000000       0.031
   0.50000000 -0.00000000  0.00000000       0.031
   0.00000000  0.50000000  0.00000000       0.016
   0.25000000  0.12500000  0.00000000       0.031
   0.12500000  0.25000000  0.00000000       0.062
   0.37500000  0.12500000  0.00000000       0.062
   0.25000000  0.37500000  0.00000000       0.062
  -0.12500000  0.25000000  0.00000000       0.062
   0.50000000  0.12500000  0.00000000       0.062
   0.37500000  0.50000000  0.00000000       0.062
  -0.12500000  0.37500000  0.00000000       0.062
   0.50000000  0.25000000  0.00000000       0.031
   0.25000000  0.50000000  0.00000000       0.062
  -0.37500000  0.25000000  0.00000000       0.062
  -0.25000000  0.37500000  0.00000000       0.031
 
 position of ions in fractional coordinates (direct lattice) 
   0.00000000  0.00000000  0.22893454
   0.33333334  0.00000000  0.22893454
   0.66666669  0.00000000  0.22893454
   0.00000000  0.33333334  0.22893454
   0.33333331  0.33333334  0.22893454
   0.66666669  0.33333334  0.22893454
   0.00000000  0.66666669  0.22893454
   0.33333337  0.66666669  0.22893454
   0.66666663  0.66666669  0.22893454
   0.11111112  0.11111111  0.31821440
   0.44444442  0.11111111  0.31821440
   0.77777779  0.11111111  0.31821440
   0.11111112  0.44444445  0.31821440
   0.44444448  0.44444445  0.31821440
   0.77777773  0.44444445  0.31821440
   0.11111111  0.77777773  0.31821440
   0.44444448  0.77777773  0.31821440
   0.77777785  0.77777773  0.31821440
   0.88869288  0.22261426  0.40719985
   0.22238862  0.22238860  0.40667228
   0.55522283  0.22238860  0.40667228
   0.88838748  0.55580623  0.40721106
   0.22238859  0.55522277  0.40667228
   0.55580629  0.55580623  0.40721106
   0.88869288  0.88869288  0.40719985
   0.22261428  0.88869288  0.40719985
   0.55580623  0.88838748  0.40721106
   0.00000000  0.00000000  0.49547127
   0.33308665  0.00331262  0.49590998
   0.66360077  0.00331262  0.49590998
   0.00331262  0.33308665  0.49590998
   0.66360077  0.33308665  0.49590998
   0.00331262  0.66360077  0.49590998
   0.33308668  0.66360077  0.49590998
   0.66666663  0.66666669  0.49549158
   0.33333331  0.33333334  0.49077656
   0.33206522  0.33586953  0.57265954
   0.18170367  0.33266657  0.59115655
   0.48562973  0.33266657  0.59115655
 
 position of ions in cartesian coordinates  (Angst):
   0.00000000  0.00000000  5.37155964
   2.56559554  0.00000000  5.37155964
   5.13119109  0.00000000  5.37155964
   1.28279762  2.22187100  5.37155964
   3.84839293  2.22187100  5.37155964
   6.41398872  2.22187100  5.37155964
   2.56559525  4.44374201  5.37155964
   5.13119102  4.44374201  5.37155964
   7.69678588  4.44374201  5.37155964
   1.28279775  0.74062365  7.46635991
   3.84839295  0.74062365  7.46635991
   6.41398873  0.74062365  7.46635991
   2.56559535  2.96249461  7.46635991
   5.13119101  2.96249461  7.46635991
   7.69678586  2.96249461  7.46635991
   3.84839268  5.18436521  7.46635991
   6.41398840  5.18436521  7.46635991
   8.97958418  5.18436521  7.46635991
   7.69678637  1.48386047  9.55425204
   2.56751636  1.48235631  9.54187361
   5.12927019  1.48235631  9.54187361
   8.97668937  3.70478911  9.55451507
   3.84839272  3.70089999  9.54187361
   6.41688294  3.70478911  9.55451507
  10.26011849  5.92368263  9.55425204
   5.13345377  5.92368263  9.55425204
   7.69678578  5.92164699  9.55451507
   0.00000000  0.00000000 11.62539083
   2.57644503  0.02208061 11.63568457
   5.12034161  0.02208061 11.63568457
   1.30734474  2.22022662 11.63568457
   6.38944160  2.22022662 11.63568457
   2.57929288  4.42330577 11.63568457
   5.11749340  4.42330577 11.63568457
   7.69678588  4.44374201 11.62586742
   3.84839293  2.22187100 11.51523752
   3.84839293  2.23877626 13.43648248
   2.67876597  2.21742656 13.87048324
   5.01801990  2.21742656 13.87048324
 


--------------------------------------------------------------------------------------------------------


 k-point   1 :   0.0000 0.0000 0.0000  plane waves:   30523
 k-point   2 :   0.1250-0.0000 0.0000  plane waves:   30481
 k-point   3 :   0.0000 0.1250 0.0000  plane waves:   30481
 k-point   4 :   0.2500-0.0000 0.0000  plane waves:   30524
 k-point   5 :   0.0000 0.2500 0.0000  plane waves:   30524
 k-point   6 :   0.3750-0.0000 0.0000  plane waves:   30526
 k-point   7 :   0.0000 0.3750 0.0000  plane waves:   30526
 k-point   8 :   0.5000-0.0000 0.0000  plane waves:   30578
 k-point   9 :   0.0000 0.5000 0.0000  plane waves:   30578
 k-point  10 :   0.2500 0.1250 0.0000  plane waves:   30532
 k-point  11 :   0.1250 0.2500 0.0000  plane waves:   30532
 k-point  12 :   0.3750 0.1250 0.0000  plane waves:   30568
 k-point  13 :   0.2500 0.3750 0.0000  plane waves:   30568
 k-point  14 :  -0.1250 0.2500 0.0000  plane waves:   30568
 k-point  15 :   0.5000 0.1250 0.0000  plane waves:   30587
 k-point  16 :   0.3750 0.5000 0.0000  plane waves:   30587
 k-point  17 :  -0.1250 0.3750 0.0000  plane waves:   30587
 k-point  18 :   0.5000 0.2500 0.0000  plane waves:   30594
 k-point  19 :   0.2500 0.5000 0.0000  plane waves:   30594
 k-point  20 :  -0.3750 0.2500 0.0000  plane waves:   30600
 k-point  21 :  -0.2500 0.3750 0.0000  plane waves:   30600

 maximum and minimum number of plane-waves per node :     30600    30481

 maximum number of plane-waves:     30600
 maximum index in each direction: 
   IXMAX=   14   IYMAX=   14   IZMAX=   42
   IXMIN=  -14   IYMIN=  -14   IZMIN=  -42


 serial   3D FFT for wavefunctions
 parallel 3D FFT for charge:
    minimum data exchange during FFTs selected (reduces bandwidth)


 total amount of memory used by VASP MPI-rank0   159151. kBytes
=======================================================================

   base      :      30000. kBytes
   nonlr-proj:      17128. kBytes
   fftplans  :       3107. kBytes
   grid      :      13732. kBytes
   one-center:        606. kBytes
   wavefun   :      94578. kBytes
 
     INWAV:  cpu time    0.0000: real time    0.0001
 initial charge density was supplied:
 number of electron     408.9999518 magnetization 
 keeping initial charge density in first step


--------------------------------------------------------------------------------------------------------


 Maximum index for non-local projection operator         2682
 Maximum index for augmentation-charges          382 (set IRDMAX)


--------------------------------------------------------------------------------------------------------


 First call to EWALD:  gamma=   0.167
 Maximum number of real-space cells 4x 4x 2
 Maximum number of reciprocal cells 2x 2x 5

    FEWALD:  cpu time    0.0014: real time    0.0014


--------------------------------------- Iteration      1(   1)  ---------------------------------------


    POTLOK:  cpu time    0.0287: real time    0.0291
    SETDIJ:  cpu time    0.0041: real time    0.0042
     EDDAV:  cpu time   12.6943: real time   12.6957
 BZINTS: Fermi energy:   13.242084;  409.000000 electrons
         Band energy: 0.242292E+04;  BLOECHL correction:   -0.044208
       DOS:  cpu time    0.0311: real time    0.0311
    --------------------------------------------
      LOOP:  cpu time   12.7581: real time   12.7600

 eigenvalue-minimisations  : 10584
 total energy-change (2. order) : 0.3733546E+04  (-0.1767019E+05)
 number of electron     408.9999518 magnetization 
 augmentation part      408.9999518 magnetization 

 Free energy of the ion-electron system (eV)
  ---------------------------------------------------
  alpha Z        PSCENC =       842.69688221
  Ewald energy   TEWEN  =    191765.57922005
  -Hartree energ DENC   =   -239439.30288116
  -exchange      EXHF   =         0.00000000
  -V(xc)+E(xc)   XCENC  =      1631.36867060
  PAW double counting   =     47693.25427083   -51473.32447784
  entropy T*S    EENTRO =         0.00000000
  eigenvalues    EBANDS =      2422.92138004
  atomic energy  EATOM  =     50290.35304501
  Solvation  Ediel_sol  =         0.00000000
  ---------------------------------------------------
  free energy    TOTEN  =      3733.54610975 eV

  energy without entropy =     3733.54610975  energy(sigma->0) =     3733.54610975


--------------------------------------------------------------------------------------------------------




--------------------------------------- Iteration      1(   2)  ---------------------------------------


     EDDAV:  cpu time   12.6751: real time   12.6754
 BZINTS: Fermi energy:    2.559345;  409.000000 electrons
         Band energy:-0.929492E+03;  BLOECHL correction:   -0.020019
       DOS:  cpu time    0.0300: real time    0.0300
    --------------------------------------------
      LOOP:  cpu time   12.7051: real time   12.7054

 eigenvalue-minimisations  : 10584
 total energy-change (2. order) :-0.3352414E+04  (-0.3236002E+04)
 number of electron     408.9999518 magnetization 
 augmentation part      408.9999518 magnetization 

 Free energy of the ion-electron system (eV)
  ---------------------------------------------------
  alpha Z        PSCENC =       842.69688221
  Ewald energy   TEWEN  =    191765.57922005
  -Hartree energ DENC   =   -239439.30288116
  -exchange      EXHF   =         0.00000000
  -V(xc)+E(xc)   XCENC  =      1631.36867060
  PAW double counting   =     47693.25427083   -51473.32447784
  entropy T*S    EENTRO =         0.00000000
  eigenvalues    EBANDS =      -929.49234897
  atomic energy  EATOM  =     50290.35304501
  Solvation  Ediel_sol  =         0.00000000
  ---------------------------------------------------
  free energy    TOTEN  =       381.13238074 eV

  energy without entropy =      381.13238074  energy(sigma->0) =      381.13238074


--------------------------------------------------------------------------------------------------------




--------------------------------------- Iteration      1(   3)  ---------------------------------------


     EDDAV:  cpu time   14.2871: real time   14.2873
 BZINTS: Fermi energy:   -0.240689;  409.000000 electrons
         Band energy:-0.141571E+04;  BLOECHL correction:   -0.053503
       DOS:  cpu time    0.0290: real time    0.0290
    --------------------------------------------
      LOOP:  cpu time   14.3160: real time   14.3162

 eigenvalue-minimisations  : 12236
 total energy-change (2. order) :-0.4862164E+03  (-0.4614114E+03)
 number of electron     408.9999518 magnetization 
 augmentation part      408.9999518 magnetization 

 Free energy of the ion-electron system (eV)
  ---------------------------------------------------
  alpha Z        PSCENC =       842.69688221
  Ewald energy   TEWEN  =    191765.57922005
  -Hartree energ DENC   =   -239439.30288116
  -exchange      EXHF   =         0.00000000
  -V(xc)+E(xc)   XCENC  =      1631.36867060
  PAW double counting   =     47693.25427083   -51473.32447784
  entropy T*S    EENTRO =         0.00000000
  eigenvalues    EBANDS =     -1415.70871234
  atomic energy  EATOM  =     50290.35304501
  Solvation  Ediel_sol  =         0.00000000
  ---------------------------------------------------
  free energy    TOTEN  =      -105.08398263 eV

  energy without entropy =     -105.08398263  energy(sigma->0) =     -105.08398263


--------------------------------------------------------------------------------------------------------




--------------------------------------- Iteration      1(   4)  ---------------------------------------


     EDDAV:  cpu time   17.3786: real time   17.3788
 BZINTS: Fermi energy:   -0.526839;  409.000000 electrons
         Band energy:-0.146069E+04;  BLOECHL correction:   -0.043196
       DOS:  cpu time    0.0303: real time    0.0303
    --------------------------------------------
      LOOP:  cpu time   17.4090: real time   17.4091

 eigenvalue-minimisations  : 15484
 total energy-change (2. order) :-0.4497923E+02  (-0.4383267E+02)
 number of electron     408.9999518 magnetization 
 augmentation part      408.9999518 magnetization 

 Free energy of the ion-electron system (eV)
  ---------------------------------------------------
  alpha Z        PSCENC =       842.69688221
  Ewald energy   TEWEN  =    191765.57922005
  -Hartree energ DENC   =   -239439.30288116
  -exchange      EXHF   =         0.00000000
  -V(xc)+E(xc)   XCENC  =      1631.36867060
  PAW double counting   =     47693.25427083   -51473.32447784
  entropy T*S    EENTRO =         0.00000000
  eigenvalues    EBANDS =     -1460.68793917
  atomic energy  EATOM  =     50290.35304501
  Solvation  Ediel_sol  =         0.00000000
  ---------------------------------------------------
  free energy    TOTEN  =      -150.06320946 eV

  energy without entropy =     -150.06320946  energy(sigma->0) =     -150.06320946


--------------------------------------------------------------------------------------------------------




--------------------------------------- Iteration      1(   5)  ---------------------------------------


     EDDAV:  cpu time   14.7106: real time   14.7109
 BZINTS: Fermi energy:   -0.535232;  409.000000 electrons
         Band energy:-0.146182E+04;  BLOECHL correction:   -0.044671
       DOS:  cpu time    0.0312: real time    0.0312
    --------------------------------------------
      LOOP:  cpu time   14.7418: real time   14.7421

 eigenvalue-minimisations  : 12712
 total energy-change (2. order) :-0.1127251E+01  (-0.1120192E+01)
 number of electron     408.9999518 magnetization 
 augmentation part      408.9999518 magnetization 

 Free energy of the ion-electron system (eV)
  ---------------------------------------------------
  alpha Z        PSCENC =       842.69688221
  Ewald energy   TEWEN  =    191765.57922005
  -Hartree energ DENC   =   -239439.30288116
  -exchange      EXHF   =         0.00000000
  -V(xc)+E(xc)   XCENC  =      1631.36867060
  PAW double counting   =     47693.25427083   -51473.32447784
  entropy T*S    EENTRO =         0.00000000
  eigenvalues    EBANDS =     -1461.81518970
  atomic energy  EATOM  =     50290.35304501
  Solvation  Ediel_sol  =         0.00000000
  ---------------------------------------------------
  free energy    TOTEN  =      -151.19045999 eV

  energy without entropy =     -151.19045999  energy(sigma->0) =     -151.19045999


--------------------------------------------------------------------------------------------------------




--------------------------------------- Iteration      1(   6)  ---------------------------------------


    EDDIAG:  cpu time    2.4099: real time    2.4103
  RMM-DIIS:  cpu time    7.0775: real time    7.0775
    ORTHCH:  cpu time    0.4686: real time    0.4686
 BZINTS: Fermi energy:   -0.535311;  409.000000 electrons
         Band energy:-0.146183E+04;  BLOECHL correction:   -0.044677
       DOS:  cpu time    0.0312: real time    0.0312
    --------------------------------------------
      LOOP:  cpu time    9.9872: real time    9.9876

 eigenvalue-minimisations  : 11589
 total energy-change (2. order) :-0.1932116E-01  (-0.1931389E-01)
 number of electron     408.9999518 magnetization 
 augmentation part      408.9999518 magnetization 

 Free energy of the ion-electron system (eV)
  ---------------------------------------------------
  alpha Z        PSCENC =       842.69688221
  Ewald energy   TEWEN  =    191765.57922005
  -Hartree energ DENC   =   -239439.30288116
  -exchange      EXHF   =         0.00000000
  -V(xc)+E(xc)   XCENC  =      1631.36867060
  PAW double counting   =     47693.25427083   -51473.32447784
  entropy T*S    EENTRO =         0.00000000
  eigenvalues    EBANDS =     -1461.83451085
  atomic energy  EATOM  =     50290.35304501
  Solvation  Ediel_sol  =         0.00000000
  ---------------------------------------------------
  free energy    TOTEN  =      -151.20978114 eV

  energy without entropy =     -151.20978114  energy(sigma->0) =     -151.20978114


--------------------------------------------------------------------------------------------------------




--------------------------------------- Iteration      1(   7)  ---------------------------------------


    EDDIAG:  cpu time    2.4120: real time    2.4148
  RMM-DIIS:  cpu time    9.7680: real time    9.7681
    ORTHCH:  cpu time    0.4691: real time    0.4691
 BZINTS: Fermi energy:   -0.535346;  409.000000 electrons
         Band energy:-0.146184E+04;  BLOECHL correction:   -0.044681
       DOS:  cpu time    0.0312: real time    0.0312
    --------------------------------------------
      LOOP:  cpu time   12.6803: real time   12.6832

 eigenvalue-minimisations  : 16237
 total energy-change (2. order) :-0.8397085E-02  (-0.8293081E-02)
 number of electron     408.9999518 magnetization 
 augmentation part      408.9999518 magnetization 

 Free energy of the ion-electron system (eV)
  ---------------------------------------------------
  alpha Z        PSCENC =       842.69688221
  Ewald energy   TEWEN  =    191765.57922005
  -Hartree energ DENC   =   -239439.30288116
  -exchange      EXHF   =         0.00000000
  -V(xc)+E(xc)   XCENC  =      1631.36867060
  PAW double counting   =     47693.25427083   -51473.32447784
  entropy T*S    EENTRO =         0.00000000
  eigenvalues    EBANDS =     -1461.84290794
  atomic energy  EATOM  =     50290.35304501
  Solvation  Ediel_sol  =         0.00000000
  ---------------------------------------------------
  free energy    TOTEN  =      -151.21817823 eV

  energy without entropy =     -151.21817823  energy(sigma->0) =     -151.21817823


--------------------------------------------------------------------------------------------------------




--------------------------------------- Iteration      1(   8)  ---------------------------------------


    EDDIAG:  cpu time    2.4113: real time    2.4113
  RMM-DIIS:  cpu time   10.4754: real time   10.4755
    ORTHCH:  cpu time    0.4695: real time    0.4695
 BZINTS: Fermi energy:   -0.535351;  409.000000 electrons
         Band energy:-0.146184E+04;  BLOECHL correction:   -0.044681
       DOS:  cpu time    0.0286: real time    0.0286
    --------------------------------------------
      LOOP:  cpu time   13.3848: real time   13.3849

 eigenvalue-minimisations  : 17471
 total energy-change (2. order) :-0.7624552E-03  (-0.9064178E-03)
 number of electron     408.9999518 magnetization 
 augmentation part      408.9999518 magnetization 

 Free energy of the ion-electron system (eV)
  ---------------------------------------------------
  alpha Z        PSCENC =       842.69688221
  Ewald energy   TEWEN  =    191765.57922005
  -Hartree energ DENC   =   -239439.30288116
  -exchange      EXHF   =         0.00000000
  -V(xc)+E(xc)   XCENC  =      1631.36867060
  PAW double counting   =     47693.25427083   -51473.32447784
  entropy T*S    EENTRO =         0.00000000
  eigenvalues    EBANDS =     -1461.84367039
  atomic energy  EATOM  =     50290.35304501
  Solvation  Ediel_sol  =         0.00000000
  ---------------------------------------------------
  free energy    TOTEN  =      -151.21894068 eV

  energy without entropy =     -151.21894068  energy(sigma->0) =     -151.21894068


--------------------------------------------------------------------------------------------------------




--------------------------------------- Iteration      1(   9)  ---------------------------------------


    EDDIAG:  cpu time    2.4124: real time    2.4126
  RMM-DIIS:  cpu time   11.3712: real time   11.3713
    ORTHCH:  cpu time    0.4691: real time    0.4691
 BZINTS: Fermi energy:   -0.535352;  409.000000 electrons
         Band energy:-0.146184E+04;  BLOECHL correction:   -0.044681
       DOS:  cpu time    0.0306: real time    0.0306
    --------------------------------------------
      LOOP:  cpu time   14.2833: real time   14.2836

 eigenvalue-minimisations  : 18942
 total energy-change (2. order) :-0.1681075E-03  (-0.1706343E-03)
 number of electron     408.9999518 magnetization 
 augmentation part      408.9999518 magnetization 

 Free energy of the ion-electron system (eV)
  ---------------------------------------------------
  alpha Z        PSCENC =       842.69688221
  Ewald energy   TEWEN  =    191765.57922005
  -Hartree energ DENC   =   -239439.30288116
  -exchange      EXHF   =         0.00000000
  -V(xc)+E(xc)   XCENC  =      1631.36867060
  PAW double counting   =     47693.25427083   -51473.32447784
  entropy T*S    EENTRO =         0.00000000
  eigenvalues    EBANDS =     -1461.84383850
  atomic energy  EATOM  =     50290.35304501
  Solvation  Ediel_sol  =         0.00000000
  ---------------------------------------------------
  free energy    TOTEN  =      -151.21910879 eV

  energy without entropy =     -151.21910879  energy(sigma->0) =     -151.21910879


--------------------------------------------------------------------------------------------------------




--------------------------------------- Iteration      1(  10)  ---------------------------------------


    EDDIAG:  cpu time    2.4106: real time    2.4108
  RMM-DIIS:  cpu time   10.2935: real time   10.2936
    ORTHCH:  cpu time    0.4689: real time    0.4689
 BZINTS: Fermi energy:   -0.535353;  409.000000 electrons
         Band energy:-0.146184E+04;  BLOECHL correction:   -0.044681
       DOS:  cpu time    0.0306: real time    0.0306
    --------------------------------------------
      LOOP:  cpu time   13.2036: real time   13.2039

 eigenvalue-minimisations  : 16895
 total energy-change (2. order) :-0.5057827E-04  (-0.5122291E-04)
 number of electron     408.9999518 magnetization 
 augmentation part      408.9999518 magnetization 

 Free energy of the ion-electron system (eV)
  ---------------------------------------------------
  alpha Z        PSCENC =       842.69688221
  Ewald energy   TEWEN  =    191765.57922005
  -Hartree energ DENC   =   -239439.30288116
  -exchange      EXHF   =         0.00000000
  -V(xc)+E(xc)   XCENC  =      1631.36867060
  PAW double counting   =     47693.25427083   -51473.32447784
  entropy T*S    EENTRO =         0.00000000
  eigenvalues    EBANDS =     -1461.84388908
  atomic energy  EATOM  =     50290.35304501
  Solvation  Ediel_sol  =         0.00000000
  ---------------------------------------------------
  free energy    TOTEN  =      -151.21915937 eV

  energy without entropy =     -151.21915937  energy(sigma->0) =     -151.21915937


--------------------------------------------------------------------------------------------------------




--------------------------------------- Iteration      1(  11)  ---------------------------------------


    EDDIAG:  cpu time    2.4123: real time    2.4124
  RMM-DIIS:  cpu time    8.2363: real time    8.2363
    ORTHCH:  cpu time    0.4692: real time    0.4692
 BZINTS: Fermi energy:   -0.535353;  409.000000 electrons
         Band energy:-0.146184E+04;  BLOECHL correction:   -0.044681
       DOS:  cpu time    0.0305: real time    0.0305
    --------------------------------------------
      LOOP:  cpu time   11.1482: real time   11.1484

 eigenvalue-minimisations  : 12674
 total energy-change (2. order) :-0.1589287E-04  (-0.1611600E-04)
 number of electron     408.9999518 magnetization 
 augmentation part      408.9999518 magnetization 

 Free energy of the ion-electron system (eV)
  ---------------------------------------------------
  alpha Z        PSCENC =       842.69688221
  Ewald energy   TEWEN  =    191765.57922005
  -Hartree energ DENC   =   -239439.30288116
  -exchange      EXHF   =         0.00000000
  -V(xc)+E(xc)   XCENC  =      1631.36867060
  PAW double counting   =     47693.25427083   -51473.32447784
  entropy T*S    EENTRO =         0.00000000
  eigenvalues    EBANDS =     -1461.84390497
  atomic energy  EATOM  =     50290.35304501
  Solvation  Ediel_sol  =         0.00000000
  ---------------------------------------------------
  free energy    TOTEN  =      -151.21917526 eV

  energy without entropy =     -151.21917526  energy(sigma->0) =     -151.21917526


--------------------------------------------------------------------------------------------------------




--------------------------------------- Iteration      1(  12)  ---------------------------------------


    EDDIAG:  cpu time    2.4114: real time    2.4115
  RMM-DIIS:  cpu time    6.7299: real time    6.7299
    ORTHCH:  cpu time    0.4684: real time    0.4684
 BZINTS: Fermi energy:   -0.535353;  409.000000 electrons
         Band energy:-0.146184E+04;  BLOECHL correction:   -0.044681
       DOS:  cpu time    0.0312: real time    0.0312
    --------------------------------------------
      LOOP:  cpu time    9.6409: real time    9.6411

 eigenvalue-minimisations  :  9812
 total energy-change (2. order) :-0.6599177E-05  (-0.6849102E-05)
 number of electron     408.9999518 magnetization 
 augmentation part      408.9999518 magnetization 

 Free energy of the ion-electron system (eV)
  ---------------------------------------------------
  alpha Z        PSCENC =       842.69688221
  Ewald energy   TEWEN  =    191765.57922005
  -Hartree energ DENC   =   -239439.30288116
  -exchange      EXHF   =         0.00000000
  -V(xc)+E(xc)   XCENC  =      1631.36867060
  PAW double counting   =     47693.25427083   -51473.32447784
  entropy T*S    EENTRO =         0.00000000
  eigenvalues    EBANDS =     -1461.84391157
  atomic energy  EATOM  =     50290.35304501
  Solvation  Ediel_sol  =         0.00000000
  ---------------------------------------------------
  free energy    TOTEN  =      -151.21918186 eV

  energy without entropy =     -151.21918186  energy(sigma->0) =     -151.21918186


--------------------------------------------------------------------------------------------------------




 average (electrostatic) potential at core
  the test charge radii are     0.9430  1.0103  0.6991  0.7215
  (the norm of the test charge is              1.0000)
       1 -71.5100       2 -71.5139       3 -71.5138       4 -71.5035       5 -71.5059
       6 -71.5032       7 -71.5133       8 -71.5131       9 -71.5168      10 -71.7766
      11 -71.7617      12 -71.7764      13 -71.7640      14 -71.7639      15 -71.7792
      16 -71.7827      17 -71.7718      18 -71.7718      19 -71.7408      20 -71.8032
      21 -71.8032      22 -71.7599      23 -71.7951      24 -71.7602      25 -71.7441
      26 -71.7443      27 -71.7440      28 -71.4724      29 -71.5054      30 -71.5054
      31 -71.5374      32 -71.5375      33 -71.4983      34 -71.4983      35 -71.4765
      36 -49.2092      37 -57.5401      38 -76.7295      39 -76.7296
 
 
 
 E-fermi :  -0.5354     XC(G=0):  -5.5354     alpha+bet : -4.9462

 Fermi energy:        -0.5353527282

 k-point     1 :       0.0000    0.0000    0.0000
  band No.  band energies     occupation 
      1     -22.8513      2.00000
      2     -21.1803      2.00000
      3      -9.3569      2.00000
      4      -8.8984      2.00000
      5      -8.1248      2.00000
      6      -7.3728      2.00000
      7      -6.9033      2.00000
      8      -6.7999      2.00000
      9      -6.3511      2.00000
     10      -6.3406      2.00000
     11      -6.3302      2.00000
     12      -6.3270      2.00000
     13      -6.3265      2.00000
     14      -6.3179      2.00000
     15      -6.1856      2.00000
     16      -5.5725      2.00000
     17      -5.5608      2.00000
     18      -5.5559      2.00000
     19      -5.5534      2.00000
     20      -5.5428      2.00000
     21      -5.5406      2.00000
     22      -5.4065      2.00000
     23      -4.9006      2.00000
     24      -4.8650      2.00000
     25      -4.8644      2.00000
     26      -4.8539      2.00000
     27      -4.8491      2.00000
     28      -4.7737      2.00000
     29      -4.5810      2.00000
     30      -4.5808      2.00000
     31      -4.5723      2.00000
     32      -4.5669      2.00000
     33      -4.5621      2.00000
     34      -4.5556      2.00000
     35      -4.4017      2.00000
     36      -4.4012      2.00000
     37      -4.3984      2.00000
     38      -4.3957      2.00000
     39      -4.3903      2.00000
     40      -4.3892      2.00000
     41      -4.3723      2.00000
     42      -4.3446      2.00000
     43      -4.3312      2.00000
     44      -4.3239      2.00000
     45      -4.3146      2.00000
     46      -4.3031      2.00000
     47      -4.2602      2.00000
     48      -4.2600      2.00000
     49      -4.2538      2.00000
     50      -4.2491      2.00000
     51      -4.1506      2.00000
     52      -4.1409      2.00000
     53      -4.1112      2.00000
     54      -4.0612      2.00000
     55      -4.0493      2.00000
     56      -4.0432      2.00000
     57      -4.0302      2.00000
     58      -4.0223      2.00000
     59      -4.0118      2.00000
     60      -4.0092      2.00000
     61      -3.9049      2.00000
     62      -3.7199      2.00000
     63      -3.7134      2.00000
     64      -3.7084      2.00000
[...]
  0.000   0.000   0.000   0.000   0.000   0.000   0.000   0.000   0.000   0.000   1.000   0.000   0.000   0.000   0.000   0.000
  0.000   0.000   0.000   0.000   0.000   0.000   0.000   0.000   0.000   0.000   0.000   0.000   0.000   0.000   0.000   0.000
  0.000   0.000   0.000   0.000   0.000   0.000   0.000   0.000   0.000   0.000   0.000   0.000   0.000   0.000   0.000   0.000
  0.000   0.000   0.000   0.000   0.000   0.000   0.000   0.000   0.000   0.000   0.000   0.000   0.000   0.000   0.000   0.000
  0.000   0.000   0.000   0.000   0.000   0.000   0.000   0.000   0.000   0.000   0.000   0.000   0.000   0.000   0.000   0.000
  0.000   0.000   0.000   0.000   0.000   0.000   0.000   0.000   0.000   0.000   0.000   0.000   0.000   0.000   0.000   0.000
  0.000   0.000   0.000   0.000   0.000   0.000   0.000   0.000   0.000   0.000   0.000   0.000   0.000   0.000   0.000   0.000
  0.000   0.000   0.000   0.000   0.000   0.000   0.000   0.000   0.000   0.000   0.000   0.000   0.000   0.000   0.000   0.000


------------------------ aborting loop because EDIFF is reached ----------------------------------------





 total charge

# of ion       s       p       d       tot
------------------------------------------
    1        0.449   0.284   9.188   9.920
    2        0.448   0.285   9.186   9.918
    3        0.448   0.285   9.186   9.918
    4        0.448   0.284   9.188   9.921
    5        0.449   0.284   9.185   9.919
    6        0.448   0.284   9.188   9.921
    7        0.448   0.285   9.184   9.918
    8        0.448   0.285   9.184   9.918
    9        0.447   0.284   9.187   9.918
   10        0.442   0.373   9.177   9.991
   11        0.443   0.369   9.183   9.995
   12        0.442   0.373   9.177   9.991
   13        0.442   0.370   9.181   9.992
   14        0.442   0.370   9.181   9.992
   15        0.439   0.372   9.177   9.987
   16        0.441   0.371   9.177   9.990
   17        0.440   0.369   9.180   9.989
   18        0.440   0.369   9.180   9.989
   19        0.437   0.370   9.182   9.989
   20        0.454   0.392   9.169  10.015
   21        0.454   0.392   9.169  10.015
   22        0.434   0.375   9.181   9.990
   23        0.454   0.386   9.174  10.014
   24        0.434   0.375   9.181   9.990
   25        0.440   0.368   9.183   9.990
   26        0.440   0.368   9.183   9.990
   27        0.435   0.373   9.182   9.990
   28        0.449   0.280   9.191   9.920
   29        0.452   0.289   9.184   9.926
   30        0.452   0.289   9.184   9.926
   31        0.434   0.293   9.186   9.913
   32        0.434   0.293   9.186   9.913
   33        0.453   0.290   9.184   9.927
   34        0.453   0.290   9.184   9.927
   35        0.443   0.284   9.190   9.916
   36        0.460   0.416   6.456   7.332
   37        0.887   1.689   0.000   2.576
   38        1.599   3.469   0.000   5.068
   39        1.599   3.469   0.000   5.068
--------------------------------------------------
tot         20.098  20.645 327.838 368.580
 
    CHARGE:  cpu time    0.4791: real time    0.4791
    FORLOC:  cpu time    0.0087: real time    0.0087
    FORNL :  cpu time    2.5236: real time    2.5239
    STRESS:  cpu time    7.5428: real time    7.5431
    FORCOR:  cpu time    0.0312: real time    0.0313
    FORHAR:  cpu time    0.0132: real time    0.0133
    OFIELD:  cpu time    0.0001: real time    0.0001

  FORCE on cell =-STRESS in cart. coord.  units (eV):
  Direction    XX          YY          ZZ          XY          YZ          ZX
  --------------------------------------------------------------------------------------
  Alpha Z   842.69688   842.69688   842.69688
  Ewald  218166.60978217478.06249************     0.00043    -2.61288     0.00018
  Hartree230995.54216230649.59532************     0.00006    -1.48565     0.00007
  E(xc)   -2359.41714 -2361.23773 -2365.11681    -0.00027    -0.02127    -0.00004
  Local  ************************461502.92038     0.02021     4.17983    -0.00075
  n-local  -839.81215  -835.54840  -850.95968     1.81954     0.35227     0.11372
  augment  3355.15086  3358.28652  3375.81741    -0.01820    -0.06155     0.00043
  Kinetic  3497.63181  3543.98334  3561.80705     1.08569    -0.38560    -0.13465
  Fock        0.00000     0.00000     0.00000     0.00000     0.00000     0.00000
  -------------------------------------------------------------------------------------
  Total      -6.97423    -6.57267    -0.35088     0.00000    -0.03485     0.00000
  in kB      -9.28257    -8.74810    -0.46701     0.00000    -0.04638     0.00000
  external pressure =       -6.17 kB  Pullay stress =        0.00 kB


 VOLUME and BASIS-vectors are now :
 -----------------------------------------------------------------------------
  energy-cutoff  :      500.00
  volume of cell :     1203.76
      direct lattice vectors                 reciprocal lattice vectors
     7.696786404  0.000000000  0.000000000     0.129924354 -0.075011849  0.000000000
     3.848392758  6.665612809  0.000000000     0.000000000  0.150023716  0.000000000
     0.000000000  0.000000000 23.463299730     0.000000000  0.000000000  0.042619751

  length of vectors
     7.696786404  7.696786404 23.463299730     0.150023716  0.150023716  0.042619751


 FORCES acting on ions
    electron-ion (+dipol)            ewald-force                    non-local-force                 convergence-correction
 -----------------------------------------------------------------------------------------------
   -.417E-04 0.146E+00 0.376E+04   0.579E-04 -.560E-01 -.376E+04   0.263E-08 -.395E-01 -.231E+01   -.325E-03 -.587E-01 -.471E+00
   0.940E-01 0.417E+00 0.376E+04   -.178E+00 -.281E+00 -.376E+04   -.156E-01 -.854E-02 -.197E+01   0.960E-01 -.126E+00 -.445E+00
   -.940E-01 0.417E+00 0.376E+04   0.178E+00 -.281E+00 -.376E+04   0.156E-01 -.854E-02 -.197E+01   -.952E-01 -.123E+00 -.444E+00
   0.224E+00 -.397E-01 0.376E+04   -.284E+00 -.428E-01 -.376E+04   0.816E-01 -.606E-03 -.207E+01   -.183E-01 0.869E-01 -.429E+00
   -.634E-04 -.478E-01 0.376E+04   0.116E-03 -.104E-02 -.376E+04   -.101E-08 0.152E-01 -.181E+01   0.121E-01 0.258E-01 -.398E+00
   -.224E+00 -.396E-01 0.376E+04   0.284E+00 -.429E-01 -.376E+04   -.816E-01 -.606E-03 -.207E+01   0.168E-01 0.881E-01 -.428E+00
   0.124E+00 -.325E+00 0.376E+04   -.105E+00 0.324E+00 -.376E+04   0.312E-01 -.840E-02 -.188E+01   -.482E-01 0.157E-01 -.378E+00
   -.124E+00 -.325E+00 0.376E+04   0.105E+00 0.324E+00 -.376E+04   -.312E-01 -.840E-02 -.188E+01   0.515E-01 0.143E-01 -.378E+00
   -.144E-03 -.268E+00 0.376E+04   0.263E-03 0.571E-01 -.376E+04   -.771E-08 0.116E+00 -.213E+01   -.131E-01 0.950E-01 -.382E+00
   0.245E+01 0.203E+01 0.135E+04   -.221E+01 -.173E+01 -.135E+04   -.275E+00 -.226E+00 -.995E+00   0.240E-01 -.674E-01 -.215E-02
   -.908E-04 0.320E+01 0.135E+04   0.189E-03 -.308E+01 -.135E+04   -.863E-09 0.130E-01 -.844E+00   0.118E-01 -.125E+00 -.611E-01
   -.245E+01 0.203E+01 0.135E+04   0.221E+01 -.173E+01 -.135E+04   0.275E+00 -.226E+00 -.995E+00   -.255E-01 -.669E-01 -.307E-02
   0.217E+01 -.175E+01 0.135E+04   -.225E+01 0.160E+01 -.135E+04   0.969E-01 0.116E-01 -.675E+00   -.217E-01 0.138E+00 -.905E-02
   -.217E+01 -.175E+01 0.135E+04   0.225E+01 0.160E+01 -.135E+04   -.969E-01 0.116E-01 -.675E+00   0.448E-01 0.137E+00 -.121E-01
   -.141E-03 -.364E+00 0.135E+04   0.299E-03 -.222E-01 -.135E+04   -.109E-07 0.164E+00 -.104E+01   -.296E-02 0.205E+00 0.465E-01
   -.867E-04 -.283E+01 0.135E+04   0.185E-03 0.270E+01 -.135E+04   -.134E-07 0.201E+00 -.779E+00   -.116E-02 -.756E-01 -.259E-02
   -.316E-01 -.283E+00 0.135E+04   -.268E+00 0.326E+00 -.135E+04   0.162E+00 0.114E-01 -.737E+00   0.127E+00 -.601E-01 -.388E-01
   0.317E-01 -.283E+00 0.135E+04   0.268E+00 0.326E+00 -.135E+04   -.162E+00 0.114E-01 -.737E+00   -.126E+00 -.578E-01 -.366E-01
   -.614E-04 0.306E+01 -.109E+04   0.667E-04 -.331E+01 0.109E+04   -.116E-07 0.174E+00 0.105E+01   0.138E-02 0.776E-01 0.302E+00
   0.308E+00 0.277E+01 -.107E+04   0.489E+00 -.226E+01 0.107E+04   -.791E+00 -.459E+00 -.793E+00   -.102E+00 -.777E-01 0.275E+00
   -.308E+00 0.277E+01 -.107E+04   -.489E+00 -.226E+01 0.107E+04   0.791E+00 -.459E+00 -.793E+00   0.807E-01 -.799E-01 0.275E+00
   -.142E+00 -.294E+01 -.109E+04   -.140E+00 0.326E+01 0.109E+04   0.371E+00 -.367E+00 0.727E+00   -.247E-01 0.165E-01 0.226E+00
   -.784E-04 -.392E+01 -.108E+04   0.142E-03 0.312E+01 0.108E+04   -.498E-07 0.748E+00 -.367E+00   -.137E-01 0.135E+00 0.226E+00
   0.142E+00 -.294E+01 -.109E+04   0.140E+00 0.326E+01 0.109E+04   -.371E+00 -.367E+00 0.727E+00   0.484E-01 0.159E-01 0.225E+00
   -.114E+01 0.610E+00 -.109E+04   0.115E+01 -.505E+00 0.109E+04   0.646E-02 -.490E-01 0.927E+00   -.150E-01 -.514E-01 0.287E+00
   0.114E+01 0.610E+00 -.109E+04   -.115E+01 -.506E+00 0.109E+04   -.646E-02 -.490E-01 0.927E+00   0.141E-01 -.489E-01 0.288E+00
   -.123E-03 0.492E+00 -.109E+04   0.243E-03 -.780E+00 0.109E+04   -.257E-07 0.386E+00 0.788E+00   0.115E-01 -.392E-01 0.262E+00
   -.290E-04 0.154E+02 -.353E+04   0.289E-04 -.152E+02 0.352E+04   0.158E-07 -.237E+00 0.247E+01   0.156E-02 0.488E-02 0.354E+00
   0.187E+02 0.602E+02 -.349E+04   -.180E+02 -.605E+02 0.349E+04   -.711E+00 0.758E-01 0.291E+01   0.139E-01 -.166E-01 0.331E+00
   -.187E+02 0.602E+02 -.349E+04   0.180E+02 -.605E+02 0.349E+04   0.711E+00 0.758E-01 0.291E+01   -.352E-01 -.158E-01 0.330E+00
   0.649E+02 -.905E-01 -.345E+04   -.657E+02 0.305E+00 0.344E+04   0.783E+00 -.178E+00 0.412E+01   -.110E+00 -.349E-01 0.318E+00
   -.649E+02 -.901E-01 -.345E+04   0.657E+02 0.305E+00 0.344E+04   -.783E+00 -.178E+00 0.412E+01   0.882E-01 -.341E-01 0.318E+00
   0.197E+02 -.604E+02 -.349E+04   -.192E+02 0.604E+02 0.349E+04   -.410E+00 0.978E-01 0.281E+01   -.968E-01 0.825E-01 0.263E+00
   -.197E+02 -.604E+02 -.349E+04   0.192E+02 0.604E+02 0.349E+04   0.410E+00 0.978E-01 0.281E+01   0.774E-01 0.825E-01 0.265E+00
   -.139E-03 -.155E+02 -.353E+04   0.261E-03 0.153E+02 0.353E+04   -.152E-07 0.228E+00 0.276E+01   -.107E-01 0.858E-02 0.307E+00
   -.524E-04 0.105E+01 -.229E+04   0.105E-03 -.739E+00 0.229E+04   0.154E-07 -.231E+00 0.200E+01   0.432E-02 -.914E-01 0.204E+00
   -.209E-05 -.708E+01 -.142E+04   0.109E-04 0.738E+01 0.142E+04   0.178E-07 -.267E+00 0.607E+01   0.748E-03 -.324E-01 0.154E+00
   0.218E+03 0.278E+01 -.228E+04   -.264E+03 -.358E+01 0.230E+04   0.464E+02 0.827E+00 -.207E+02   -.688E-01 -.284E-01 0.464E-01
   -.218E+03 0.278E+01 -.228E+04   0.264E+03 -.358E+01 0.230E+04   -.464E+02 0.827E+00 -.207E+02   0.638E-01 -.284E-01 0.457E-01
 -----------------------------------------------------------------------------------------------
   0.404E-04 -.625E+00 0.293E+02   0.568E-13 0.520E-13 -.409E-11   -.483E-07 0.725E+00 -.308E+02   -.382E-01 -.110E+00 0.143E+01
 
 
 POSITION                                       TOTAL-FORCE (eV/Angst)
 -----------------------------------------------------------------------------------
      0.00000      0.00000      5.37156         0.000000     -0.008437      0.047203
      2.56560      0.00000      5.37156        -0.003563      0.003166      0.070644
      5.13119      0.00000      5.37156         0.003563      0.003166      0.070644
      1.28280      2.22187      5.37156         0.003923      0.004620      0.058108
      3.84839      2.22187      5.37156         0.000000     -0.007610      0.028914
      6.41399      2.22187      5.37156        -0.003923      0.004620      0.058108
      2.56560      4.44374      5.37156        -0.000159      0.005073      0.069127
      5.13119      4.44374      5.37156         0.000159      0.005073      0.069127
      7.69679      4.44374      5.37156        -0.000000      0.000396      0.041086
      1.28280      0.74062      7.46636        -0.007125      0.004820     -0.045668
      3.84839      0.74062      7.46636        -0.000000      0.009845     -0.078891
      6.41399      0.74062      7.46636         0.007125      0.004820     -0.045668
      2.56560      2.96249      7.46636        -0.019241      0.002127     -0.084940
      5.13119      2.96249      7.46636         0.019241      0.002127     -0.084940
      7.69679      2.96249      7.46636         0.000000     -0.016849     -0.045771
      3.84839      5.18437      7.46636        -0.000000      0.000204     -0.042163
      6.41399      5.18437      7.46636        -0.011368     -0.004364     -0.022023
      8.97958      5.18437      7.46636         0.011368     -0.004364     -0.022023
      7.69679      1.48386      9.55425         0.000000     -0.001715      0.087115
      2.56752      1.48236      9.54187        -0.085057     -0.031346     -0.054087
      5.12927      1.48236      9.54187         0.085057     -0.031346     -0.054087
      8.97669      3.70479      9.55452         0.053124     -0.030009      0.028289
      3.84839      3.70090      9.54187        -0.000000      0.087887     -0.103788
      6.41688      3.70479      9.55452        -0.053124     -0.030009      0.028289
     10.26012      5.92368      9.55425        -0.001505      0.006136      0.022822
      5.13345      5.92368      9.55425         0.001505      0.006136      0.022822
      7.69679      5.92165      9.55452        -0.000000      0.059651      0.001263
      0.00000      0.00000     11.62539         0.000000     -0.062145     -0.025853
      2.57645      0.02208     11.63568        -0.011289     -0.210122     -0.140030
      5.12034      0.02208     11.63568         0.011289     -0.210122     -0.140030
      1.30734      2.22023     11.63568        -0.114088      0.002549      0.130395
      6.38944      2.22023     11.63568         0.114088      0.002549      0.130395
      2.57929      4.42331     11.63568         0.003448      0.186232     -0.112281
      5.11749      4.42331     11.63568        -0.003448      0.186232     -0.112281
      7.69679      4.44374     11.62587        -0.000000      0.068061     -0.020355
      3.84839      2.22187     11.51524         0.000000     -0.011002      0.327472
      3.84839      2.23878     13.43648        -0.000000      0.000824     -0.059198
      2.67877      2.21743     13.87048        -0.021714      0.001566      0.001128
      5.01802      2.21743     13.87048         0.021714      0.001566      0.001128
 -----------------------------------------------------------------------------------
    total drift:                               -0.038158     -0.010210     -0.102911


--------------------------------------------------------------------------------------------------------



  FREE ENERGIE OF THE ION-ELECTRON SYSTEM (eV)
  ---------------------------------------------------
  free  energy   TOTEN  =      -151.21918186 eV

  energy  without entropy=     -151.21918186  energy(sigma->0) =     -151.21918186
 


--------------------------------------------------------------------------------------------------------


    POTLOK:  cpu time    0.0301: real time    0.0301


--------------------------------------------------------------------------------------------------------


 stress matrix after NEB project (eV)
     -6.97423      0.00000      0.00000
      0.00000     -6.57267     -0.03485
      0.00000     -0.03485     -0.35088
  FORCES: max atom, RMS     0.059204    0.010688
  FORCE total and by dimension    0.066750    0.059198
  Stress total and by dimension    9.589858    6.974228
     LOOP+:  cpu time  166.9724: real time  166.9845
 -----------------------------------------------------------------------------
|                                                                             |
|           W    W    AA    RRRRR   N    N  II  N    N   GGGG   !!!           |
|           W    W   A  A   R    R  NN   N  II  NN   N  G    G  !!!           |
|           W    W  A    A  R    R  N N  N  II  N N  N  G       !!!           |
|           W WW W  AAAAAA  RRRRR   N  N N  II  N  N N  G  GGG   !            |
|           WW  WW  A    A  R   R   N   NN  II  N   NN  G    G                |
|           W    W  A    A  R    R  N    N  II  N    N   GGGG   !!!           |
|                                                                             |
|     Tetrahedron method does not include variations of the Fermi             |
|     occupations, so forces and stress will be inaccurate. We suggest        |
|     using a different smearing scheme ISMEAR = 1 or 2 for metals in         |
|     relaxations.                                                            |
|                                                                             |
 -----------------------------------------------------------------------------

    4ORBIT:  cpu time    0.0000: real time    0.0000



 total charge

# of ion       s       p       d       tot
------------------------------------------
    1        0.449   0.284   9.188   9.920
    2        0.448   0.285   9.186   9.918
    3        0.448   0.285   9.186   9.918
    4        0.448   0.284   9.188   9.921
    5        0.449   0.284   9.185   9.919
    6        0.448   0.284   9.188   9.921
    7        0.448   0.285   9.184   9.918
    8        0.448   0.285   9.184   9.918
    9        0.447   0.284   9.187   9.918
   10        0.442   0.373   9.177   9.991
   11        0.443   0.369   9.183   9.995
   12        0.442   0.373   9.177   9.991
   13        0.442   0.370   9.181   9.992
   14        0.442   0.370   9.181   9.992
   15        0.439   0.372   9.177   9.987
   16        0.441   0.371   9.177   9.990
   17        0.440   0.369   9.180   9.989
   18        0.440   0.369   9.180   9.989
   19        0.437   0.370   9.182   9.989
   20        0.454   0.392   9.169  10.015
   21        0.454   0.392   9.169  10.015
   22        0.434   0.375   9.181   9.990
   23        0.454   0.386   9.174  10.014
   24        0.434   0.375   9.181   9.990
   25        0.440   0.368   9.183   9.990
   26        0.440   0.368   9.183   9.990
   27        0.435   0.373   9.182   9.990
   28        0.449   0.280   9.191   9.920
   29        0.452   0.289   9.184   9.926
   30        0.452   0.289   9.184   9.926
   31        0.434   0.293   9.186   9.913
   32        0.434   0.293   9.186   9.913
   33        0.453   0.290   9.184   9.927
   34        0.453   0.290   9.184   9.927
   35        0.443   0.284   9.190   9.916
   36        0.460   0.416   6.456   7.332
   37        0.887   1.689   0.000   2.576
   38        1.599   3.469   0.000   5.068
   39        1.599   3.469   0.000   5.068
--------------------------------------------------
tot         20.098  20.645 327.838 368.580
 
 BZINTS: Fermi energy:   -0.535353;  409.000000 electrons
         Band energy:-0.146184E+04;  BLOECHL correction:   -0.044681

 total amount of memory used by VASP MPI-rank0   159151. kBytes
=======================================================================

   base      :      30000. kBytes
   nonlr-proj:      17128. kBytes
   fftplans  :       3107. kBytes
   grid      :      13732. kBytes
   one-center:        606. kBytes
   wavefun   :      94578. kBytes
 
  
  
 General timing and accounting informations for this job:
 ========================================================
  
                  Total CPU time used (sec):      178.863
                            User time (sec):      172.658
                          System time (sec):        6.205
                         Elapsed time (sec):      179.416
  
                   Maximum memory used (kb):      414816.
                   Average memory used (kb):          N/A
  
                          Minor page faults:       110459
                          Major page faults:            0
                 Voluntary context switches:         7181
