 vasp.6.2.0 18Jan21 (build Jun 12 2021 23:27:24) complex                        
  
 executed on             LinuxIFC date 2022.05.28  01:51:45
 running on   28 total cores
 distrk:  each k-point on   28 cores,    1 groups
 distr:  one band on NCORE=   1 cores,   28 groups


--------------------------------------------------------------------------------------------------------


 INCAR:
   ISMEAR = -5
   SIGMA = 0.1
   ISPIN = 1
   EDIFF = 1.d-5
   EDIFFG = -0.01
   NSW = 0
   NELM = 150
   ENCUT = 500
   ISIF = 2
   IBRION = 2
   LREAL = Auto
   ALGO = Fast
   ICHARG = 11
   LORBIT = 10
   LCHARG = .F.
   LWAVE = .F.

 POTCAR:    PAW_PBE Ag 02Apr2005                  
 POTCAR:    PAW_PBE Rh 04Feb2005                  
 POTCAR:    PAW_PBE C 08Apr2002                   
 POTCAR:    PAW_PBE O 08Apr2002                   
 -----------------------------------------------------------------------------
|                                                                             |
|           W    W    AA    RRRRR   N    N  II  N    N   GGGG   !!!           |
|           W    W   A  A   R    R  NN   N  II  NN   N  G    G  !!!           |
|           W    W  A    A  R    R  N N  N  II  N N  N  G       !!!           |
|           W WW W  AAAAAA  RRRRR   N  N N  II  N  N N  G  GGG   !            |
|           WW  WW  A    A  R   R   N   NN  II  N   NN  G    G                |
|           W    W  A    A  R    R  N    N  II  N    N   GGGG   !!!           |
|                                                                             |
|     For optimal performance we recommend to set                             |
|       NCORE = 2 up to number-of-cores-per-socket                            |
|     NCORE specifies how many cores store one orbital (NPAR=cpu/NCORE).      |
|     This setting can greatly improve the performance of VASP for DFT.       |
|     The default, NCORE=1 might be grossly inefficient on modern             |
|     multi-core architectures or massively parallel machines. Do your        |
|     own testing! More info at https://www.vasp.at/wiki/index.php/NCORE      |
|     Unfortunately you need to use the default for GW and RPA                |
|     calculations (for HF NCORE is supported but not extensively tested      |
|     yet).                                                                   |
|                                                                             |
 -----------------------------------------------------------------------------

 POTCAR:    PAW_PBE Ag 02Apr2005                  
   VRHFIN =Ag : s1 d10                                                                              
   LEXCH  = PE                                                                                      
   EATOM  =  1037.2675 eV,   76.2370 Ry                                                             
                                                                                                    
   TITEL  = PAW_PBE Ag 02Apr2005                                                                    
   LULTRA =        F    use ultrasoft PP ?                                                          
   IUNSCR =        1    unscreen: 0-lin 1-nonlin 2-no                                               
   RPACOR =    2.000    partial core radius                                                         
   POMASS =  107.868; ZVAL   =   11.000    mass and valenz                                          
   RCORE  =    2.500    outmost cutoff radius                                                       
   RWIGS  =    2.840; RWIGS  =    1.503    wigner-seitz radius (au A)                               
   ENMAX  =  249.844; ENMIN  =  187.383 eV                                                          
   ICORE  =        3    local potential                                                             
   LCOR   =        T    correct aug charges                                                         
   LPAW   =        T    paw PP                                                                      
   EAUG   =  412.496                                                                                
   DEXC   =    0.000                                                                                
   RMAX   =    2.560    core radius for proj-oper                                                   
   RAUG   =    1.300    factor for augmentation sphere                                              
   RDEP   =    2.576    radius for radial grids                                                     
   RDEPT  =    2.072    core radius for aug-charge                                                  
                                                                                                    
   Atomic configuration                                                                             
   12 entries                                                                                       
     n  l   j            E        occ.                                                              
     1  0  0.50    -25324.9161   2.0000                                                             
     2  0  0.50     -3728.5341   2.0000                                                             
     2  1  1.50     -3344.0404   6.0000                                                             
     3  0  0.50      -683.5581   2.0000                                                             
     3  1  1.50      -557.3225   6.0000                                                             
     3  2  2.50      -358.3853  10.0000                                                             
     4  0  0.50       -95.0341   2.0000                                                             
     4  1  1.50       -58.5511   6.0000                                                             
     4  2  2.50        -7.4440  10.0000                                                             
     5  0  0.50        -4.4045   1.0000                                                             
     5  1  0.50        -1.3606   0.0000                                                             
     4  3  2.50        -1.3606   0.0000                                                             
   Description                                                                                      
     l       E           TYP  RCUT    TYP  RCUT                                                     
     2     -7.4439781     23  2.400                                                                 
     2     -8.8045607     23  2.400                                                                 
     0     -4.4044681     23  2.400                                                                 
     0      1.9520038     23  2.400                                                                 
     1     -1.3605826     23  2.500                                                                 
     1     27.2116520     23  2.500                                                                 
     3     -4.0817478     23  2.400                                                                 
  local pseudopotential read in
  partial core-charges read in
  partial kinetic energy density read in
  atomic valenz-charges read in
  non local Contribution for L=           2  read in
    real space projection operators read in
  non local Contribution for L=           2  read in
    real space projection operators read in
  non local Contribution for L=           0  read in
    real space projection operators read in
  non local Contribution for L=           0  read in
    real space projection operators read in
  non local Contribution for L=           1  read in
    real space projection operators read in
  non local Contribution for L=           1  read in
    real space projection operators read in
    PAW grid and wavefunctions read in
 
   number of l-projection  operators is LMAX  =           6
   number of lm-projection operators is LMMAX =          18
 
 POTCAR:    PAW_PBE Rh 04Feb2005                  
   VRHFIN =Rh: s1 d8                                                                                
   LEXCH  = PE                                                                                      
   EATOM  =   616.4198 eV,   45.3056 Ry                                                             
                                                                                                    
   TITEL  = PAW_PBE Rh 04Feb2005                                                                    
   LULTRA =        F    use ultrasoft PP ?                                                          
   IUNSCR =        1    unscreen: 0-lin 1-nonlin 2-no                                               
   RPACOR =    2.170    partial core radius                                                         
   POMASS =  102.906; ZVAL   =    9.000    mass and valenz                                          
   RCORE  =    2.700    outmost cutoff radius                                                       
   RWIGS  =    2.650; RWIGS  =    1.402    wigner-seitz radius (au A)                               
   ENMAX  =  228.996; ENMIN  =  171.747 eV                                                          
   ICORE  =        3    local potential                                                             
   LCOR   =        T    correct aug charges                                                         
   LPAW   =        T    paw PP                                                                      
   EAUG   =  374.513                                                                                
   DEXC   =    0.000                                                                                
   RMAX   =    2.752    core radius for proj-oper                                                   
   RAUG   =    1.300    factor for augmentation sphere                                              
   RDEP   =    2.703    radius for radial grids                                                     
   RDEPT  =    2.174    core radius for aug-charge                                                  
                                                                                                    
   Atomic configuration                                                                             
   12 entries                                                                                       
     n  l   j            E        occ.                                                              
     1  0  0.50    -23034.1986   2.0000                                                             
     2  0  0.50     -3339.2387   2.0000                                                             
     2  1  1.50     -2992.3290   6.0000                                                             
     3  0  0.50      -596.7249   2.0000                                                             
     3  1  1.50      -482.7183   6.0000                                                             
     3  2  2.50      -300.5356  10.0000                                                             
     4  0  0.50       -82.4809   2.0000                                                             
     4  1  0.50       -50.4082   6.0000                                                             
     4  2  2.50        -5.9408   8.0000                                                             
     5  0  0.50        -4.2999   1.0000                                                             
     5  1  1.50        -1.3606   0.0000                                                             
     4  3  2.50        -1.3606   0.0000                                                             
   Description                                                                                      
     l       E           TYP  RCUT    TYP  RCUT                                                     
     2     -5.9407964     23  2.500                                                                 
     2     -7.3013790     23  2.500                                                                 
     0     -4.2998518     23  2.400                                                                 
     0      6.0533315     23  2.400                                                                 
     1     -4.0817478     23  2.700                                                                 
     1     27.2116520     23  2.700                                                                 
     3     -4.0817478     23  2.500                                                                 
  local pseudopotential read in
  partial core-charges read in
  partial kinetic energy density read in
  atomic valenz-charges read in
  non local Contribution for L=           2  read in
    real space projection operators read in
  non local Contribution for L=           2  read in
    real space projection operators read in
  non local Contribution for L=           0  read in
    real space projection operators read in
  non local Contribution for L=           0  read in
    real space projection operators read in
  non local Contribution for L=           1  read in
    real space projection operators read in
  non local Contribution for L=           1  read in
    real space projection operators read in
    PAW grid and wavefunctions read in
 
   number of l-projection  operators is LMAX  =           6
   number of lm-projection operators is LMMAX =          18
 
 POTCAR:    PAW_PBE C 08Apr2002                   
   VRHFIN =C: s2p2                                                                                  
   LEXCH  = PE                                                                                      
   EATOM  =   147.1560 eV,   10.8157 Ry                                                             
                                                                                                    
   TITEL  = PAW_PBE C 08Apr2002                                                                     
   LULTRA =        F    use ultrasoft PP ?                                                          
   IUNSCR =        1    unscreen: 0-lin 1-nonlin 2-no                                               
   RPACOR =    1.200    partial core radius                                                         
   POMASS =   12.011; ZVAL   =    4.000    mass and valenz                                          
   RCORE  =    1.500    outmost cutoff radius                                                       
   RWIGS  =    1.630; RWIGS  =    0.863    wigner-seitz radius (au A)                               
   ENMAX  =  400.000; ENMIN  =  300.000 eV                                                          
   ICORE  =        2    local potential                                                             
   LCOR   =        T    correct aug charges                                                         
   LPAW   =        T    paw PP                                                                      
   EAUG   =  644.873                                                                                
   DEXC   =    0.000                                                                                
   RMAX   =    1.529    core radius for proj-oper                                                   
   RAUG   =    1.300    factor for augmentation sphere                                              
   RDEP   =    1.501    radius for radial grids                                                     
   RDEPT  =    1.300    core radius for aug-charge                                                  
                                                                                                    
   Atomic configuration                                                                             
    4 entries                                                                                       
     n  l   j            E        occ.                                                              
     1  0  0.50      -273.3789   2.0000                                                             
     2  0  0.50       -13.7508   2.0000                                                             
     2  1  0.50        -5.2854   2.0000                                                             
     3  2  1.50        -5.4423   0.0000                                                             
   Description                                                                                      
     l       E           TYP  RCUT    TYP  RCUT                                                     
     0    -13.7508458     23  1.200                                                                 
     0     -8.2022199     23  1.200                                                                 
     1     -5.2854383     23  1.500                                                                 
     1     34.0145650     23  1.500                                                                 
     2     -5.4423304      7  1.500                                                                 
  local pseudopotential read in
  partial core-charges read in
  partial kinetic energy density read in
  atomic valenz-charges read in
  non local Contribution for L=           0  read in
    real space projection operators read in
  non local Contribution for L=           0  read in
    real space projection operators read in
  non local Contribution for L=           1  read in
    real space projection operators read in
  non local Contribution for L=           1  read in
    real space projection operators read in
    PAW grid and wavefunctions read in
 
   number of l-projection  operators is LMAX  =           4
   number of lm-projection operators is LMMAX =           8
 
 POTCAR:    PAW_PBE O 08Apr2002                   
   VRHFIN =O: s2p4                                                                                  
   LEXCH  = PE                                                                                      
   EATOM  =   432.3788 eV,   31.7789 Ry                                                             
                                                                                                    
   TITEL  = PAW_PBE O 08Apr2002                                                                     
   LULTRA =        F    use ultrasoft PP ?                                                          
   IUNSCR =        1    unscreen: 0-lin 1-nonlin 2-no                                               
   RPACOR =    1.200    partial core radius                                                         
   POMASS =   16.000; ZVAL   =    6.000    mass and valenz                                          
   RCORE  =    1.520    outmost cutoff radius                                                       
   RWIGS  =    1.550; RWIGS  =    0.820    wigner-seitz radius (au A)                               
   ENMAX  =  400.000; ENMIN  =  300.000 eV                                                          
   ICORE  =        2    local potential                                                             
   LCOR   =        T    correct aug charges                                                         
   LPAW   =        T    paw PP                                                                      
   EAUG   =  605.392                                                                                
   DEXC   =    0.000                                                                                
   RMAX   =    1.553    core radius for proj-oper                                                   
   RAUG   =    1.300    factor for augmentation sphere                                              
   RDEP   =    1.550    radius for radial grids                                                     
   RDEPT  =    1.329    core radius for aug-charge                                                  
                                                                                                    
   Atomic configuration                                                                             
    4 entries                                                                                       
     n  l   j            E        occ.                                                              
     1  0  0.50      -514.6923   2.0000                                                             
     2  0  0.50       -23.9615   2.0000                                                             
     2  1  0.50        -9.0305   4.0000                                                             
     3  2  1.50        -9.5241   0.0000                                                             
   Description                                                                                      
     l       E           TYP  RCUT    TYP  RCUT                                                     
     0    -23.9615318     23  1.200                                                                 
     0     -9.5240782     23  1.200                                                                 
     1     -9.0304911     23  1.520                                                                 
     1      8.1634956     23  1.520                                                                 
     2     -9.5240782      7  1.500                                                                 
  local pseudopotential read in
  partial core-charges read in
  partial kinetic energy density read in
  kinetic energy density of atom read in
  atomic valenz-charges read in
  non local Contribution for L=           0  read in
    real space projection operators read in
  non local Contribution for L=           0  read in
    real space projection operators read in
  non local Contribution for L=           1  read in
    real space projection operators read in
  non local Contribution for L=           1  read in
    real space projection operators read in
    PAW grid and wavefunctions read in
 
   number of l-projection  operators is LMAX  =           4
   number of lm-projection operators is LMMAX =           8
 
 Optimization of the real space projectors (new method)

 maximal supplied QI-value         = 15.12
 optimisation between [QCUT,QGAM] = [ 11.34, 22.83] = [ 36.00,145.93] Ry 
 Optimized for a Real-space Cutoff    1.43 Angstroem

   l    n(q)    QCUT    max X(q) W(low)/X(q) W(high)/X(q)  e(spline) 
   2      9    11.338    53.897    0.16E-03    0.20E-03    0.28E-06
   2      9    11.338    52.416    0.16E-03    0.20E-03    0.29E-06
   0     10    11.338   122.045    0.31E-04    0.76E-04    0.15E-06
   0     10    11.338    73.629    0.30E-04    0.72E-04    0.15E-06
   1      9    11.338    15.255    0.20E-03    0.19E-04    0.17E-06
   1      9    11.338     9.562    0.16E-03    0.15E-04    0.14E-06
 Optimization of the real space projectors (new method)

 maximal supplied QI-value         = 13.98
 optimisation between [QCUT,QGAM] = [ 11.33, 22.79] = [ 35.93,145.49] Ry 
 Optimized for a Real-space Cutoff    1.47 Angstroem

   l    n(q)    QCUT    max X(q) W(low)/X(q) W(high)/X(q)  e(spline) 
   2      9    11.327    59.645    0.31E-03    0.12E-04    0.28E-06
   2      9    11.327    58.460    0.31E-03    0.12E-04    0.29E-06
   0     10    11.327    97.683    0.32E-04    0.83E-04    0.31E-06
   0     10    11.327    53.223    0.30E-04    0.78E-04    0.29E-06
   1     10    11.327    13.596    0.49E-03    0.95E-03    0.55E-06
   1     10    11.327     7.885    0.36E-03    0.71E-03    0.41E-06
 Optimization of the real space projectors (new method)

 maximal supplied QI-value         = 25.13
 optimisation between [QCUT,QGAM] = [ 11.31, 22.87] = [ 35.82,146.48] Ry 
 Optimized for a Real-space Cutoff    1.00 Angstroem

   l    n(q)    QCUT    max X(q) W(low)/X(q) W(high)/X(q)  e(spline) 
   0      7    11.310   115.676    0.43E-03    0.13E-02    0.19E-06
   0      7    11.310    87.132    0.43E-03    0.13E-02    0.18E-06
   1      6    11.310     4.429    0.42E-03    0.74E-03    0.11E-06
   1      6    11.310     2.733    0.34E-03    0.55E-03    0.92E-07
 Optimization of the real space projectors (new method)

 maximal supplied QI-value         = 24.76
 optimisation between [QCUT,QGAM] = [ 11.39, 22.77] = [ 36.31,145.25] Ry 
 Optimized for a Real-space Cutoff    1.00 Angstroem

   l    n(q)    QCUT    max X(q) W(low)/X(q) W(high)/X(q)  e(spline) 
   0      7    11.387    20.381    0.39E-03    0.13E-02    0.15E-06
   0      7    11.387    15.268    0.42E-03    0.14E-02    0.17E-06
   1      6    11.387     5.964    0.41E-03    0.11E-02    0.17E-06
   1      6    11.387     5.382    0.39E-03    0.87E-03    0.15E-06
  PAW_PBE Ag 02Apr2005                  :
 energy of atom  1       EATOM=-1037.2675
 kinetic energy error for atom=    0.0052 (will be added to EATOM!!)
  PAW_PBE Rh 04Feb2005                  :
 energy of atom  2       EATOM= -616.4198
 kinetic energy error for atom=    0.0030 (will be added to EATOM!!)
  PAW_PBE C 08Apr2002                   :
 energy of atom  3       EATOM= -147.1560
 kinetic energy error for atom=    0.0076 (will be added to EATOM!!)
  PAW_PBE O 08Apr2002                   :
 energy of atom  4       EATOM= -432.3788
 kinetic energy error for atom=    0.0224 (will be added to EATOM!!)
 
 
 POSCAR: Ag-Rh-CO2
  positions in direct lattice
  velocities in cartesian coordinates
 exchange correlation table for  LEXCH =        8
   RHO(1)=    0.500       N(1)  =     2000
   RHO(2)=  100.500       N(2)  =     4000

 VTST: version 3.2, (02/03/18)

 CHAIN: initializing optimizer
 
 OPT: Using VASP Conjugate-Gradient optimizer
 CHAIN: Read ICHAIN            0
 
 POSCAR: Ag-Rh-CO2
  positions in direct lattice
  velocities in cartesian coordinates
 


--------------------------------------------------------------------------------------------------------


 ion  position               nearest neighbor table
   1  0.000  0.000  0.217-   2 2.93   8 2.93   7 2.93   6 2.93   4 2.93  12 2.93  16 2.93  10 2.93
                             3 2.93
   2  0.333  0.000  0.217-   1 2.93   8 2.93   9 2.93   3 2.93   4 2.93   5 2.93  10 2.93  17 2.93
                            11 2.93
   3  0.667  0.000  0.217-   9 2.93   2 2.93   5 2.93  11 2.93   7 2.93  18 2.93   1 2.93   6 2.93
                            12 2.93
   4  0.000  0.333  0.217-   5 2.93   6 2.93   2 2.93   1 2.93   7 2.93  13 2.93  15 2.93   9 2.93
                            10 2.93
   5  0.333  0.333  0.217-   4 2.93   3 2.93   7 2.93   2 2.93   8 2.93  14 2.93  13 2.93  11 2.93
                             6 2.93
   6  0.667  0.333  0.217-   4 2.93   9 2.93   1 2.93  15 2.93   8 2.93  12 2.93   3 2.93   5 2.93
                            14 2.93
   7  0.000  0.667  0.217-   8 2.93   1 2.93   5 2.93   3 2.93   4 2.93  16 2.93  18 2.93  13 2.93
                             9 2.93
   8  0.333  0.667  0.217-   7 2.93   1 2.93   2 2.93   9 2.93   5 2.93  16 2.93   6 2.93  17 2.93
                            14 2.93
   9  0.667  0.667  0.217-   3 2.93   2 2.93   8 2.93   6 2.93  17 2.93   4 2.93  15 2.93   7 2.93
                            18 2.93
  10  0.111  0.111  0.315-  20 2.90  19 2.93  26 2.93  12 2.93  16 2.93  15 2.93  17 2.93  13 2.93
                            11 2.93   2 2.93   1 2.93   4 2.93
  11  0.444  0.111  0.315-  21 2.90  20 2.90  27 2.92  14 2.93  17 2.93  18 2.93   3 2.93  12 2.93
                            13 2.93  10 2.93   5 2.93   2 2.93
  12  0.778  0.111  0.315-  21 2.90  25 2.93  19 2.93  10 2.93  16 2.93  18 2.93  15 2.93  11 2.93
                             1 2.93  14 2.93   6 2.93   3 2.93
  13  0.111  0.444  0.315-  20 2.90  23 2.90  22 2.92  15 2.93  14 2.93  18 2.93  10 2.93  11 2.93
                            16 2.93   4 2.93   5 2.93   7 2.93
  14  0.444  0.444  0.315-  23 2.90  21 2.90  24 2.92  13 2.93  11 2.93  16 2.93   5 2.93  12 2.93
                            17 2.93   8 2.93  15 2.93   6 2.93
  15  0.778  0.444  0.315-  24 2.92  22 2.92  19 2.92  13 2.93  10 2.93  12 2.93  17 2.93  18 2.93
                             4 2.93   6 2.93   9 2.93  14 2.93
  16  0.111  0.778  0.315-  23 2.90  26 2.93  25 2.93  18 2.93  12 2.93  10 2.93  14 2.93  17 2.93
                            13 2.93   7 2.93   8 2.93   1 2.93
  17  0.444  0.778  0.315-  27 2.92  24 2.92  26 2.92  11 2.93  10 2.93   9 2.93  18 2.93  15 2.93
                            16 2.93   2 2.93  14 2.93   8 2.93
  18  0.778  0.778  0.315-  22 2.92  27 2.92  25 2.92  16 2.93  12 2.93  13 2.93  11 2.93  17 2.93
                            15 2.93   7 2.93   3 2.93   9 2.93
  19  0.889  0.223  0.413-  28 2.91  15 2.92  10 2.93  12 2.93  24 2.93  22 2.93  32 2.93  31 2.93
                            20 2.93  21 2.93  26 2.94  25 2.94
  20  0.222  0.222  0.412-  36 2.78  13 2.90  11 2.90  10 2.90  31 2.91  29 2.91  21 2.92  23 2.92
                            27 2.93  22 2.93  19 2.93  26 2.93
  21  0.555  0.222  0.412-  36 2.78  11 2.90  14 2.90  12 2.90  30 2.91  32 2.91  20 2.92  23 2.92
                            27 2.93  24 2.93  25 2.93  19 2.93
  22  0.889  0.556  0.413-  35 2.90  18 2.92  15 2.92  13 2.92  33 2.92  31 2.92  25 2.93  19 2.93
                            24 2.93  27 2.93  23 2.93  20 2.93
  23  0.222  0.555  0.412-  36 2.78  14 2.90  13 2.90  16 2.90  34 2.91  33 2.91  21 2.92  20 2.92
                            22 2.93  24 2.93  26 2.93  25 2.93
  24  0.556  0.556  0.413-  35 2.90  15 2.92  17 2.92  14 2.92  32 2.92  34 2.92  19 2.93  26 2.93
                            27 2.93  22 2.93  23 2.93  21 2.93
  25  0.889  0.889  0.413-  28 2.91  18 2.92  16 2.93  12 2.93  22 2.93  27 2.93  33 2.93  30 2.93
                            23 2.93  21 2.93  26 2.94  19 2.94
  26  0.223  0.889  0.413-  28 2.91  17 2.92  16 2.93  10 2.93  27 2.93  24 2.93  34 2.93  29 2.93
                            23 2.93  20 2.93  25 2.94  19 2.94
  27  0.556  0.889  0.413-  35 2.90  17 2.92  18 2.92  11 2.92  29 2.92  30 2.92  26 2.93  25 2.93
                            24 2.93  22 2.93  20 2.93  21 2.93
  28  0.000  0.000  0.510-  26 2.91  25 2.91  19 2.91  29 2.95  34 2.95  33 2.95  32 2.95  31 2.95
                            30 2.95
  29  0.333  0.005  0.510-  31 2.88  30 2.89  36 2.89  20 2.91  27 2.92  26 2.93  28 2.95  35 2.95
                            34 3.02
  30  0.662  0.005  0.510-  32 2.88  29 2.89  36 2.89  21 2.91  27 2.92  25 2.93  28 2.95  35 2.95
                            33 3.02
  31  0.005  0.333  0.510-  29 2.88  33 2.89  36 2.89  20 2.91  22 2.92  19 2.93  28 2.95  35 2.95
                            32 3.02
  32  0.662  0.333  0.510-  30 2.88  34 2.89  36 2.89  21 2.91  24 2.92  19 2.93  28 2.95  35 2.95
                            31 3.02
  33  0.005  0.662  0.510-  34 2.88  31 2.89  36 2.89  23 2.91  22 2.92  25 2.93  28 2.95  35 2.95
                            30 3.02
  34  0.333  0.662  0.510-  33 2.88  32 2.89  36 2.89  23 2.91  24 2.92  26 2.93  28 2.95  35 2.95
                            29 3.02
  35  0.667  0.667  0.510-  24 2.90  27 2.90  22 2.90  30 2.95  32 2.95  29 2.95  34 2.95  31 2.95
                            33 2.95
  36  0.333  0.333  0.502-  37 2.04  21 2.78  20 2.78  23 2.78  31 2.89  30 2.89  33 2.89  29 2.89
                            34 2.89  32 2.89
  37  0.333  0.334  0.586-  39 1.24  38 1.24  36 2.04
  38  0.201  0.333  0.604-  37 1.24
  39  0.466  0.333  0.604-  37 1.24
 
  LATTYP: Found a hexagonal cell.
 ALAT       =     8.7913665772
 C/A-ratio  =     2.7703738524
  
  Lattice vectors:
  
 A1 = (  -4.3956832886,  -7.6135467898,   0.0000000000)
 A2 = (   8.7913665771,   0.0000000000,   0.0000000000)
 A3 = (   0.0000000000,   0.0000000000,  24.3553720923)


Analysis of symmetry for initial positions (statically):
=====================================================================
 Subroutine PRICEL returns:
 Original cell was already a primitive cell.
 

 Routine SETGRP: Setting up the symmetry group for a 
 hexagonal supercell.


 Subroutine GETGRP returns: Found  1 space group operations
 (whereof  1 operations were pure point group operations)
 out of a pool of 24 trial point group operations.


The static configuration has the point symmetry C_1 .


Analysis of symmetry for dynamics (positions and initial velocities):
=====================================================================
 Subroutine PRICEL returns:
 Original cell was already a primitive cell.
 

 Routine SETGRP: Setting up the symmetry group for a 
 hexagonal supercell.


 Subroutine GETGRP returns: Found  1 space group operations
 (whereof  1 operations were pure point group operations)
 out of a pool of 24 trial point group operations.


The dynamic configuration has the point symmetry C_1 .


Analysis of constrained symmetry for selective dynamics:
=====================================================================
 Subroutine PRICEL returns:
 Original cell was already a primitive cell.
 

 Routine SETGRP: Setting up the symmetry group for a 
 hexagonal supercell.


 Subroutine GETGRP returns: Found  1 space group operations
 (whereof  1 operations were pure point group operations)
 out of a pool of 24 trial point group operations.


The constrained configuration has the point symmetry C_1 .


 Subroutine INISYM returns: Found  1 space group operations
 (whereof  1 operations are pure point group operations),
 and found     1 'primitive' translations


----------------------------------------------------------------------------------------

                                     Primitive cell                                     

  volume of cell :    1630.1898

  direct lattice vectors                    reciprocal lattice vectors
     8.791366577  0.000000000  0.000000000     0.113747958 -0.065672414  0.000000000
     4.395683289  7.613546790  0.000000000     0.000000000  0.131344829  0.000000000
     0.000000000  0.000000000 24.355372092     0.000000000  0.000000000  0.041058703

  length of vectors
     8.791366577  8.791366577 24.355372092     0.131344829  0.131344829  0.041058703

  position of ions in fractional coordinates (direct lattice)
     0.000000000  0.000000000  0.216879796
     0.333333313  0.000000000  0.216879796
     0.666666627  0.000000000  0.216879796
     1.000000000  0.333333343  0.216879796
     0.333333313  0.333333343  0.216879796
     0.666666687  0.333333343  0.216879796
     1.000000000  0.666666687  0.216879796
     0.333333313  0.666666687  0.216879796
     0.666666627  0.666666687  0.216879796
     0.111111104  0.111111112  0.315121252
     0.444444448  0.111111112  0.315121252
     0.777777791  0.111111112  0.315121252
     0.111111097  0.444444448  0.315121252
     0.444444418  0.444444448  0.315121252
     0.777777791  0.444444448  0.315121252
     0.111111104  0.777777791  0.315121252
     0.444444448  0.777777791  0.315121252
     0.777777791  0.777777791  0.315121252
     0.888609664  0.222780689  0.413071043
     0.222430726  0.222430741  0.411917465
     0.555138488  0.222430741  0.411917465
     0.888744334  0.555627863  0.412723593
     0.222430741  0.555138548  0.411917465
     0.555627863  0.555627863  0.412723593
     0.888609664  0.888609664  0.413071043
     0.222780659  0.888609664  0.413071043
     0.555627803  0.888744334  0.412723593
     0.000000000  0.000000000  0.510027295
     0.333144422  0.005093285  0.510299139
     0.661762233  0.005093285  0.510299139
     0.005093285  0.333144452  0.510299139
     0.661762293  0.333144452  0.510299139
     0.005093285  0.661762293  0.510299139
     0.333144422  0.661762293  0.510299139
     0.666666627  0.666666687  0.509666969
     0.333333313  0.333333343  0.502429262
     0.333201991  0.333922188  0.586166595
     0.200954945  0.333354740  0.603554379
     0.465898060  0.333306286  0.603676134

  ion indices of the primitive-cell ions
   primitive index   ion index
                 1           1
                 2           2
                 3           3
                 4           4
                 5           5
                 6           6
                 7           7
                 8           8
                 9           9
                10          10
                11          11
                12          12
                13          13
                14          14
                15          15
                16          16
                17          17
                18          18
                19          19
                20          20
                21          21
                22          22
                23          23
                24          24
                25          25
                26          26
                27          27
                28          28
                29          29
                30          30
                31          31
                32          32
                33          33
                34          34
                35          35
                36          36
                37          37
                38          38
                39          39

----------------------------------------------------------------------------------------

 
 
 KPOINTS: Automatic mesh                          

Automatic generation of k-mesh.
 Grid dimensions read from file:
 generate k-points for:    8    8    1

 Generating k-lattice:

  Cartesian coordinates                     Fractional coordinates (reciprocal lattice)
     0.014218495 -0.008209052  0.000000000     0.125000000 -0.000000000  0.000000000
     0.000000000  0.016418104  0.000000000     0.000000000  0.125000000  0.000000000
     0.000000000  0.000000000  0.041058703     0.000000000  0.000000000  1.000000000

  Length of vectors
     0.016418104  0.016418104  0.041058703

  Shift w.r.t. Gamma in fractional coordinates (k-lattice)
     0.000000000  0.000000000  0.000000000

 TETIRR: Found    192 inequivalent tetrahedra from      384
 
 Subroutine IBZKPT returns following result:
 ===========================================
 
 Found     34 irreducible k-points:
 
 Following reciprocal coordinates:
            Coordinates               Weight
  0.000000  0.000000  0.000000      1.000000
  0.125000  0.000000  0.000000      2.000000
  0.125000  0.125000  0.000000      2.000000
  0.000000  0.125000  0.000000      2.000000
  0.250000  0.000000  0.000000      2.000000
  0.250000  0.250000  0.000000      2.000000
  0.000000  0.250000  0.000000      2.000000
  0.375000  0.000000  0.000000      2.000000
  0.375000  0.375000  0.000000      2.000000
  0.000000  0.375000  0.000000      2.000000
  0.500000  0.000000  0.000000      1.000000
  0.500000  0.500000  0.000000      1.000000
  0.000000  0.500000  0.000000      1.000000
  0.250000  0.125000  0.000000      2.000000
  0.125000  0.250000  0.000000      2.000000
 -0.125000  0.125000  0.000000      2.000000
  0.375000  0.125000  0.000000      2.000000
  0.250000  0.375000  0.000000      2.000000
 -0.125000  0.250000  0.000000      2.000000
  0.250000 -0.125000  0.000000      2.000000
 -0.125000 -0.375000  0.000000      2.000000
 -0.375000 -0.250000  0.000000      2.000000
  0.500000  0.125000  0.000000      2.000000
  0.375000  0.500000  0.000000      2.000000
 -0.125000  0.375000  0.000000      2.000000
  0.375000 -0.125000  0.000000      2.000000
 -0.125000  0.500000  0.000000      2.000000
  0.500000 -0.375000  0.000000      2.000000
  0.500000  0.250000  0.000000      2.000000
  0.250000  0.500000  0.000000      2.000000
 -0.250000  0.250000  0.000000      2.000000
 -0.375000  0.250000  0.000000      2.000000
  0.375000 -0.375000  0.000000      2.000000
 -0.250000  0.375000  0.000000      2.000000
 
 Following cartesian coordinates:
            Coordinates               Weight
  0.000000  0.000000  0.000000      1.000000
  0.014218 -0.008209  0.000000      2.000000
  0.014218  0.008209  0.000000      2.000000
  0.000000  0.016418  0.000000      2.000000
  0.028437 -0.016418  0.000000      2.000000
  0.028437  0.016418  0.000000      2.000000
  0.000000  0.032836  0.000000      2.000000
  0.042655 -0.024627  0.000000      2.000000
  0.042655  0.024627  0.000000      2.000000
  0.000000  0.049254  0.000000      2.000000
  0.056874 -0.032836  0.000000      1.000000
  0.056874  0.032836  0.000000      1.000000
  0.000000  0.065672  0.000000      1.000000
  0.028437 -0.000000  0.000000      2.000000
  0.014218  0.024627  0.000000      2.000000
 -0.014218  0.024627  0.000000      2.000000
  0.042655 -0.008209  0.000000      2.000000
  0.028437  0.032836  0.000000      2.000000
 -0.014218  0.041045  0.000000      2.000000
  0.028437 -0.032836  0.000000      2.000000
 -0.014218 -0.041045  0.000000      2.000000
 -0.042655 -0.008209  0.000000      2.000000
  0.056874 -0.016418  0.000000      2.000000
  0.042655  0.041045  0.000000      2.000000
 -0.014218  0.057463  0.000000      2.000000
  0.042655 -0.041045  0.000000      2.000000
 -0.014218  0.073881  0.000000      2.000000
  0.056874 -0.082091  0.000000      2.000000
  0.056874 -0.000000  0.000000      2.000000
  0.028437  0.049254  0.000000      2.000000
 -0.028437  0.049254  0.000000      2.000000
 -0.042655  0.057463  0.000000      2.000000
  0.042655 -0.073881  0.000000      2.000000
 -0.028437  0.065672  0.000000      2.000000
 


--------------------------------------------------------------------------------------------------------




 Dimension of arrays:
   k-points           NKPTS =     34   k-points in BZ     NKDIM =     34   number of bands    NBANDS=    252
   number of dos      NEDOS =    301   number of ions     NIONS =     39
   non local maximal  LDIM  =      6   non local SUM 2l+1 LMDIM =     18
   total plane-waves  NPLWV = 322560
   max r-space proj   IRMAX =   2706   max aug-charges    IRDMAX=  11444
   dimension x,y,z NGX =    48 NGY =   48 NGZ =  140
   dimension x,y,z NGXF=    96 NGYF=   96 NGZF=  280
   support grid    NGXF=    96 NGYF=   96 NGZF=  280
   ions per type =              35   1   1   2
   NGX,Y,Z   is equivalent  to a cutoff of   9.08,  9.08,  9.56 a.u.
   NGXF,Y,Z  is equivalent  to a cutoff of  18.15, 18.15, 19.11 a.u.

 SYSTEM =  unknown system                          
 POSCAR =  Ag-Rh-CO2                               

 Startparameter for this run:
   NWRITE =      2    write-flag & timer
   PREC   = normal    normal or accurate (medium, high low for compatibility)
   ISTART =      0    job   : 0-new  1-cont  2-samecut
   ICHARG =     11    charge: 1-file 2-atom 10-const
   ISPIN  =      1    spin polarized calculation?
   LNONCOLLINEAR =      F non collinear calculations
   LSORBIT =      F    spin-orbit coupling
   INIWAV =      1    electr: 0-lowe 1-rand  2-diag
   LASPH  =      F    aspherical Exc in radial PAW
   METAGGA=      F    non-selfconsistent MetaGGA calc.

 Electronic Relaxation 1
   ENCUT  =  500.0 eV  36.75 Ry    6.06 a.u.  16.03 16.03 44.41*2*pi/ulx,y,z
   ENINI  =  500.0     initial cutoff
   ENAUG  =  644.9 eV  augmentation charge cutoff
   NELM   =    150;   NELMIN=  2; NELMDL= -5     # of ELM steps 
   EDIFF  = 0.1E-04   stopping-criterion for ELM
   LREAL  =      T    real-space projection
   NLSPLINE    = F    spline interpolate recip. space projectors
   LCOMPAT=      F    compatible to vasp.4.4
   GGA_COMPAT  = T    GGA compatible to vasp.4.4-vasp.4.6
   LMAXPAW     = -100 max onsite density
   LMAXMIX     =    2 max onsite mixed and CHGCAR
   VOSKOWN=      0    Vosko Wilk Nusair interpolation
   ROPT   =   -0.00050  -0.00050  -0.00050  -0.00050
 Ionic relaxation
   EDIFFG = -.1E-01   stopping-criterion for IOM
   NSW    =      0    number of steps for IOM
   NBLOCK =      1;   KBLOCK =      1    inner block; outer block 
   IBRION =     -1    ionic relax: 0-MD 1-quasi-New 2-CG
   NFREE  =      1    steps in history (QN), initial steepest desc. (CG)
   ISIF   =      2    stress and relaxation
   IWAVPR =     10    prediction:  0-non 1-charg 2-wave 3-comb
   ISYM   =      2    0-nonsym 1-usesym 2-fastsym
   LCORR  =      T    Harris-Foulkes like correction to forces

   POTIM  = 0.5000    time-step for ionic-motion
   TEIN   =    0.0    initial temperature
   TEBEG  =    0.0;   TEEND  =   0.0 temperature during run
   SMASS  =  -3.00    Nose mass-parameter (am)
   estimated Nose-frequenzy (Omega)   =  0.10E-29 period in steps = 0.13E+47 mass=  -0.177E-26a.u.
   SCALEE = 1.0000    scale energy and forces
   NPACO  =    256;   APACO  = 16.0  distance and # of slots for P.C.
   PSTRESS=    0.0 pullay stress

  Mass of Ions in am
   POMASS = 107.87102.91 12.01 16.00
  Ionic Valenz
   ZVAL   =  11.00  9.00  4.00  6.00
  Atomic Wigner-Seitz radii
   RWIGS  =  -1.00 -1.00 -1.00 -1.00
  virtual crystal weights 
   VCA    =   1.00  1.00  1.00  1.00
   NELECT =     410.0000    total number of electrons
   NUPDOWN=      -1.0000    fix difference up-down

 DOS related values:
   EMIN   =  10.00;   EMAX   =-10.00  energy-range for DOS
   EFERMI =   0.00
   ISMEAR =    -5;   SIGMA  =   0.10  broadening in eV -4-tet -1-fermi 0-gaus

 Electronic relaxation 2 (details)
   IALGO  =     68    algorithm
   LDIAG  =      T    sub-space diagonalisation (order eigenvalues)
   LSUBROT=      F    optimize rotation matrix (better conditioning)
   TURBO    =      0    0=normal 1=particle mesh
   IRESTART =      0    0=no restart 2=restart with 2 vectors
   NREBOOT  =      0    no. of reboots
   NMIN     =      0    reboot dimension
   EREF     =   0.00    reference energy to select bands
   IMIX   =      4    mixing-type and parameters
     AMIX     =   0.40;   BMIX     =  1.00
     AMIX_MAG =   1.60;   BMIX_MAG =  1.00
     AMIN     =   0.10
     WC   =   100.;   INIMIX=   1;  MIXPRE=   1;  MAXMIX= -45

 Intra band minimization:
   WEIMIN = 0.0000     energy-eigenvalue tresh-hold
   EBREAK =  0.99E-08  absolut break condition
   DEPER  =   0.30     relativ break condition  

   TIME   =   0.40     timestep for ELM

  volume/ion in A,a.u.               =      41.80       282.08
  Fermi-wavevector in a.u.,A,eV,Ry     =   1.033372  1.952790 14.529088  1.067858
  Thomas-Fermi vector in A             =   2.167616
 
 Write flags
   LWAVE        =      F    write WAVECAR
   LDOWNSAMPLE  =      F    k-point downsampling of WAVECAR
   LCHARG       =      F    write CHGCAR
   LVTOT        =      F    write LOCPOT, total local potential
   LVHAR        =      F    write LOCPOT, Hartree potential only
   LELF         =      F    write electronic localiz. function (ELF)
   LORBIT       =     10    0 simple, 1 ext, 2 COOP (PROOUT), +10 PAW based schemes


 Dipole corrections
   LMONO  =      F    monopole corrections only (constant potential shift)
   LDIPOL =      F    correct potential (dipole corrections)
   IDIPOL =      0    1-x, 2-y, 3-z, 4-all directions 
   EPSILON=  1.0000000 bulk dielectric constant

 Exchange correlation treatment:
   GGA     =    --    GGA type
   LEXCH   =     8    internal setting for exchange type
   VOSKOWN=      0    Vosko Wilk Nusair interpolation
   LHFCALC =     F    Hartree Fock is set to
   LHFONE  =     F    Hartree Fock one center treatment
   AEXX    =    0.0000 exact exchange contribution

 Linear response parameters
   LEPSILON=     F    determine dielectric tensor
   LRPA    =     F    only Hartree local field effects (RPA)
   LNABLA  =     F    use nabla operator in PAW spheres
   LVEL    =     F    velocity operator in full k-point grid
   LINTERFAST=   F  fast interpolation
   KINTER  =     0    interpolate to denser k-point grid
   CSHIFT  =0.1000    complex shift for real part using Kramers Kronig
   OMEGAMAX=  -1.0    maximum frequency
   DEG_THRESHOLD= 0.2000000E-02 threshold for treating states as degnerate
   RTIME   =   -0.100 relaxation time in fs
  (WPLASMAI=    0.000 imaginary part of plasma frequency in eV, 0.658/RTIME)
   DFIELD  = 0.0000000 0.0000000 0.0000000 field for delta impulse in time
 
 Orbital magnetization related:
   ORBITALMAG=     F  switch on orbital magnetization
   LCHIMAG   =     F  perturbation theory with respect to B field
   DQ        =  0.001000  dq finite difference perturbation B field
   LLRAUG    =     F  two centre corrections for induced B field



--------------------------------------------------------------------------------------------------------


 Static calculation
 charge density and potential remain constant during run
 non-spin polarized calculation
 RMM-DIIS sequential band-by-band and
  variant of blocked Davidson during initial phase
 perform sub-space diagonalisation
    before iterative eigenvector-optimisation
 no mixing
 using additional bands           47
 real space projection scheme for non local part
 use partial core corrections
 calculate Harris-corrections to forces 
   (improved forces if not selfconsistent)
 use gradient corrections 
 WARNING: stress and forces are not correct
  (second derivative of E(xc) not defined)
 use of overlap-Matrix (Vanderbilt PP)
 Fermi weights with tetrahedron method with Bloechl corrections


--------------------------------------------------------------------------------------------------------


  energy-cutoff  :      500.00
  volume of cell :     1630.19
      direct lattice vectors                 reciprocal lattice vectors
     8.791366577  0.000000000  0.000000000     0.113747958 -0.065672414  0.000000000
     4.395683289  7.613546790  0.000000000     0.000000000  0.131344829  0.000000000
     0.000000000  0.000000000 24.355372092     0.000000000  0.000000000  0.041058703

  length of vectors
     8.791366577  8.791366577 24.355372092     0.131344829  0.131344829  0.041058703


 
 k-points in units of 2pi/SCALE and weight: Automatic mesh                          
   0.00000000  0.00000000  0.00000000       0.016
   0.01421849 -0.00820905  0.00000000       0.031
   0.01421849  0.00820905  0.00000000       0.031
   0.00000000  0.01641810  0.00000000       0.031
   0.02843699 -0.01641810  0.00000000       0.031
   0.02843699  0.01641810  0.00000000       0.031
   0.00000000  0.03283621  0.00000000       0.031
   0.04265548 -0.02462716  0.00000000       0.031
   0.04265548  0.02462716  0.00000000       0.031
   0.00000000  0.04925431  0.00000000       0.031
   0.05687398 -0.03283621  0.00000000       0.016
   0.05687398  0.03283621  0.00000000       0.016
   0.00000000  0.06567241  0.00000000       0.016
   0.02843699 -0.00000000  0.00000000       0.031
   0.01421849  0.02462716  0.00000000       0.031
  -0.01421849  0.02462716  0.00000000       0.031
   0.04265548 -0.00820905  0.00000000       0.031
   0.02843699  0.03283621  0.00000000       0.031
  -0.01421849  0.04104526  0.00000000       0.031
   0.02843699 -0.03283621  0.00000000       0.031
  -0.01421849 -0.04104526  0.00000000       0.031
  -0.04265548 -0.00820905  0.00000000       0.031
   0.05687398 -0.01641810  0.00000000       0.031
   0.04265548  0.04104526  0.00000000       0.031
  -0.01421849  0.05746336  0.00000000       0.031
   0.04265548 -0.04104526  0.00000000       0.031
  -0.01421849  0.07388147  0.00000000       0.031
   0.05687398 -0.08209052  0.00000000       0.031
   0.05687398 -0.00000000  0.00000000       0.031
   0.02843699  0.04925431  0.00000000       0.031
  -0.02843699  0.04925431  0.00000000       0.031
  -0.04265548  0.05746336  0.00000000       0.031
   0.04265548 -0.07388147  0.00000000       0.031
  -0.02843699  0.06567241  0.00000000       0.031
 
 k-points in reciprocal lattice and weights: Automatic mesh                          
   0.00000000  0.00000000  0.00000000       0.016
   0.12500000  0.00000000  0.00000000       0.031
   0.12500000  0.12500000  0.00000000       0.031
   0.00000000  0.12500000  0.00000000       0.031
   0.25000000  0.00000000  0.00000000       0.031
   0.25000000  0.25000000  0.00000000       0.031
   0.00000000  0.25000000  0.00000000       0.031
   0.37500000  0.00000000  0.00000000       0.031
   0.37500000  0.37500000  0.00000000       0.031
   0.00000000  0.37500000  0.00000000       0.031
   0.50000000  0.00000000  0.00000000       0.016
   0.50000000  0.50000000  0.00000000       0.016
   0.00000000  0.50000000  0.00000000       0.016
   0.25000000  0.12500000  0.00000000       0.031
   0.12500000  0.25000000  0.00000000       0.031
  -0.12500000  0.12500000  0.00000000       0.031
   0.37500000  0.12500000  0.00000000       0.031
   0.25000000  0.37500000  0.00000000       0.031
  -0.12500000  0.25000000  0.00000000       0.031
   0.25000000 -0.12500000  0.00000000       0.031
  -0.12500000 -0.37500000  0.00000000       0.031
  -0.37500000 -0.25000000  0.00000000       0.031
   0.50000000  0.12500000  0.00000000       0.031
   0.37500000  0.50000000  0.00000000       0.031
  -0.12500000  0.37500000  0.00000000       0.031
   0.37500000 -0.12500000  0.00000000       0.031
  -0.12500000  0.50000000  0.00000000       0.031
   0.50000000 -0.37500000  0.00000000       0.031
   0.50000000  0.25000000  0.00000000       0.031
   0.25000000  0.50000000  0.00000000       0.031
  -0.25000000  0.25000000  0.00000000       0.031
  -0.37500000  0.25000000  0.00000000       0.031
   0.37500000 -0.37500000  0.00000000       0.031
  -0.25000000  0.37500000  0.00000000       0.031
 
 position of ions in fractional coordinates (direct lattice) 
   0.00000000  0.00000000  0.21687980
   0.33333331  0.00000000  0.21687980
   0.66666663  0.00000000  0.21687980
   0.00000000  0.33333334  0.21687980
   0.33333331  0.33333334  0.21687980
   0.66666669  0.33333334  0.21687980
   0.00000000  0.66666669  0.21687980
   0.33333331  0.66666669  0.21687980
   0.66666663  0.66666669  0.21687980
   0.11111110  0.11111111  0.31512125
   0.44444445  0.11111111  0.31512125
   0.77777779  0.11111111  0.31512125
   0.11111110  0.44444445  0.31512125
   0.44444442  0.44444445  0.31512125
   0.77777779  0.44444445  0.31512125
   0.11111110  0.77777779  0.31512125
   0.44444445  0.77777779  0.31512125
   0.77777779  0.77777779  0.31512125
   0.88860966  0.22278069  0.41307104
   0.22243073  0.22243074  0.41191746
   0.55513849  0.22243074  0.41191746
   0.88874433  0.55562786  0.41272359
   0.22243074  0.55513855  0.41191746
   0.55562786  0.55562786  0.41272359
   0.88860966  0.88860966  0.41307104
   0.22278066  0.88860966  0.41307104
   0.55562780  0.88874433  0.41272359
   0.00000000  0.00000000  0.51002729
   0.33314442  0.00509329  0.51029914
   0.66176223  0.00509329  0.51029914
   0.00509329  0.33314445  0.51029914
   0.66176229  0.33314445  0.51029914
   0.00509329  0.66176229  0.51029914
   0.33314442  0.66176229  0.51029914
   0.66666663  0.66666669  0.50966697
   0.33333331  0.33333334  0.50242926
   0.33320199  0.33392219  0.58616659
   0.20095495  0.33335474  0.60355438
   0.46589806  0.33330629  0.60367613
 
 position of ions in cartesian coordinates  (Angst):
   0.00000000  0.00000000  5.28218814
   2.93045535  0.00000000  5.28218814
   5.86091070  0.00000000  5.28218814
   1.46522781  2.53784900  5.28218814
   4.39568315  2.53784900  5.28218814
   7.32613904  2.53784900  5.28218814
   2.93045562  5.07569801  5.28218814
   5.86091096  5.07569801  5.28218814
   8.79136632  5.07569801  5.28218814
   1.46522770  0.84594965  7.67489535
   4.39568332  0.84594965  7.67489535
   7.32613893  0.84594965  7.67489535
   2.93045542  3.38379860  7.67489535
   5.86091083  3.38379860  7.67489535
   8.79136671  3.38379860  7.67489535
   4.39568328  5.92164760  7.67489535
   7.32613890  5.92164760  7.67489535
  10.25659451  5.92164760  7.67489535
   8.79136665  1.69615120 10.06049895
   2.93320514  1.69348685 10.03240313
   5.85816104  1.69348685 10.03240313
  10.25564135  4.23029873 10.05203667
   4.39568342  4.22657331 10.03240313
   7.32709233  4.23029873 10.05203667
  11.71813994  6.76547125 10.06049895
   5.86459309  6.76547125 10.06049895
   8.79136631  6.76649657 10.05203667
   0.00000000  0.00000000 12.42190454
   2.95118320  0.03877797 12.42852542
   5.84018285  0.03877797 12.42852542
   1.50917444  2.53641087 12.42852542
   7.28219240  2.53641087 12.42852542
   2.95367439  5.03835818 12.42852542
   5.83769219  5.03835818 12.42852542
   8.79136632  5.07569801 12.41312868
   4.39568315  2.53784900 12.23685164
   4.39711703  2.54233220 14.27630553
   3.23199045  2.53801191 14.69979148
   5.56098950  2.53764300 14.70275687
 


--------------------------------------------------------------------------------------------------------


 k-point   1 :   0.0000 0.0000 0.0000  plane waves:   41243
 k-point   2 :   0.1250 0.0000 0.0000  plane waves:   41326
 k-point   3 :   0.1250 0.1250 0.0000  plane waves:   41326
 k-point   4 :   0.0000 0.1250 0.0000  plane waves:   41326
 k-point   5 :   0.2500 0.0000 0.0000  plane waves:   41336
 k-point   6 :   0.2500 0.2500 0.0000  plane waves:   41336
 k-point   7 :   0.0000 0.2500 0.0000  plane waves:   41336
 k-point   8 :   0.3750 0.0000 0.0000  plane waves:   41410
 k-point   9 :   0.3750 0.3750 0.0000  plane waves:   41410
 k-point  10 :   0.0000 0.3750 0.0000  plane waves:   41410
 k-point  11 :   0.5000 0.0000 0.0000  plane waves:   41412
 k-point  12 :   0.5000 0.5000 0.0000  plane waves:   41412
 k-point  13 :   0.0000 0.5000 0.0000  plane waves:   41412
 k-point  14 :   0.2500 0.1250 0.0000  plane waves:   41324
 k-point  15 :   0.1250 0.2500 0.0000  plane waves:   41324
 k-point  16 :  -0.1250 0.1250 0.0000  plane waves:   41324
 k-point  17 :   0.3750 0.1250 0.0000  plane waves:   41412
 k-point  18 :   0.2500 0.3750 0.0000  plane waves:   41412
 k-point  19 :  -0.1250 0.2500 0.0000  plane waves:   41412
 k-point  20 :   0.2500-0.1250 0.0000  plane waves:   41412
 k-point  21 :  -0.1250-0.3750 0.0000  plane waves:   41412
 k-point  22 :  -0.3750-0.2500 0.0000  plane waves:   41412
 k-point  23 :   0.5000 0.1250 0.0000  plane waves:   41392
 k-point  24 :   0.3750 0.5000 0.0000  plane waves:   41392
 k-point  25 :  -0.1250 0.3750 0.0000  plane waves:   41392
 k-point  26 :   0.3750-0.1250 0.0000  plane waves:   41392
 k-point  27 :  -0.1250 0.5000 0.0000  plane waves:   41392
 k-point  28 :   0.5000-0.3750 0.0000  plane waves:   41392
 k-point  29 :   0.5000 0.2500 0.0000  plane waves:   41436
 k-point  30 :   0.2500 0.5000 0.0000  plane waves:   41436
 k-point  31 :  -0.2500 0.2500 0.0000  plane waves:   41436
 k-point  32 :  -0.3750 0.2500 0.0000  plane waves:   41434
 k-point  33 :   0.3750-0.3750 0.0000  plane waves:   41434
 k-point  34 :  -0.2500 0.3750 0.0000  plane waves:   41434

 maximum and minimum number of plane-waves per node :     41436    41243

 maximum number of plane-waves:     41436
 maximum index in each direction: 
   IXMAX=   16   IYMAX=   16   IZMAX=   44
   IXMIN=  -16   IYMIN=  -16   IZMIN=  -44


 serial   3D FFT for wavefunctions
 parallel 3D FFT for charge:
    minimum data exchange during FFTs selected (reduces bandwidth)


 total amount of memory used by VASP MPI-rank0   277791. kBytes
=======================================================================

   base      :      30000. kBytes
   nonlr-proj:      15474. kBytes
   fftplans  :       4808. kBytes
   grid      :      20723. kBytes
   one-center:        606. kBytes
   wavefun   :     206180. kBytes
 
     INWAV:  cpu time    0.0000: real time    0.0001
 initial charge density was supplied:
 number of electron     410.0000057 magnetization 
 keeping initial charge density in first step


--------------------------------------------------------------------------------------------------------


 Maximum index for non-local projection operator         2585
 Maximum index for augmentation-charges          717 (set IRDMAX)


--------------------------------------------------------------------------------------------------------


 First call to EWALD:  gamma=   0.151
 Maximum number of real-space cells 4x 4x 2
 Maximum number of reciprocal cells 2x 2x 5

    FEWALD:  cpu time    0.0013: real time    0.0014


--------------------------------------- Iteration      1(   1)  ---------------------------------------


    POTLOK:  cpu time    0.0594: real time    0.0598
    SETDIJ:  cpu time    0.0047: real time    0.0047
     EDDAV:  cpu time   26.6476: real time   26.6507
 BZINTS: Fermi energy:    9.453027;  410.000000 electrons
         Band energy: 0.102873E+04;  BLOECHL correction:   -0.021757
       DOS:  cpu time    0.0601: real time    0.0602
    --------------------------------------------
      LOOP:  cpu time   26.7718: real time   26.7755

 eigenvalue-minimisations  : 17136
 total energy-change (2. order) : 0.2545558E+04  (-0.1889021E+05)
 number of electron     410.0000057 magnetization 
 augmentation part      410.0000057 magnetization 

 Free energy of the ion-electron system (eV)
  ---------------------------------------------------
  alpha Z        PSCENC =       712.98133162
  Ewald energy   TEWEN  =    130882.12559769
  -Hartree energ DENC   =   -169248.42202808
  -exchange      EXHF   =         0.00000000
  -V(xc)+E(xc)   XCENC  =      -336.07123207
  PAW double counting   =     40459.70254632   -38885.94993262
  entropy T*S    EENTRO =         0.00000000
  eigenvalues    EBANDS =      1028.73324066
  atomic energy  EATOM  =     37932.45894704
  Solvation  Ediel_sol  =         0.00000000
  ---------------------------------------------------
  free energy    TOTEN  =      2545.55847055 eV

  energy without entropy =     2545.55847055  energy(sigma->0) =     2545.55847055


--------------------------------------------------------------------------------------------------------




--------------------------------------- Iteration      1(   2)  ---------------------------------------


     EDDAV:  cpu time   27.9323: real time   27.9338
 BZINTS: Fermi energy:    0.937799;  410.000000 electrons
         Band energy:-0.152109E+04;  BLOECHL correction:   -0.042522
       DOS:  cpu time    0.0588: real time    0.0588
    --------------------------------------------
      LOOP:  cpu time   27.9911: real time   27.9926

 eigenvalue-minimisations  : 18088
 total energy-change (2. order) :-0.2549819E+04  (-0.2445420E+04)
 number of electron     410.0000057 magnetization 
 augmentation part      410.0000057 magnetization 

 Free energy of the ion-electron system (eV)
  ---------------------------------------------------
  alpha Z        PSCENC =       712.98133162
  Ewald energy   TEWEN  =    130882.12559769
  -Hartree energ DENC   =   -169248.42202808
  -exchange      EXHF   =         0.00000000
  -V(xc)+E(xc)   XCENC  =      -336.07123207
  PAW double counting   =     40459.70254632   -38885.94993262
  entropy T*S    EENTRO =         0.00000000
  eigenvalues    EBANDS =     -1521.08539646
  atomic energy  EATOM  =     37932.45894704
  Solvation  Ediel_sol  =         0.00000000
  ---------------------------------------------------
  free energy    TOTEN  =        -4.26016657 eV

  energy without entropy =       -4.26016657  energy(sigma->0) =       -4.26016657


--------------------------------------------------------------------------------------------------------




--------------------------------------- Iteration      1(   3)  ---------------------------------------


     EDDAV:  cpu time   31.9947: real time   31.9962
 BZINTS: Fermi energy:    0.238867;  410.000000 electrons
         Band energy:-0.163259E+04;  BLOECHL correction:   -0.059124
       DOS:  cpu time    0.0587: real time    0.0587
    --------------------------------------------
      LOOP:  cpu time   32.0533: real time   32.0549

 eigenvalue-minimisations  : 21336
 total energy-change (2. order) :-0.1115066E+03  (-0.1092305E+03)
 number of electron     410.0000057 magnetization 
 augmentation part      410.0000057 magnetization 

 Free energy of the ion-electron system (eV)
  ---------------------------------------------------
  alpha Z        PSCENC =       712.98133162
  Ewald energy   TEWEN  =    130882.12559769
  -Hartree energ DENC   =   -169248.42202808
  -exchange      EXHF   =         0.00000000
  -V(xc)+E(xc)   XCENC  =      -336.07123207
  PAW double counting   =     40459.70254632   -38885.94993262
  entropy T*S    EENTRO =         0.00000000
  eigenvalues    EBANDS =     -1632.59194880
  atomic energy  EATOM  =     37932.45894704
  Solvation  Ediel_sol  =         0.00000000
  ---------------------------------------------------
  free energy    TOTEN  =      -115.76671891 eV

  energy without entropy =     -115.76671891  energy(sigma->0) =     -115.76671891


--------------------------------------------------------------------------------------------------------




--------------------------------------- Iteration      1(   4)  ---------------------------------------


     EDDAV:  cpu time   29.2803: real time   29.2817
 BZINTS: Fermi energy:    0.222409;  410.000000 electrons
         Band energy:-0.163483E+04;  BLOECHL correction:   -0.060179
       DOS:  cpu time    0.0596: real time    0.0596
    --------------------------------------------
      LOOP:  cpu time   29.3400: real time   29.3414

 eigenvalue-minimisations  : 19124
 total energy-change (2. order) :-0.2238036E+01  (-0.2225602E+01)
 number of electron     410.0000057 magnetization 
 augmentation part      410.0000057 magnetization 

 Free energy of the ion-electron system (eV)
  ---------------------------------------------------
  alpha Z        PSCENC =       712.98133162
  Ewald energy   TEWEN  =    130882.12559769
  -Hartree energ DENC   =   -169248.42202808
  -exchange      EXHF   =         0.00000000
  -V(xc)+E(xc)   XCENC  =      -336.07123207
  PAW double counting   =     40459.70254632   -38885.94993262
  entropy T*S    EENTRO =         0.00000000
  eigenvalues    EBANDS =     -1634.82998524
  atomic energy  EATOM  =     37932.45894704
  Solvation  Ediel_sol  =         0.00000000
  ---------------------------------------------------
  free energy    TOTEN  =      -118.00475535 eV

  energy without entropy =     -118.00475535  energy(sigma->0) =     -118.00475535


--------------------------------------------------------------------------------------------------------




--------------------------------------- Iteration      1(   5)  ---------------------------------------


     EDDAV:  cpu time   30.4283: real time   30.4327
 BZINTS: Fermi energy:    0.222061;  410.000000 electrons
         Band energy:-0.163488E+04;  BLOECHL correction:   -0.060179
       DOS:  cpu time    0.0584: real time    0.0584
    --------------------------------------------
      LOOP:  cpu time   30.4867: real time   30.4912

 eigenvalue-minimisations  : 20104
 total energy-change (2. order) :-0.5131616E-01  (-0.5129516E-01)
 number of electron     410.0000057 magnetization 
 augmentation part      410.0000057 magnetization 

 Free energy of the ion-electron system (eV)
  ---------------------------------------------------
  alpha Z        PSCENC =       712.98133162
  Ewald energy   TEWEN  =    130882.12559769
  -Hartree energ DENC   =   -169248.42202808
  -exchange      EXHF   =         0.00000000
  -V(xc)+E(xc)   XCENC  =      -336.07123207
  PAW double counting   =     40459.70254632   -38885.94993262
  entropy T*S    EENTRO =         0.00000000
  eigenvalues    EBANDS =     -1634.88130140
  atomic energy  EATOM  =     37932.45894704
  Solvation  Ediel_sol  =         0.00000000
  ---------------------------------------------------
  free energy    TOTEN  =      -118.05607151 eV

  energy without entropy =     -118.05607151  energy(sigma->0) =     -118.05607151


--------------------------------------------------------------------------------------------------------




--------------------------------------- Iteration      1(   6)  ---------------------------------------


    EDDIAG:  cpu time    5.2384: real time    5.2390
  RMM-DIIS:  cpu time   15.9777: real time   15.9785
    ORTHCH:  cpu time    0.9644: real time    0.9644
 BZINTS: Fermi energy:    0.222059;  410.000000 electrons
         Band energy:-0.163488E+04;  BLOECHL correction:   -0.060179
       DOS:  cpu time    0.0585: real time    0.0585
    --------------------------------------------
      LOOP:  cpu time   22.2391: real time   22.2405

 eigenvalue-minimisations  : 17818
 total energy-change (2. order) :-0.1098341E-02  (-0.1097970E-02)
 number of electron     410.0000057 magnetization 
 augmentation part      410.0000057 magnetization 

 Free energy of the ion-electron system (eV)
  ---------------------------------------------------
  alpha Z        PSCENC =       712.98133162
  Ewald energy   TEWEN  =    130882.12559769
  -Hartree energ DENC   =   -169248.42202808
  -exchange      EXHF   =         0.00000000
  -V(xc)+E(xc)   XCENC  =      -336.07123207
  PAW double counting   =     40459.70254632   -38885.94993262
  entropy T*S    EENTRO =         0.00000000
  eigenvalues    EBANDS =     -1634.88239974
  atomic energy  EATOM  =     37932.45894704
  Solvation  Ediel_sol  =         0.00000000
  ---------------------------------------------------
  free energy    TOTEN  =      -118.05716985 eV

  energy without entropy =     -118.05716985  energy(sigma->0) =     -118.05716985


--------------------------------------------------------------------------------------------------------




--------------------------------------- Iteration      1(   7)  ---------------------------------------


    EDDIAG:  cpu time    5.2368: real time    5.2371
  RMM-DIIS:  cpu time   21.7666: real time   21.7676
    ORTHCH:  cpu time    0.9629: real time    0.9629
 BZINTS: Fermi energy:    0.222058;  410.000000 electrons
         Band energy:-0.163488E+04;  BLOECHL correction:   -0.060180
       DOS:  cpu time    0.0596: real time    0.0597
    --------------------------------------------
      LOOP:  cpu time   28.0259: real time   28.0272

 eigenvalue-minimisations  : 25181
 total energy-change (2. order) :-0.4054688E-03  (-0.4051750E-03)
 number of electron     410.0000057 magnetization 
 augmentation part      410.0000057 magnetization 

 Free energy of the ion-electron system (eV)
  ---------------------------------------------------
  alpha Z        PSCENC =       712.98133162
  Ewald energy   TEWEN  =    130882.12559769
  -Hartree energ DENC   =   -169248.42202808
  -exchange      EXHF   =         0.00000000
  -V(xc)+E(xc)   XCENC  =      -336.07123207
  PAW double counting   =     40459.70254632   -38885.94993262
  entropy T*S    EENTRO =         0.00000000
  eigenvalues    EBANDS =     -1634.88280521
  atomic energy  EATOM  =     37932.45894704
  Solvation  Ediel_sol  =         0.00000000
  ---------------------------------------------------
  free energy    TOTEN  =      -118.05757532 eV

  energy without entropy =     -118.05757532  energy(sigma->0) =     -118.05757532


--------------------------------------------------------------------------------------------------------




--------------------------------------- Iteration      1(   8)  ---------------------------------------


    EDDIAG:  cpu time    5.2340: real time    5.2344
  RMM-DIIS:  cpu time   16.8573: real time   16.8581
    ORTHCH:  cpu time    0.9655: real time    0.9655
 BZINTS: Fermi energy:    0.222058;  410.000000 electrons
         Band energy:-0.163488E+04;  BLOECHL correction:   -0.060180
       DOS:  cpu time    0.0583: real time    0.0583
    --------------------------------------------
      LOOP:  cpu time   23.1150: real time   23.1163

 eigenvalue-minimisations  : 18767
 total energy-change (2. order) :-0.1817424E-04  (-0.2127017E-04)
 number of electron     410.0000057 magnetization 
 augmentation part      410.0000057 magnetization 

 Free energy of the ion-electron system (eV)
  ---------------------------------------------------
  alpha Z        PSCENC =       712.98133162
  Ewald energy   TEWEN  =    130882.12559769
  -Hartree energ DENC   =   -169248.42202808
  -exchange      EXHF   =         0.00000000
  -V(xc)+E(xc)   XCENC  =      -336.07123207
  PAW double counting   =     40459.70254632   -38885.94993262
  entropy T*S    EENTRO =         0.00000000
  eigenvalues    EBANDS =     -1634.88282338
  atomic energy  EATOM  =     37932.45894704
  Solvation  Ediel_sol  =         0.00000000
  ---------------------------------------------------
  free energy    TOTEN  =      -118.05759349 eV

  energy without entropy =     -118.05759349  energy(sigma->0) =     -118.05759349


--------------------------------------------------------------------------------------------------------




--------------------------------------- Iteration      1(   9)  ---------------------------------------


    EDDIAG:  cpu time    5.2407: real time    5.2413
  RMM-DIIS:  cpu time   12.9778: real time   12.9783
    ORTHCH:  cpu time    0.9623: real time    0.9624
 BZINTS: Fermi energy:    0.222058;  410.000000 electrons
         Band energy:-0.163488E+04;  BLOECHL correction:   -0.060180
       DOS:  cpu time    0.0570: real time    0.0570
    --------------------------------------------
      LOOP:  cpu time   19.2379: real time   19.2391

 eigenvalue-minimisations  : 13009
 total energy-change (2. order) :-0.4052126E-05  (-0.4168565E-05)
 number of electron     410.0000057 magnetization 
 augmentation part      410.0000057 magnetization 

 Free energy of the ion-electron system (eV)
  ---------------------------------------------------
  alpha Z        PSCENC =       712.98133162
  Ewald energy   TEWEN  =    130882.12559769
  -Hartree energ DENC   =   -169248.42202808
  -exchange      EXHF   =         0.00000000
  -V(xc)+E(xc)   XCENC  =      -336.07123207
  PAW double counting   =     40459.70254632   -38885.94993262
  entropy T*S    EENTRO =         0.00000000
  eigenvalues    EBANDS =     -1634.88282743
  atomic energy  EATOM  =     37932.45894704
  Solvation  Ediel_sol  =         0.00000000
  ---------------------------------------------------
  free energy    TOTEN  =      -118.05759754 eV

  energy without entropy =     -118.05759754  energy(sigma->0) =     -118.05759754


--------------------------------------------------------------------------------------------------------




 average (electrostatic) potential at core
  the test charge radii are     1.1249  1.1806  0.6991  0.7215
  (the norm of the test charge is              1.0000)
       1 -78.6551       2 -78.6428       3 -78.6427       4 -78.6352       5 -78.6284
       6 -78.6349       7 -78.6405       8 -78.6403       9 -78.6568      10 -78.8649
      11 -78.8658      12 -78.8646      13 -78.8673      14 -78.8669      15 -78.8708
      16 -78.8739      17 -78.8740      18 -78.8740      19 -78.8487      20 -78.8164
      21 -78.8161      22 -78.8699      23 -78.8218      24 -78.8697      25 -78.8505
      26 -78.8508      27 -78.8621      28 -78.6106      29 -78.5510      30 -78.5506
      31 -78.5341      32 -78.5335      33 -78.5481      34 -78.5478      35 -78.6172
      36 -71.9143      37 -56.9316      38 -75.8944      39 -75.8903
 
 
 
 E-fermi :   0.2221     XC(G=0):  -5.5325     alpha+bet : -5.2385

 Fermi energy:         0.2220577544

 k-point     1 :       0.0000    0.0000    0.0000
  band No.  band energies     occupation 
      1     -22.1342      2.00000
      2     -20.4522      2.00000
      3      -8.0922      2.00000
      4      -6.9242      2.00000
      5      -6.6174      2.00000
      6      -6.1568      2.00000
      7      -6.0455      2.00000
      8      -5.9559      2.00000
      9      -5.7014      2.00000
     10      -5.5886      2.00000
     11      -5.5872      2.00000
     12      -5.5870      2.00000
     13      -5.5808      2.00000
     14      -5.5788      2.00000
     15      -5.5772      2.00000
     16      -5.5550      2.00000
     17      -5.5422      2.00000
     18      -5.5406      2.00000
     19      -5.5350      2.00000
     20      -5.5349      2.00000
     21      -5.5322      2.00000
     22      -5.4770      2.00000
     23      -5.3731      2.00000
     24      -5.3728      2.00000
     25      -5.3710      2.00000
     26      -5.3688      2.00000
     27      -5.3678      2.00000
     28      -5.3652      2.00000
     29      -5.1887      2.00000
     30      -5.1876      2.00000
     31      -5.1821      2.00000
     32      -5.1608      2.00000
     33      -5.1555      2.00000
     34      -5.1533      2.00000
     35      -5.1515      2.00000
     36      -5.1503      2.00000
     37      -5.1274      2.00000
     38      -5.1262      2.00000
     39      -5.1198      2.00000
     40      -5.1188      2.00000
     41      -5.0180      2.00000
     42      -5.0175      2.00000
     43      -5.0120      2.00000
     44      -4.9211      2.00000
     45      -4.9101      2.00000
     46      -4.8939      2.00000
     47      -4.8029      2.00000
     48      -4.8026      2.00000
     49      -4.7880      2.00000
     50      -4.7861      2.00000
     51      -4.7744      2.00000
     52      -4.7670      2.00000
     53      -4.7663      2.00000
     54      -4.7604      2.00000
     55      -4.7195      2.00000
     56      -4.7095      2.00000
     57      -4.6371      2.00000
     58      -4.6345      2.00000
     59      -4.6018      2.00000
     60      -4.5924      2.00000
     61      -4.3986      2.00000
     62      -4.3984      2.00000
     63      -4.3953      2.00000
     64      -4.3937      2.00000
     65      -4.3853      2.00000
     66      -4.3840      2.00000
     67      -4.3655      2.00000
     68      -4.3650      2.00000
     69      -4.3574      2.00000
     70      -4.3313      2.00000
     71      -4.3312      2.00000
     72      -4.2387      2.00000
     73      -4.2356      2.00000
     74      -4.2191      2.00000
     75      -4.2177      2.00000
     76      -4.2081      2.00000
     77      -4.2051      2.00000
     78      -4.1993      2.00000
     79      -4.1938      2.00000
     80      -4.1778      2.00000
     81      -4.1702      2.00000
     82      -4.1619      2.00000
     83      -4.1615      2.00000
     84      -4.1562      2.00000
     85      -4.1519      2.00000
     86      -4.1269      2.00000
     87      -4.1191      2.00000
     88      -4.1167      2.00000
     89      -4.0896      2.00000
     90      -4.0893      2.00000
     91      -4.0094      2.00000
[...]
  0.000   0.000   0.000   0.000   0.000   0.000   0.000   0.000   0.000   0.000   1.000   0.000   0.000   0.000   0.000   0.000
  0.000   0.000   0.000   0.000   0.000   0.000   0.000   0.000   0.000   0.000   0.000   0.000   0.000   0.000   0.000   0.000
  0.000   0.000   0.000   0.000   0.000   0.000   0.000   0.000   0.000   0.000   0.000   0.000   0.000   0.000   0.000   0.000
  0.000   0.000   0.000   0.000   0.000   0.000   0.000   0.000   0.000   0.000   0.000   0.000   0.000   0.000   0.000   0.000
  0.000   0.000   0.000   0.000   0.000   0.000   0.000   0.000   0.000   0.000   0.000   0.000   0.000   0.000   0.000   0.000
  0.000   0.000   0.000   0.000   0.000   0.000   0.000   0.000   0.000   0.000   0.000   0.000   0.000   0.000   0.000   0.000
  0.000   0.000   0.000   0.000   0.000   0.000   0.000   0.000   0.000   0.000   0.000   0.000   0.000   0.000   0.000   0.000
  0.000   0.000   0.000   0.000   0.000   0.000   0.000   0.000   0.000   0.000   0.000   0.000   0.000   0.000   0.000   0.000


------------------------ aborting loop because EDIFF is reached ----------------------------------------





 total charge

# of ion       s       p       d       tot
------------------------------------------
    1        0.416   0.203   9.178   9.797
    2        0.417   0.203   9.177   9.797
    3        0.417   0.203   9.177   9.797
    4        0.417   0.203   9.178   9.797
    5        0.417   0.202   9.177   9.797
    6        0.417   0.203   9.178   9.797
    7        0.418   0.202   9.177   9.797
    8        0.418   0.202   9.177   9.797
    9        0.415   0.203   9.178   9.795
   10        0.406   0.271   9.164   9.841
   11        0.407   0.269   9.166   9.842
   12        0.406   0.271   9.164   9.841
   13        0.407   0.269   9.166   9.842
   14        0.407   0.269   9.166   9.842
   15        0.404   0.270   9.165   9.839
   16        0.404   0.270   9.165   9.839
   17        0.403   0.269   9.166   9.838
   18        0.403   0.269   9.166   9.838
   19        0.399   0.270   9.166   9.836
   20        0.415   0.287   9.159   9.861
   21        0.415   0.287   9.159   9.861
   22        0.398   0.273   9.167   9.838
   23        0.415   0.283   9.161   9.860
   24        0.398   0.273   9.167   9.838
   25        0.402   0.267   9.168   9.838
   26        0.402   0.267   9.168   9.838
   27        0.399   0.272   9.168   9.839
   28        0.418   0.194   9.183   9.795
   29        0.411   0.202   9.182   9.796
   30        0.411   0.202   9.182   9.796
   31        0.392   0.205   9.185   9.783
   32        0.392   0.205   9.185   9.782
   33        0.412   0.202   9.182   9.796
   34        0.412   0.202   9.182   9.796
   35        0.410   0.198   9.183   9.791
   36        0.396   0.316   7.638   8.350
   37        0.887   1.691   0.000   2.578
   38        1.598   3.485   0.000   5.083
   39        1.598   3.485   0.000   5.083
--------------------------------------------------
tot         18.776  17.323 328.666 364.766
 
    CHARGE:  cpu time    1.2470: real time    1.2471
    FORLOC:  cpu time    0.0124: real time    0.0124
    FORNL :  cpu time    5.4514: real time    5.4519
    STRESS:  cpu time   16.3747: real time   16.3755
    FORCOR:  cpu time    0.0509: real time    0.0509
    FORHAR:  cpu time    0.0197: real time    0.0198
    OFIELD:  cpu time    0.0003: real time    0.0003

  FORCE on cell =-STRESS in cart. coord.  units (eV):
  Direction    XX          YY          ZZ          XY          YZ          ZX
  --------------------------------------------------------------------------------------
  Alpha Z   712.98133   712.98133   712.98133
  Ewald  154095.25120153377.69062************    -0.10610    -0.16727     0.78911
  Hartree164139.91237163772.89702************    -0.05412     0.01900     0.38207
  E(xc)   -2146.10892 -2148.01638 -2152.50598    -0.00047     0.00834     0.00118
  Local  ************************328520.22419     0.15366     0.20856    -1.11375
  n-local  -378.67159  -372.83156  -377.98780     0.00427     0.03986     0.01800
  augment  3290.72060  3292.96458  3300.41473    -0.00100    -0.04664    -0.00492
  Kinetic  5176.73928  5223.93636  5238.92468     0.01000    -0.16727    -0.06408
  Fock        0.00000     0.00000     0.00000     0.00000     0.00000     0.00000
  -------------------------------------------------------------------------------------
  Total      -6.98454    -6.37488    -0.29598     0.00623    -0.10542     0.00761
  in kB      -6.86452    -6.26534    -0.29090     0.00612    -0.10361     0.00748
  external pressure =       -4.47 kB  Pullay stress =        0.00 kB


 VOLUME and BASIS-vectors are now :
 -----------------------------------------------------------------------------
  energy-cutoff  :      500.00
  volume of cell :     1630.19
      direct lattice vectors                 reciprocal lattice vectors
     8.791366577  0.000000000  0.000000000     0.113747958 -0.065672414  0.000000000
     4.395683289  7.613546790  0.000000000     0.000000000  0.131344829  0.000000000
     0.000000000  0.000000000 24.355372092     0.000000000  0.000000000  0.041058703

  length of vectors
     8.791366577  8.791366577 24.355372092     0.131344829  0.131344829  0.041058703


 FORCES acting on ions
    electron-ion (+dipol)            ewald-force                    non-local-force                 convergence-correction
 -----------------------------------------------------------------------------------------------
   0.121E-02 0.209E+00 0.272E+04   -.841E-04 -.426E-01 -.272E+04   0.444E-03 -.735E-01 -.204E+01   -.163E-02 -.876E-01 -.375E+00
   0.406E+00 0.756E+00 0.272E+04   -.463E+00 -.613E+00 -.272E+04   -.151E-01 -.475E-01 -.176E+01   0.763E-01 -.833E-01 -.275E+00
   -.406E+00 0.746E+00 0.272E+04   0.463E+00 -.613E+00 -.272E+04   0.151E-01 -.482E-01 -.176E+01   -.757E-01 -.730E-01 -.269E+00
   0.629E+00 0.399E-01 0.272E+04   -.726E+00 -.117E+00 -.272E+04   0.451E-01 0.144E-01 -.173E+01   0.538E-01 0.609E-01 -.282E+00
   -.157E-01 -.633E-01 0.272E+04   0.103E-03 -.398E-03 -.272E+04   -.182E-02 0.294E-01 -.163E+01   0.175E-01 0.290E-01 -.213E+00
   -.618E+00 0.351E-01 0.272E+04   0.726E+00 -.117E+00 -.272E+04   -.457E-01 0.147E-01 -.173E+01   -.641E-01 0.653E-01 -.276E+00
   0.279E+00 -.766E+00 0.272E+04   -.262E+00 0.730E+00 -.272E+04   0.760E-03 0.232E-01 -.170E+01   -.152E-01 0.618E-02 -.237E+00
   -.287E+00 -.758E+00 0.272E+04   0.262E+00 0.730E+00 -.272E+04   -.116E-02 0.228E-01 -.170E+01   0.233E-01 -.148E-02 -.238E+00
   0.129E-01 -.215E+00 0.272E+04   0.653E-04 0.430E-01 -.272E+04   0.254E-02 0.697E-01 -.190E+01   -.157E-01 0.958E-01 -.258E+00
   0.497E+01 0.337E+01 0.984E+03   -.500E+01 -.323E+01 -.984E+03   -.160E+00 -.139E+00 -.725E+00   0.170E+00 0.357E-02 -.555E-01
   -.145E-01 0.599E+01 0.992E+03   0.282E-04 -.595E+01 -.991E+03   -.342E-02 -.402E-01 -.729E+00   0.182E-01 -.568E-02 -.517E-01
   -.496E+01 0.337E+01 0.984E+03   0.500E+01 -.323E+01 -.984E+03   0.162E+00 -.141E+00 -.727E+00   -.182E+00 0.883E-02 -.521E-01
   0.472E+01 -.304E+01 0.992E+03   -.484E+01 0.303E+01 -.992E+03   0.204E-01 0.694E-02 -.613E+00   0.797E-01 0.106E-01 0.105E-01
   -.474E+01 -.303E+01 0.992E+03   0.484E+01 0.303E+01 -.992E+03   -.249E-01 0.772E-02 -.613E+00   -.564E-01 0.232E-02 0.556E-02
   0.981E-02 -.190E-01 0.984E+03   -.185E-03 -.215E+00 -.984E+03   0.594E-04 0.749E-01 -.733E+00   -.973E-02 0.138E+00 -.165E-01
   0.198E-02 -.592E+01 0.984E+03   0.136E-03 0.588E+01 -.983E+03   -.239E-03 0.182E+00 -.630E+00   -.176E-02 -.139E+00 -.751E-01
   0.189E+00 -.354E+00 0.984E+03   -.374E+00 0.343E+00 -.983E+03   0.792E-01 0.156E-01 -.622E+00   0.889E-01 -.802E-02 -.105E+00
   -.192E+00 -.367E+00 0.984E+03   0.374E+00 0.343E+00 -.983E+03   -.787E-01 0.160E-01 -.622E+00   -.868E-01 0.398E-02 -.980E-01
   0.162E-01 0.468E+01 -.787E+03   0.328E-03 -.488E+01 0.786E+03   0.224E-02 0.843E-01 0.668E+00   -.188E-01 0.116E+00 0.204E+00
   0.194E+02 0.131E+02 -.742E+03   -.188E+02 -.128E+02 0.743E+03   -.739E+00 -.423E+00 -.800E+00   0.111E+00 0.129E+00 0.180E+00
   -.194E+02 0.131E+02 -.742E+03   0.188E+02 -.128E+02 0.743E+03   0.741E+00 -.424E+00 -.805E+00   -.100E+00 0.124E+00 0.176E+00
   0.104E+02 -.826E+01 -.776E+03   -.106E+02 0.849E+01 0.776E+03   0.217E+00 -.185E+00 0.557E+00   0.629E-01 -.499E-01 0.105E+00
   0.303E-02 -.251E+02 -.745E+03   0.128E-02 0.246E+02 0.745E+03   0.301E-02 0.766E+00 -.564E+00   -.723E-02 -.157E+00 0.189E+00
   -.104E+02 -.825E+01 -.776E+03   0.106E+02 0.849E+01 0.776E+03   -.218E+00 -.185E+00 0.557E+00   -.613E-01 -.600E-01 0.107E+00
   -.290E+01 -.704E+00 -.791E+03   0.298E+01 0.816E+00 0.790E+03   -.340E-01 -.368E-01 0.682E+00   -.529E-01 -.690E-01 0.203E+00
   0.291E+01 -.697E+00 -.791E+03   -.298E+01 0.816E+00 0.790E+03   0.381E-01 -.366E-01 0.682E+00   0.312E-01 -.765E-01 0.204E+00
   -.713E-02 0.124E+02 -.779E+03   -.456E-03 -.127E+02 0.779E+03   0.437E-03 0.226E+00 0.631E+00   0.701E-02 0.181E-01 0.647E-01
   -.290E-02 0.108E+02 -.257E+04   0.109E-01 -.105E+02 0.256E+04   -.771E-03 -.153E+00 0.215E+01   -.722E-02 -.951E-01 0.297E+00
   0.354E+02 0.835E+02 -.253E+04   -.348E+02 -.834E+02 0.253E+04   -.596E+00 -.345E+00 0.234E+01   -.660E-02 0.268E-01 0.248E+00
   -.354E+02 0.835E+02 -.253E+04   0.348E+02 -.834E+02 0.253E+04   0.593E+00 -.348E+00 0.234E+01   0.268E-01 0.336E-01 0.242E+00
   0.970E+02 -.159E+00 -.250E+04   -.973E+02 0.265E+00 0.249E+04   0.126E-01 -.106E+00 0.289E+01   0.136E+00 0.122E-01 0.193E+00
   -.970E+02 -.170E+00 -.250E+04   0.972E+02 0.275E+00 0.249E+04   -.945E-02 -.107E+00 0.289E+01   -.125E+00 0.127E-01 0.189E+00
   0.358E+02 -.834E+02 -.253E+04   -.355E+02 0.831E+02 0.253E+04   -.347E+00 0.425E+00 0.233E+01   0.586E-01 -.242E-01 0.211E+00
   -.358E+02 -.834E+02 -.253E+04   0.355E+02 0.831E+02 0.253E+04   0.343E+00 0.429E+00 0.233E+01   -.362E-01 -.295E-01 0.214E+00
   0.101E-01 -.107E+02 -.256E+04   0.456E-02 0.105E+02 0.256E+04   0.220E-02 0.144E+00 0.223E+01   -.170E-01 0.343E-01 0.247E+00
   -.146E-01 0.231E+00 -.179E+04   0.270E-01 -.256E+00 0.179E+04   -.173E-01 -.642E-01 -.411E+00   0.549E-02 0.342E-01 0.584E-01
   -.135E+00 -.159E+01 -.101E+04   0.151E+00 0.164E+01 0.101E+04   -.128E-01 -.543E-01 0.482E+01   0.137E-02 0.102E-02 0.760E-01
   0.233E+03 0.490E+00 -.169E+04   -.281E+03 -.661E+00 0.171E+04   0.477E+02 0.171E+00 -.201E+02   -.266E-01 -.212E-02 0.266E-01
   -.233E+03 0.561E+00 -.169E+04   0.281E+03 -.751E+00 0.171E+04   -.477E+02 0.191E+00 -.202E+02   0.276E-01 0.253E-02 0.193E-01
 -----------------------------------------------------------------------------------------------
   -.186E-01 0.360E-01 0.360E+02   0.568E-13 0.349E-13 0.148E-10   -.477E-02 -.467E-01 -.367E+02   0.293E-01 0.753E-02 0.591E+00
 
 
 POSITION                                       TOTAL-FORCE (eV/Angst)
 -----------------------------------------------------------------------------------
      0.00000      0.00000      5.28219        -0.000213      0.005705      0.048963
      2.93046      0.00000      5.28219         0.003611      0.011642      0.037650
      5.86091      0.00000      5.28219        -0.003885      0.011637      0.037485
      1.46523      2.53785      5.28219         0.001125     -0.001179      0.028825
      4.39568      2.53785      5.28219        -0.000058     -0.005191      0.000683
      7.32614      2.53785      5.28219        -0.001331     -0.001318      0.028726
      2.93046      5.07570      5.28219         0.002059     -0.006434      0.035028
      5.86091      5.07570      5.28219        -0.002397     -0.006329      0.035080
      8.79137      5.07570      5.28219        -0.000364     -0.006052      0.033504
      1.46523      0.84595      7.67490        -0.011643      0.005233     -0.001293
      4.39568      0.84595      7.67490         0.000188     -0.009740     -0.070947
      7.32614      0.84595      7.67490         0.011123      0.005450     -0.000944
      2.93046      3.38380      7.67490        -0.020705      0.012732     -0.069239
      5.86091      3.38380      7.67490         0.020907      0.012633     -0.069447
      8.79137      3.38380      7.67490        -0.000203     -0.020646     -0.012054
      4.39568      5.92165      7.67490        -0.000036      0.002651     -0.000482
      7.32614      5.92165      7.67490        -0.016720     -0.003601     -0.000384
     10.25659      5.92165      7.67490         0.016318     -0.003537     -0.000392
      8.79137      1.69615     10.06050        -0.000227     -0.002635      0.064045
      2.93321      1.69349     10.03240        -0.076268     -0.045149     -0.083262
      5.85816      1.69349     10.03240         0.074450     -0.044068     -0.081731
     10.25564      4.23030     10.05204         0.011722     -0.007121      0.015705
      4.39568      4.22657     10.03240        -0.000072      0.113011     -0.113090
      7.32709      4.23030     10.05204        -0.011828     -0.006939      0.015702
     11.71814      6.76547     10.06050        -0.003877      0.006576      0.011037
      5.86459      6.76547     10.06050         0.003252      0.006728      0.011123
      8.79137      6.76650     10.05204        -0.000291      0.032067      0.003672
      0.00000      0.00000     12.42190        -0.000135     -0.014328     -0.006608
      2.95118      0.03878     12.42853        -0.025998     -0.167055     -0.072161
      5.84018      0.03878     12.42853         0.026088     -0.166456     -0.071666
      1.50917      2.53641     12.42853        -0.127288      0.011333      0.050631
      7.28219      2.53641     12.42853         0.126529      0.011265      0.051319
      2.95367      5.03836     12.42853        -0.040738      0.153770     -0.067556
      5.83769      5.03836     12.42853         0.040771      0.153135     -0.067161
      8.79137      5.07570     12.41313        -0.000295      0.017652     -0.009897
      4.39568      2.53785     12.23685         0.000470     -0.055133      0.316375
      4.39712      2.54233     14.27631         0.004370     -0.000500     -0.052046
      3.23199      2.53801     14.69979        -0.009414     -0.002025      0.016171
      5.56099      2.53764     14.70276         0.011004      0.002216      0.008636
 -----------------------------------------------------------------------------------
    total drift:                                0.005978     -0.003128     -0.139654


--------------------------------------------------------------------------------------------------------



  FREE ENERGIE OF THE ION-ELECTRON SYSTEM (eV)
  ---------------------------------------------------
  free  energy   TOTEN  =      -118.05759754 eV

  energy  without entropy=     -118.05759754  energy(sigma->0) =     -118.05759754
 


--------------------------------------------------------------------------------------------------------


    POTLOK:  cpu time    0.0485: real time    0.0485


--------------------------------------------------------------------------------------------------------


 stress matrix after NEB project (eV)
     -6.98454      0.00623      0.00761
      0.00623     -6.37488     -0.10542
      0.00761     -0.10542     -0.29598
  FORCES: max atom, RMS     0.052232    0.009175
  FORCE total and by dimension    0.057297    0.052046
  Stress total and by dimension    9.462184    6.984537
     LOOP+:  cpu time  262.5895: real time  262.6131
 -----------------------------------------------------------------------------
|                                                                             |
|           W    W    AA    RRRRR   N    N  II  N    N   GGGG   !!!           |
|           W    W   A  A   R    R  NN   N  II  NN   N  G    G  !!!           |
|           W    W  A    A  R    R  N N  N  II  N N  N  G       !!!           |
|           W WW W  AAAAAA  RRRRR   N  N N  II  N  N N  G  GGG   !            |
|           WW  WW  A    A  R   R   N   NN  II  N   NN  G    G                |
|           W    W  A    A  R    R  N    N  II  N    N   GGGG   !!!           |
|                                                                             |
|     Tetrahedron method does not include variations of the Fermi             |
|     occupations, so forces and stress will be inaccurate. We suggest        |
|     using a different smearing scheme ISMEAR = 1 or 2 for metals in         |
|     relaxations.                                                            |
|                                                                             |
 -----------------------------------------------------------------------------

    4ORBIT:  cpu time    0.0000: real time    0.0000



 total charge

# of ion       s       p       d       tot
------------------------------------------
    1        0.416   0.203   9.178   9.797
    2        0.417   0.203   9.177   9.797
    3        0.417   0.203   9.177   9.797
    4        0.417   0.203   9.178   9.797
    5        0.417   0.202   9.177   9.797
    6        0.417   0.203   9.178   9.797
    7        0.418   0.202   9.177   9.797
    8        0.418   0.202   9.177   9.797
    9        0.415   0.203   9.178   9.795
   10        0.406   0.271   9.164   9.841
   11        0.407   0.269   9.166   9.842
   12        0.406   0.271   9.164   9.841
   13        0.407   0.269   9.166   9.842
   14        0.407   0.269   9.166   9.842
   15        0.404   0.270   9.165   9.839
   16        0.404   0.270   9.165   9.839
   17        0.403   0.269   9.166   9.838
   18        0.403   0.269   9.166   9.838
   19        0.399   0.270   9.166   9.836
   20        0.415   0.287   9.159   9.861
   21        0.415   0.287   9.159   9.861
   22        0.398   0.273   9.167   9.838
   23        0.415   0.283   9.161   9.860
   24        0.398   0.273   9.167   9.838
   25        0.402   0.267   9.168   9.838
   26        0.402   0.267   9.168   9.838
   27        0.399   0.272   9.168   9.839
   28        0.418   0.194   9.183   9.795
   29        0.411   0.202   9.182   9.796
   30        0.411   0.202   9.182   9.796
   31        0.392   0.205   9.185   9.783
   32        0.392   0.205   9.185   9.782
   33        0.412   0.202   9.182   9.796
   34        0.412   0.202   9.182   9.796
   35        0.410   0.198   9.183   9.791
   36        0.396   0.316   7.638   8.350
   37        0.887   1.691   0.000   2.578
   38        1.598   3.485   0.000   5.083
   39        1.598   3.485   0.000   5.083
--------------------------------------------------
tot         18.776  17.323 328.666 364.766
 
 BZINTS: Fermi energy:    0.222058;  410.000000 electrons
         Band energy:-0.163488E+04;  BLOECHL correction:   -0.060180

 total amount of memory used by VASP MPI-rank0   277791. kBytes
=======================================================================

   base      :      30000. kBytes
   nonlr-proj:      15474. kBytes
   fftplans  :       4808. kBytes
   grid      :      20723. kBytes
   one-center:        606. kBytes
   wavefun   :     206180. kBytes
 
  
  
 General timing and accounting informations for this job:
 ========================================================
  
                  Total CPU time used (sec):      285.696
                            User time (sec):      275.647
                          System time (sec):       10.049
                         Elapsed time (sec):      286.316
  
                   Maximum memory used (kb):      578676.
                   Average memory used (kb):          N/A
  
                          Minor page faults:       139282
                          Major page faults:            0
                 Voluntary context switches:         8014
