 vasp.6.2.0 18Jan21 (build Jun 12 2021 23:27:24) complex                        
  
 executed on             LinuxIFC date 2022.05.30  16:24:19
 running on   28 total cores
 distrk:  each k-point on   28 cores,    1 groups
 distr:  one band on NCORE=   1 cores,   28 groups


--------------------------------------------------------------------------------------------------------


 INCAR:
   ISMEAR = -5
   SIGMA = 0.1
   ISPIN = 1
   EDIFF = 1.d-5
   EDIFFG = -0.01
   NSW = 0
   NELM = 150
   ENCUT = 500
   ISIF = 2
   IBRION = 2
   LREAL = Auto
   ALGO = Fast
   ICHARG = 11
   LORBIT = 10
   LCHARG = .F.
   LWAVE = .F.

 POTCAR:    PAW_PBE Au 04Oct2007                  
 POTCAR:    PAW_PBE Pd 04Jan2005                  
 POTCAR:    PAW_PBE O 08Apr2002                   
 -----------------------------------------------------------------------------
|                                                                             |
|           W    W    AA    RRRRR   N    N  II  N    N   GGGG   !!!           |
|           W    W   A  A   R    R  NN   N  II  NN   N  G    G  !!!           |
|           W    W  A    A  R    R  N N  N  II  N N  N  G       !!!           |
|           W WW W  AAAAAA  RRRRR   N  N N  II  N  N N  G  GGG   !            |
|           WW  WW  A    A  R   R   N   NN  II  N   NN  G    G                |
|           W    W  A    A  R    R  N    N  II  N    N   GGGG   !!!           |
|                                                                             |
|     For optimal performance we recommend to set                             |
|       NCORE = 2 up to number-of-cores-per-socket                            |
|     NCORE specifies how many cores store one orbital (NPAR=cpu/NCORE).      |
|     This setting can greatly improve the performance of VASP for DFT.       |
|     The default, NCORE=1 might be grossly inefficient on modern             |
|     multi-core architectures or massively parallel machines. Do your        |
|     own testing! More info at https://www.vasp.at/wiki/index.php/NCORE      |
|     Unfortunately you need to use the default for GW and RPA                |
|     calculations (for HF NCORE is supported but not extensively tested      |
|     yet).                                                                   |
|                                                                             |
 -----------------------------------------------------------------------------

 POTCAR:    PAW_PBE Au 04Oct2007                  
   VRHFIN =Au: s1d10                                                                                
   LEXCH  = PE                                                                                      
   EATOM  =   926.0867 eV,   68.0654 Ry                                                             
                                                                                                    
   TITEL  = PAW_PBE Au 04Oct2007                                                                    
   LULTRA =        F    use ultrasoft PP ?                                                          
   IUNSCR =        1    unscreen: 0-lin 1-nonlin 2-no                                               
   RPACOR =    2.330    partial core radius                                                         
   POMASS =  196.966; ZVAL   =   11.000    mass and valenz                                          
   RCORE  =    2.500    outmost cutoff radius                                                       
   RWIGS  =    2.840; RWIGS  =    1.503    wigner-seitz radius (au A)                               
   ENMAX  =  229.943; ENMIN  =  172.457 eV                                                          
   ICORE  =        3    local potential                                                             
   LCOR   =        T    correct aug charges                                                         
   LPAW   =        T    paw PP                                                                      
   EAUG   =  356.670                                                                                
   DEXC   =    0.000                                                                                
   RMAX   =    2.562    core radius for proj-oper                                                   
   RAUG   =    1.300    factor for augmentation sphere                                              
   RDEP   =    2.598    radius for radial grids                                                     
   RDEPT  =    2.193    core radius for aug-charge                                                  
                                                                                                    
   Atomic configuration                                                                             
   16 entries                                                                                       
     n  l   j            E        occ.                                                              
     1  0  0.50    -80748.5001   2.0000                                                             
     2  0  0.50    -14244.7466   2.0000                                                             
     2  1  1.50    -12310.9591   6.0000                                                             
     3  0  0.50     -3362.1768   2.0000                                                             
     3  1  1.50     -2801.5463   6.0000                                                             
     3  2  2.50     -2203.8206  10.0000                                                             
     4  0  0.50      -729.8168   2.0000                                                             
     4  1  1.50      -546.0527   6.0000                                                             
     4  2  2.50      -325.7302  10.0000                                                             
     4  3  3.50       -81.1472  14.0000                                                             
     5  0  0.50      -108.3201   2.0000                                                             
     5  1  1.50       -59.7479   6.0000                                                             
     5  2  2.50        -6.8783  10.0000                                                             
     6  0  0.50        -5.7602   1.0000                                                             
     6  1  1.50        -6.8029   0.0000                                                             
     5  3  2.50        -1.3606   0.0000                                                             
   Description                                                                                      
     l       E           TYP  RCUT    TYP  RCUT                                                     
     2     -6.8782861     23  2.500                                                                 
     2     -8.2388687     23  2.500                                                                 
     0     -5.7601759     23  2.500                                                                 
     0     -0.8493231     23  2.500                                                                 
     1     -2.7211652     23  2.500                                                                 
     1     27.2116520     23  2.500                                                                 
     3     -1.3605826     23  2.500                                                                 
  local pseudopotential read in
  partial core-charges read in
  partial kinetic energy density read in
  atomic valenz-charges read in
  non local Contribution for L=           2  read in
    real space projection operators read in
  non local Contribution for L=           2  read in
    real space projection operators read in
  non local Contribution for L=           0  read in
    real space projection operators read in
  non local Contribution for L=           0  read in
    real space projection operators read in
  non local Contribution for L=           1  read in
    real space projection operators read in
  non local Contribution for L=           1  read in
    real space projection operators read in
    PAW grid and wavefunctions read in
 
   number of l-projection  operators is LMAX  =           6
   number of lm-projection operators is LMMAX =          18
 
 POTCAR:    PAW_PBE Pd 04Jan2005                  
   VRHFIN =Pd : s1 d9                                                                               
   LEXCH  = PE                                                                                      
   EATOM  =   809.7530 eV,   59.5152 Ry                                                             
                                                                                                    
   TITEL  = PAW_PBE Pd 04Jan2005                                                                    
   LULTRA =        F    use ultrasoft PP ?                                                          
   IUNSCR =        1    unscreen: 0-lin 1-nonlin 2-no                                               
   RPACOR =    2.000    partial core radius                                                         
   POMASS =  106.420; ZVAL   =   10.000    mass and valenz                                          
   RCORE  =    2.600    outmost cutoff radius                                                       
   RWIGS  =    2.710; RWIGS  =    1.434    wigner-seitz radius (au A)                               
   ENMAX  =  250.925; ENMIN  =  188.194 eV                                                          
   ICORE  =        3    local potential                                                             
   LCOR   =        T    correct aug charges                                                         
   LPAW   =        T    paw PP                                                                      
   EAUG   =  416.230                                                                                
   DEXC   =    0.000                                                                                
   RMAX   =    2.653    core radius for proj-oper                                                   
   RAUG   =    1.300    factor for augmentation sphere                                              
   RDEP   =    2.734    radius for radial grids                                                     
   RDEPT  =    2.103    core radius for aug-charge                                                  
                                                                                                    
   Atomic configuration                                                                             
   12 entries                                                                                       
     n  l   j            E        occ.                                                              
     1  0  0.50    -24164.6631   2.0000                                                             
     2  0  0.50     -3530.9218   2.0000                                                             
     2  1  1.50     -3165.6822   6.0000                                                             
     3  0  0.50      -639.4577   2.0000                                                             
     3  1  1.50      -519.4532   6.0000                                                             
     3  2  2.50      -328.9757  10.0000                                                             
     4  0  0.50       -88.7014   2.0000                                                             
     4  1  1.50       -54.4540   6.0000                                                             
     4  2  2.50        -6.6878   9.0000                                                             
     5  0  0.50        -4.3543   1.0000                                                             
     5  1  0.50        -1.3606   0.0000                                                             
     4  3  2.50        -1.3606   0.0000                                                             
   Description                                                                                      
     l       E           TYP  RCUT    TYP  RCUT                                                     
     2     -6.6878251     23  2.400                                                                 
     2     -8.0484077     23  2.400                                                                 
     0     -4.3542939     23  2.400                                                                 
     0      4.3406793     23  2.400                                                                 
     1     -4.0817478     23  2.600                                                                 
     1     15.8380318     23  2.600                                                                 
     3     -4.0817478     23  2.400                                                                 
  local pseudopotential read in
  partial core-charges read in
  partial kinetic energy density read in
  atomic valenz-charges read in
  non local Contribution for L=           2  read in
    real space projection operators read in
  non local Contribution for L=           2  read in
    real space projection operators read in
  non local Contribution for L=           0  read in
    real space projection operators read in
  non local Contribution for L=           0  read in
    real space projection operators read in
  non local Contribution for L=           1  read in
    real space projection operators read in
  non local Contribution for L=           1  read in
    real space projection operators read in
    PAW grid and wavefunctions read in
 
   number of l-projection  operators is LMAX  =           6
   number of lm-projection operators is LMMAX =          18
 
 POTCAR:    PAW_PBE O 08Apr2002                   
   VRHFIN =O: s2p4                                                                                  
   LEXCH  = PE                                                                                      
   EATOM  =   432.3788 eV,   31.7789 Ry                                                             
                                                                                                    
   TITEL  = PAW_PBE O 08Apr2002                                                                     
   LULTRA =        F    use ultrasoft PP ?                                                          
   IUNSCR =        1    unscreen: 0-lin 1-nonlin 2-no                                               
   RPACOR =    1.200    partial core radius                                                         
   POMASS =   16.000; ZVAL   =    6.000    mass and valenz                                          
   RCORE  =    1.520    outmost cutoff radius                                                       
   RWIGS  =    1.550; RWIGS  =    0.820    wigner-seitz radius (au A)                               
   ENMAX  =  400.000; ENMIN  =  300.000 eV                                                          
   ICORE  =        2    local potential                                                             
   LCOR   =        T    correct aug charges                                                         
   LPAW   =        T    paw PP                                                                      
   EAUG   =  605.392                                                                                
   DEXC   =    0.000                                                                                
   RMAX   =    1.553    core radius for proj-oper                                                   
   RAUG   =    1.300    factor for augmentation sphere                                              
   RDEP   =    1.550    radius for radial grids                                                     
   RDEPT  =    1.329    core radius for aug-charge                                                  
                                                                                                    
   Atomic configuration                                                                             
    4 entries                                                                                       
     n  l   j            E        occ.                                                              
     1  0  0.50      -514.6923   2.0000                                                             
     2  0  0.50       -23.9615   2.0000                                                             
     2  1  0.50        -9.0305   4.0000                                                             
     3  2  1.50        -9.5241   0.0000                                                             
   Description                                                                                      
     l       E           TYP  RCUT    TYP  RCUT                                                     
     0    -23.9615318     23  1.200                                                                 
     0     -9.5240782     23  1.200                                                                 
     1     -9.0304911     23  1.520                                                                 
     1      8.1634956     23  1.520                                                                 
     2     -9.5240782      7  1.500                                                                 
  local pseudopotential read in
  partial core-charges read in
  partial kinetic energy density read in
  kinetic energy density of atom read in
  atomic valenz-charges read in
  non local Contribution for L=           0  read in
    real space projection operators read in
  non local Contribution for L=           0  read in
    real space projection operators read in
  non local Contribution for L=           1  read in
    real space projection operators read in
  non local Contribution for L=           1  read in
    real space projection operators read in
    PAW grid and wavefunctions read in
 
   number of l-projection  operators is LMAX  =           4
   number of lm-projection operators is LMMAX =           8
 
 Optimization of the real space projectors (new method)

 maximal supplied QI-value         = 15.12
 optimisation between [QCUT,QGAM] = [ 11.34, 22.83] = [ 36.00,145.93] Ry 
 Optimized for a Real-space Cutoff    1.39 Angstroem

   l    n(q)    QCUT    max X(q) W(low)/X(q) W(high)/X(q)  e(spline) 
   2      9    11.338    60.898    0.39E-03    0.42E-03    0.21E-06
   2      9    11.338    58.894    0.40E-03    0.42E-03    0.22E-06
   0      9    11.338   109.617    0.13E-03    0.20E-04    0.13E-06
   0      9    11.338    75.026    0.13E-03    0.20E-04    0.13E-06
   1      9    11.338    16.344    0.33E-04    0.24E-03    0.18E-06
   1      9    11.338    10.160    0.26E-04    0.19E-03    0.15E-06
 Optimization of the real space projectors (new method)

 maximal supplied QI-value         = 14.36
 optimisation between [QCUT,QGAM] = [ 11.35, 22.84] = [ 36.05,146.02] Ry 
 Optimized for a Real-space Cutoff    1.47 Angstroem

   l    n(q)    QCUT    max X(q) W(low)/X(q) W(high)/X(q)  e(spline) 
   2      9    11.346    59.108    0.74E-04    0.81E-04    0.26E-06
   2      9    11.346    58.101    0.74E-04    0.83E-04    0.27E-06
   0     10    11.346   102.235    0.26E-04    0.31E-04    0.16E-06
   0     10    11.346    58.388    0.23E-04    0.29E-04    0.15E-06
   1     10    11.346    22.191    0.23E-03    0.26E-03    0.14E-06
   1     10    11.346    15.590    0.19E-03    0.22E-03    0.12E-06
 Optimization of the real space projectors (new method)

 maximal supplied QI-value         = 24.76
 optimisation between [QCUT,QGAM] = [ 11.39, 22.77] = [ 36.31,145.25] Ry 
 Optimized for a Real-space Cutoff    1.00 Angstroem

   l    n(q)    QCUT    max X(q) W(low)/X(q) W(high)/X(q)  e(spline) 
   0      7    11.387    20.381    0.39E-03    0.13E-02    0.15E-06
   0      7    11.387    15.268    0.42E-03    0.14E-02    0.17E-06
   1      6    11.387     5.964    0.41E-03    0.11E-02    0.17E-06
   1      6    11.387     5.382    0.39E-03    0.87E-03    0.15E-06
  PAW_PBE Au 04Oct2007                  :
 energy of atom  1       EATOM= -926.0867
 kinetic energy error for atom=    0.0042 (will be added to EATOM!!)
  PAW_PBE Pd 04Jan2005                  :
 energy of atom  2       EATOM= -809.7530
 kinetic energy error for atom=    0.0049 (will be added to EATOM!!)
  PAW_PBE O 08Apr2002                   :
 energy of atom  3       EATOM= -432.3788
 kinetic energy error for atom=    0.0224 (will be added to EATOM!!)
 
 
 POSCAR: Au-Pd-O2
  positions in direct lattice
  velocities in cartesian coordinates
 exchange correlation table for  LEXCH =        8
   RHO(1)=    0.500       N(1)  =     2000
   RHO(2)=  100.500       N(2)  =     4000

 VTST: version 3.2, (02/03/18)

 CHAIN: initializing optimizer
 
 OPT: Using VASP Conjugate-Gradient optimizer
 CHAIN: Read ICHAIN            0
 
 POSCAR: Au-Pd-O2
  positions in direct lattice
  velocities in cartesian coordinates
 


--------------------------------------------------------------------------------------------------------


 ion  position               nearest neighbor table
   1  0.000  0.000  0.217-  16 2.94  12 2.94   6 2.94   8 2.94   7 2.94   3 2.94  10 2.94   4 2.94
                             2 2.94
   2  0.333  0.000  0.217-   9 2.94  11 2.94  17 2.94  10 2.94   8 2.94   4 2.94   5 2.94   1 2.94
                             3 2.94
   3  0.667  0.000  0.217-   7 2.94  18 2.94  12 2.94   1 2.94  11 2.94   5 2.94   6 2.94   9 2.94
                             2 2.94
   4  0.000  0.333  0.217-  10 2.94   6 2.94   5 2.94  13 2.94   2 2.94  15 2.94   9 2.94   1 2.94
                             7 2.94
   5  0.333  0.333  0.217-  13 2.94   7 2.94  11 2.94   4 2.94   2 2.94  14 2.94   3 2.94   8 2.94
                             6 2.94
   6  0.667  0.333  0.217-  15 2.94  14 2.94   1 2.94  12 2.94   4 2.94   9 2.94   8 2.94   3 2.94
                             5 2.94
   7  0.000  0.667  0.217-  18 2.94   3 2.94  16 2.94   5 2.94   1 2.94  13 2.94   8 2.94   4 2.94
                             9 2.94
   8  0.333  0.667  0.217-   9 2.94  17 2.94   1 2.94   2 2.94  14 2.94  16 2.94   6 2.94   7 2.94
                             5 2.94
   9  0.667  0.667  0.217-   2 2.94   8 2.94  17 2.94   6 2.94  15 2.94   4 2.94   3 2.94  18 2.94
                             7 2.94
  10  0.111  0.111  0.316-  26 2.92  19 2.92  20 2.93  11 2.94  17 2.94   2 2.94   4 2.94   1 2.94
                            12 2.94  16 2.94  13 2.94  15 2.94
  11  0.444  0.111  0.316-  27 2.93  20 2.93  21 2.93  13 2.94   2 2.94  10 2.94  17 2.94   5 2.94
                             3 2.94  18 2.94  14 2.94  12 2.94
  12  0.778  0.111  0.316-  25 2.92  19 2.92  21 2.93  16 2.94  18 2.94   1 2.94  14 2.94  15 2.94
                             3 2.94   6 2.94  10 2.94  11 2.94
  13  0.111  0.444  0.316-  22 2.93  23 2.93  20 2.93   5 2.94  18 2.94  11 2.94   7 2.94   4 2.94
                            16 2.94  10 2.94  14 2.94  15 2.94
  14  0.444  0.444  0.316-  24 2.93  21 2.93  23 2.93  15 2.94   6 2.94  12 2.94   8 2.94  17 2.94
                             5 2.94  16 2.94  13 2.94  11 2.94
  15  0.778  0.444  0.316-  19 2.93  24 2.93  22 2.93  14 2.94   6 2.94  17 2.94  12 2.94   9 2.94
                             4 2.94  10 2.94  13 2.94  18 2.94
  16  0.111  0.778  0.316-  25 2.92  26 2.92  23 2.93  18 2.94  12 2.94   7 2.94   1 2.94   8 2.94
                            13 2.94  10 2.94  14 2.94  17 2.94
  17  0.444  0.778  0.316-  26 2.93  27 2.93  24 2.93   9 2.94  15 2.94   2 2.94  10 2.94  11 2.94
                             8 2.94  14 2.94  16 2.94  18 2.94
  18  0.778  0.778  0.316-  25 2.93  22 2.93  27 2.93  16 2.94   7 2.94  13 2.94  12 2.94   3 2.94
                            11 2.94   9 2.94  15 2.94  17 2.94
  19  0.889  0.222  0.414-  10 2.92  12 2.92  15 2.93  26 2.93  25 2.93  21 2.94  20 2.94  24 2.94
                            22 2.94  28 2.96  32 2.97  31 2.97
  20  0.222  0.222  0.414-  36 2.83  10 2.93  11 2.93  13 2.93  26 2.94  19 2.94  27 2.94  22 2.94
                            23 2.94  21 2.94  29 2.95  31 2.95
  21  0.556  0.222  0.414-  36 2.83  12 2.93  14 2.93  11 2.93  25 2.94  19 2.94  24 2.94  27 2.94
                            20 2.94  23 2.94  30 2.95  32 2.95
  22  0.889  0.556  0.414-  18 2.93  15 2.93  13 2.93  24 2.94  27 2.94  23 2.94  20 2.94  25 2.94
                            19 2.94  33 2.96  31 2.96  35 2.96
  23  0.222  0.556  0.414-  36 2.83  16 2.93  13 2.93  14 2.93  25 2.94  26 2.94  22 2.94  24 2.94
                            20 2.94  21 2.94  33 2.95  34 2.95
  24  0.556  0.556  0.414-  15 2.93  17 2.93  14 2.93  27 2.94  22 2.94  21 2.94  23 2.94  26 2.94
                            19 2.94  32 2.96  34 2.96  35 2.96
  25  0.889  0.889  0.414-  16 2.92  12 2.92  18 2.93  19 2.93  26 2.93  23 2.94  21 2.94  22 2.94
                            27 2.94  28 2.96  33 2.97  30 2.97
  26  0.222  0.889  0.414-  10 2.92  16 2.92  17 2.93  19 2.93  25 2.93  20 2.94  23 2.94  27 2.94
                            24 2.94  28 2.96  29 2.97  34 2.97
  27  0.556  0.889  0.414-  17 2.93  18 2.93  11 2.93  24 2.94  22 2.94  20 2.94  21 2.94  26 2.94
                            25 2.94  29 2.96  30 2.96  35 2.96
  28  0.000  0.000  0.514-  34 2.94  32 2.94  33 2.94  30 2.94  31 2.94  29 2.94  25 2.96  19 2.96
                            26 2.96
  29  0.333  0.001  0.514-  30 2.93  31 2.93  36 2.93  35 2.94  28 2.94  20 2.95  34 2.95  27 2.96
                            26 2.97
  30  0.666  0.001  0.514-  29 2.93  32 2.93  36 2.93  35 2.94  28 2.94  21 2.95  33 2.95  27 2.96
                            25 2.97
  31  0.001  0.333  0.514-  33 2.93  29 2.93  36 2.93  35 2.94  28 2.94  20 2.95  32 2.95  22 2.96
                            19 2.97
  32  0.666  0.333  0.514-  34 2.93  30 2.93  36 2.93  35 2.94  28 2.94  21 2.95  31 2.95  24 2.96
                            19 2.97
  33  0.001  0.666  0.514-  31 2.93  34 2.93  36 2.93  35 2.94  28 2.94  23 2.95  30 2.95  22 2.96
                            25 2.97
  34  0.333  0.666  0.514-  32 2.93  33 2.93  36 2.93  35 2.94  28 2.94  23 2.95  29 2.95  24 2.96
                            26 2.97
  35  0.667  0.667  0.514-  29 2.94  34 2.94  32 2.94  31 2.94  30 2.94  33 2.94  24 2.96  27 2.96
                            22 2.96
  36  0.333  0.333  0.508-  38 2.24  37 2.24  20 2.83  23 2.83  21 2.83  33 2.93  31 2.93  29 2.93
                            30 2.93  34 2.93  32 2.93
  37  0.259  0.333  0.595-  38 1.32  36 2.24
  38  0.408  0.333  0.595-  37 1.32  36 2.24
 
  LATTYP: Found a hexagonal cell.
 ALAT       =     8.8135128021
 C/A-ratio  =     2.7586513333
  
  Lattice vectors:
  
 A1 = (  -4.4067569092,  -7.6327256898,   0.0000000000)
 A2 = (   8.8135128021,   0.0000000000,   0.0000000000)
 A3 = (   0.0000000000,   0.0000000000,  24.3134088421)


Analysis of symmetry for initial positions (statically):
=====================================================================
 Subroutine PRICEL returns:
 Original cell was already a primitive cell.
 

 Routine SETGRP: Setting up the symmetry group for a 
 hexagonal supercell.


 Subroutine GETGRP returns: Found  2 space group operations
 (whereof  2 operations were pure point group operations)
 out of a pool of 24 trial point group operations.


The static configuration has the point symmetry C_1h.


Analysis of symmetry for dynamics (positions and initial velocities):
=====================================================================
 Subroutine PRICEL returns:
 Original cell was already a primitive cell.
 

 Routine SETGRP: Setting up the symmetry group for a 
 hexagonal supercell.


 Subroutine GETGRP returns: Found  2 space group operations
 (whereof  2 operations were pure point group operations)
 out of a pool of 24 trial point group operations.


The dynamic configuration has the point symmetry C_1h.


Analysis of constrained symmetry for selective dynamics:
=====================================================================
 Subroutine PRICEL returns:
 Original cell was already a primitive cell.
 

 Routine SETGRP: Setting up the symmetry group for a 
 hexagonal supercell.


 Subroutine GETGRP returns: Found  2 space group operations
 (whereof  2 operations were pure point group operations)
 out of a pool of 24 trial point group operations.


The constrained configuration has the point symmetry C_1h.


 Subroutine INISYM returns: Found  2 space group operations
 (whereof  2 operations are pure point group operations),
 and found     1 'primitive' translations


----------------------------------------------------------------------------------------

                                     Primitive cell                                     

  volume of cell :    1635.5904

  direct lattice vectors                    reciprocal lattice vectors
     8.813512802  0.000000000  0.000000000     0.113462137 -0.065507406  0.000000000
     4.406756909  7.632725690  0.000000000     0.000000000  0.131014796  0.000000000
     0.000000000  0.000000000 24.313408842     0.000000000  0.000000000  0.041129568

  length of vectors
     8.813512802  8.813512802 24.313408842     0.131014796  0.131014796  0.041129568

  position of ions in fractional coordinates (direct lattice)
     0.000000000  0.000000000  0.217179745
     0.333333343  0.000000000  0.217179745
     0.666666687  0.000000000  0.217179745
     0.000000000  0.333333343  0.217179745
     0.333333313  0.333333343  0.217179745
     0.666666687  0.333333343  0.217179745
     0.000000000  0.666666687  0.217179745
     0.333333343  0.666666687  0.217179745
     0.666666627  0.666666687  0.217179745
     0.111111119  0.111111112  0.315838643
     0.444444418  0.111111112  0.315838643
     0.777777791  0.111111112  0.315838643
     0.111111127  0.444444448  0.315838643
     0.444444478  0.444444448  0.315838643
     0.777777731  0.444444448  0.315838643
     0.111111090  0.777777791  0.315838643
     0.444444448  0.777777791  0.315838643
     0.777777851  0.777777791  0.315838643
     0.889096781  0.221806453  0.413878963
     0.222138768  0.222138753  0.414205191
     0.555722525  0.222138753  0.414205191
     0.888823131  0.555588464  0.414200973
     0.222138723  0.555722525  0.414205191
     0.555588464  0.555588464  0.414200973
     0.889096781  0.889096781  0.413878963
     0.221806483  0.889096781  0.413878963
     0.555588404  0.888823131  0.414200973
     0.000000000  0.000000000  0.513855781
     0.333446929  0.000866645  0.513772807
     0.665686455  0.000866645  0.513772807
     0.000866645  0.333446929  0.513772807
     0.665686455  0.333446929  0.513772807
     0.000866645  0.665686455  0.513772807
     0.333446929  0.665686455  0.513772807
     0.666666627  0.666666687  0.514028389
     0.333333313  0.333333343  0.507576483
     0.258524610  0.333316805  0.595499682
     0.408158554  0.333316805  0.595499682

  ion indices of the primitive-cell ions
   primitive index   ion index
                 1           1
                 2           2
                 3           3
                 4           4
                 5           5
                 6           6
                 7           7
                 8           8
                 9           9
                10          10
                11          11
                12          12
                13          13
                14          14
                15          15
                16          16
                17          17
                18          18
                19          19
                20          20
                21          21
                22          22
                23          23
                24          24
                25          25
                26          26
                27          27
                28          28
                29          29
                30          30
                31          31
                32          32
                33          33
                34          34
                35          35
                36          36
                37          37
                38          38

----------------------------------------------------------------------------------------

 
 
 KPOINTS: Automatic mesh                          

Automatic generation of k-mesh.
 Grid dimensions read from file:
 generate k-points for:    8    8    1

 Generating k-lattice:

  Cartesian coordinates                     Fractional coordinates (reciprocal lattice)
     0.014182767 -0.008188426  0.000000000     0.125000000  0.000000000  0.000000000
     0.000000000  0.016376850  0.000000000     0.000000000  0.125000000  0.000000000
     0.000000000  0.000000000  0.041129568     0.000000000  0.000000000  1.000000000

  Length of vectors
     0.016376850  0.016376850  0.041129568

  Shift w.r.t. Gamma in fractional coordinates (k-lattice)
     0.000000000  0.000000000  0.000000000

 TETIRR: Found    100 inequivalent tetrahedra from      384
 
 Subroutine IBZKPT returns following result:
 ===========================================
 
 Found     21 irreducible k-points:
 
 Following reciprocal coordinates:
            Coordinates               Weight
  0.000000  0.000000  0.000000      1.000000
  0.125000  0.000000  0.000000      4.000000
  0.000000  0.125000  0.000000      2.000000
  0.250000  0.000000  0.000000      4.000000
  0.000000  0.250000  0.000000      2.000000
  0.375000 -0.000000  0.000000      4.000000
  0.000000  0.375000  0.000000      2.000000
  0.500000  0.000000  0.000000      2.000000
  0.000000  0.500000  0.000000      1.000000
  0.250000  0.125000  0.000000      2.000000
  0.125000  0.250000  0.000000      4.000000
  0.375000  0.125000  0.000000      4.000000
  0.250000  0.375000  0.000000      4.000000
 -0.125000  0.250000  0.000000      4.000000
  0.500000  0.125000  0.000000      4.000000
  0.375000  0.500000  0.000000      4.000000
 -0.125000  0.375000  0.000000      4.000000
  0.500000  0.250000  0.000000      2.000000
  0.250000  0.500000  0.000000      4.000000
 -0.375000  0.250000  0.000000      4.000000
 -0.250000  0.375000  0.000000      2.000000
 
 Following cartesian coordinates:
            Coordinates               Weight
  0.000000  0.000000  0.000000      1.000000
  0.014183 -0.008188  0.000000      4.000000
  0.000000  0.016377  0.000000      2.000000
  0.028366 -0.016377  0.000000      4.000000
  0.000000  0.032754  0.000000      2.000000
  0.042548 -0.024565  0.000000      4.000000
  0.000000  0.049131  0.000000      2.000000
  0.056731 -0.032754  0.000000      2.000000
  0.000000  0.065507  0.000000      1.000000
  0.028366 -0.000000  0.000000      2.000000
  0.014183  0.024565  0.000000      4.000000
  0.042548 -0.008188  0.000000      4.000000
  0.028366  0.032754  0.000000      4.000000
 -0.014183  0.040942  0.000000      4.000000
  0.056731 -0.016377  0.000000      4.000000
  0.042548  0.040942  0.000000      4.000000
 -0.014183  0.057319  0.000000      4.000000
  0.056731 -0.000000  0.000000      2.000000
  0.028366  0.049131  0.000000      4.000000
 -0.042548  0.057319  0.000000      4.000000
 -0.028366  0.065507  0.000000      2.000000
 


--------------------------------------------------------------------------------------------------------




 Dimension of arrays:
   k-points           NKPTS =     21   k-points in BZ     NKDIM =     21   number of bands    NBANDS=    252
   number of dos      NEDOS =    301   number of ions     NIONS =     38
   non local maximal  LDIM  =      6   non local SUM 2l+1 LMDIM =     18
   total plane-waves  NPLWV = 322560
   max r-space proj   IRMAX =   2697   max aug-charges    IRDMAX=  12258
   dimension x,y,z NGX =    48 NGY =   48 NGZ =  140
   dimension x,y,z NGXF=    96 NGYF=   96 NGZF=  280
   support grid    NGXF=    96 NGYF=   96 NGZF=  280
   ions per type =              35   1   2
   NGX,Y,Z   is equivalent  to a cutoff of   9.05,  9.05,  9.57 a.u.
   NGXF,Y,Z  is equivalent  to a cutoff of  18.11, 18.11, 19.15 a.u.

 SYSTEM =  unknown system                          
 POSCAR =  Au-Pd-O2                                

 Startparameter for this run:
   NWRITE =      2    write-flag & timer
   PREC   = normal    normal or accurate (medium, high low for compatibility)
   ISTART =      0    job   : 0-new  1-cont  2-samecut
   ICHARG =     11    charge: 1-file 2-atom 10-const
   ISPIN  =      1    spin polarized calculation?
   LNONCOLLINEAR =      F non collinear calculations
   LSORBIT =      F    spin-orbit coupling
   INIWAV =      1    electr: 0-lowe 1-rand  2-diag
   LASPH  =      F    aspherical Exc in radial PAW
   METAGGA=      F    non-selfconsistent MetaGGA calc.

 Electronic Relaxation 1
   ENCUT  =  500.0 eV  36.75 Ry    6.06 a.u.  16.07 16.07 44.33*2*pi/ulx,y,z
   ENINI  =  500.0     initial cutoff
   ENAUG  =  605.4 eV  augmentation charge cutoff
   NELM   =    150;   NELMIN=  2; NELMDL= -5     # of ELM steps 
   EDIFF  = 0.1E-04   stopping-criterion for ELM
   LREAL  =      T    real-space projection
   NLSPLINE    = F    spline interpolate recip. space projectors
   LCOMPAT=      F    compatible to vasp.4.4
   GGA_COMPAT  = T    GGA compatible to vasp.4.4-vasp.4.6
   LMAXPAW     = -100 max onsite density
   LMAXMIX     =    2 max onsite mixed and CHGCAR
   VOSKOWN=      0    Vosko Wilk Nusair interpolation
   ROPT   =   -0.00050  -0.00050  -0.00050
 Ionic relaxation
   EDIFFG = -.1E-01   stopping-criterion for IOM
   NSW    =      0    number of steps for IOM
   NBLOCK =      1;   KBLOCK =      1    inner block; outer block 
   IBRION =     -1    ionic relax: 0-MD 1-quasi-New 2-CG
   NFREE  =      1    steps in history (QN), initial steepest desc. (CG)
   ISIF   =      2    stress and relaxation
   IWAVPR =     10    prediction:  0-non 1-charg 2-wave 3-comb
   ISYM   =      2    0-nonsym 1-usesym 2-fastsym
   LCORR  =      T    Harris-Foulkes like correction to forces

   POTIM  = 0.5000    time-step for ionic-motion
   TEIN   =    0.0    initial temperature
   TEBEG  =    0.0;   TEEND  =   0.0 temperature during run
   SMASS  =  -3.00    Nose mass-parameter (am)
   estimated Nose-frequenzy (Omega)   =  0.10E-29 period in steps = 0.13E+47 mass=  -0.178E-26a.u.
   SCALEE = 1.0000    scale energy and forces
   NPACO  =    256;   APACO  = 16.0  distance and # of slots for P.C.
   PSTRESS=    0.0 pullay stress

  Mass of Ions in am
   POMASS = 196.97106.42 16.00
  Ionic Valenz
   ZVAL   =  11.00 10.00  6.00
  Atomic Wigner-Seitz radii
   RWIGS  =  -1.00 -1.00 -1.00
  virtual crystal weights 
   VCA    =   1.00  1.00  1.00
   NELECT =     407.0000    total number of electrons
   NUPDOWN=      -1.0000    fix difference up-down

 DOS related values:
   EMIN   =  10.00;   EMAX   =-10.00  energy-range for DOS
   EFERMI =   0.00
   ISMEAR =    -5;   SIGMA  =   0.10  broadening in eV -4-tet -1-fermi 0-gaus

 Electronic relaxation 2 (details)
   IALGO  =     68    algorithm
   LDIAG  =      T    sub-space diagonalisation (order eigenvalues)
   LSUBROT=      F    optimize rotation matrix (better conditioning)
   TURBO    =      0    0=normal 1=particle mesh
   IRESTART =      0    0=no restart 2=restart with 2 vectors
   NREBOOT  =      0    no. of reboots
   NMIN     =      0    reboot dimension
   EREF     =   0.00    reference energy to select bands
   IMIX   =      4    mixing-type and parameters
     AMIX     =   0.40;   BMIX     =  1.00
     AMIX_MAG =   1.60;   BMIX_MAG =  1.00
     AMIN     =   0.10
     WC   =   100.;   INIMIX=   1;  MIXPRE=   1;  MAXMIX= -45

 Intra band minimization:
   WEIMIN = 0.0000     energy-eigenvalue tresh-hold
   EBREAK =  0.99E-08  absolut break condition
   DEPER  =   0.30     relativ break condition  

   TIME   =   0.40     timestep for ELM

  volume/ion in A,a.u.               =      43.04       290.46
  Fermi-wavevector in a.u.,A,eV,Ry     =   1.029710  1.945869 14.426284  1.060302
  Thomas-Fermi vector in A             =   2.163771
 
 Write flags
   LWAVE        =      F    write WAVECAR
   LDOWNSAMPLE  =      F    k-point downsampling of WAVECAR
   LCHARG       =      F    write CHGCAR
   LVTOT        =      F    write LOCPOT, total local potential
   LVHAR        =      F    write LOCPOT, Hartree potential only
   LELF         =      F    write electronic localiz. function (ELF)
   LORBIT       =     10    0 simple, 1 ext, 2 COOP (PROOUT), +10 PAW based schemes


 Dipole corrections
   LMONO  =      F    monopole corrections only (constant potential shift)
   LDIPOL =      F    correct potential (dipole corrections)
   IDIPOL =      0    1-x, 2-y, 3-z, 4-all directions 
   EPSILON=  1.0000000 bulk dielectric constant

 Exchange correlation treatment:
   GGA     =    --    GGA type
   LEXCH   =     8    internal setting for exchange type
   VOSKOWN=      0    Vosko Wilk Nusair interpolation
   LHFCALC =     F    Hartree Fock is set to
   LHFONE  =     F    Hartree Fock one center treatment
   AEXX    =    0.0000 exact exchange contribution

 Linear response parameters
   LEPSILON=     F    determine dielectric tensor
   LRPA    =     F    only Hartree local field effects (RPA)
   LNABLA  =     F    use nabla operator in PAW spheres
   LVEL    =     F    velocity operator in full k-point grid
   LINTERFAST=   F  fast interpolation
   KINTER  =     0    interpolate to denser k-point grid
   CSHIFT  =0.1000    complex shift for real part using Kramers Kronig
   OMEGAMAX=  -1.0    maximum frequency
   DEG_THRESHOLD= 0.2000000E-02 threshold for treating states as degnerate
   RTIME   =   -0.100 relaxation time in fs
  (WPLASMAI=    0.000 imaginary part of plasma frequency in eV, 0.658/RTIME)
   DFIELD  = 0.0000000 0.0000000 0.0000000 field for delta impulse in time
 
 Orbital magnetization related:
   ORBITALMAG=     F  switch on orbital magnetization
   LCHIMAG   =     F  perturbation theory with respect to B field
   DQ        =  0.001000  dq finite difference perturbation B field
   LLRAUG    =     F  two centre corrections for induced B field



--------------------------------------------------------------------------------------------------------


 Static calculation
 charge density and potential remain constant during run
 non-spin polarized calculation
 RMM-DIIS sequential band-by-band and
  variant of blocked Davidson during initial phase
 perform sub-space diagonalisation
    before iterative eigenvector-optimisation
 no mixing
 using additional bands           48
 real space projection scheme for non local part
 use partial core corrections
 calculate Harris-corrections to forces 
   (improved forces if not selfconsistent)
 use gradient corrections 
 WARNING: stress and forces are not correct
  (second derivative of E(xc) not defined)
 use of overlap-Matrix (Vanderbilt PP)
 Fermi weights with tetrahedron method with Bloechl corrections


--------------------------------------------------------------------------------------------------------


  energy-cutoff  :      500.00
  volume of cell :     1635.59
      direct lattice vectors                 reciprocal lattice vectors
     8.813512802  0.000000000  0.000000000     0.113462137 -0.065507406  0.000000000
     4.406756909  7.632725690  0.000000000     0.000000000  0.131014796  0.000000000
     0.000000000  0.000000000 24.313408842     0.000000000  0.000000000  0.041129568

  length of vectors
     8.813512802  8.813512802 24.313408842     0.131014796  0.131014796  0.041129568


 
 k-points in units of 2pi/SCALE and weight: Automatic mesh                          
   0.00000000  0.00000000  0.00000000       0.016
   0.01418277 -0.00818843  0.00000000       0.062
   0.00000000  0.01637685  0.00000000       0.031
   0.02836553 -0.01637685  0.00000000       0.062
   0.00000000  0.03275370  0.00000000       0.031
   0.04254830 -0.02456528  0.00000000       0.062
   0.00000000  0.04913055  0.00000000       0.031
   0.05673107 -0.03275370  0.00000000       0.031
   0.00000000  0.06550740  0.00000000       0.016
   0.02836553 -0.00000000  0.00000000       0.031
   0.01418277  0.02456527  0.00000000       0.062
   0.04254830 -0.00818843  0.00000000       0.062
   0.02836553  0.03275370  0.00000000       0.062
  -0.01418277  0.04094212  0.00000000       0.062
   0.05673107 -0.01637685  0.00000000       0.062
   0.04254830  0.04094212  0.00000000       0.062
  -0.01418277  0.05731897  0.00000000       0.062
   0.05673107 -0.00000000  0.00000000       0.031
   0.02836553  0.04913055  0.00000000       0.062
  -0.04254830  0.05731898  0.00000000       0.062
  -0.02836553  0.06550740  0.00000000       0.031
 
 k-points in reciprocal lattice and weights: Automatic mesh                          
   0.00000000  0.00000000  0.00000000       0.016
   0.12500000  0.00000000  0.00000000       0.062
   0.00000000  0.12500000  0.00000000       0.031
   0.25000000  0.00000000  0.00000000       0.062
   0.00000000  0.25000000  0.00000000       0.031
   0.37500000 -0.00000000  0.00000000       0.062
   0.00000000  0.37500000  0.00000000       0.031
   0.50000000  0.00000000  0.00000000       0.031
   0.00000000  0.50000000  0.00000000       0.016
   0.25000000  0.12500000  0.00000000       0.031
   0.12500000  0.25000000  0.00000000       0.062
   0.37500000  0.12500000  0.00000000       0.062
   0.25000000  0.37500000  0.00000000       0.062
  -0.12500000  0.25000000  0.00000000       0.062
   0.50000000  0.12500000  0.00000000       0.062
   0.37500000  0.50000000  0.00000000       0.062
  -0.12500000  0.37500000  0.00000000       0.062
   0.50000000  0.25000000  0.00000000       0.031
   0.25000000  0.50000000  0.00000000       0.062
  -0.37500000  0.25000000  0.00000000       0.062
  -0.25000000  0.37500000  0.00000000       0.031
 
 position of ions in fractional coordinates (direct lattice) 
   0.00000000  0.00000000  0.21717974
   0.33333334  0.00000000  0.21717974
   0.66666669  0.00000000  0.21717974
   0.00000000  0.33333334  0.21717974
   0.33333331  0.33333334  0.21717974
   0.66666669  0.33333334  0.21717974
   0.00000000  0.66666669  0.21717974
   0.33333334  0.66666669  0.21717974
   0.66666663  0.66666669  0.21717974
   0.11111112  0.11111111  0.31583864
   0.44444442  0.11111111  0.31583864
   0.77777779  0.11111111  0.31583864
   0.11111113  0.44444445  0.31583864
   0.44444448  0.44444445  0.31583864
   0.77777773  0.44444445  0.31583864
   0.11111109  0.77777779  0.31583864
   0.44444445  0.77777779  0.31583864
   0.77777785  0.77777779  0.31583864
   0.88909678  0.22180645  0.41387896
   0.22213877  0.22213875  0.41420519
   0.55572252  0.22213875  0.41420519
   0.88882313  0.55558846  0.41420097
   0.22213872  0.55572252  0.41420519
   0.55558846  0.55558846  0.41420097
   0.88909678  0.88909678  0.41387896
   0.22180648  0.88909678  0.41387896
   0.55558840  0.88882313  0.41420097
   0.00000000  0.00000000  0.51385578
   0.33344693  0.00086665  0.51377281
   0.66568646  0.00086665  0.51377281
   0.00086665  0.33344693  0.51377281
   0.66568646  0.33344693  0.51377281
   0.00086665  0.66568646  0.51377281
   0.33344693  0.66568646  0.51377281
   0.66666663  0.66666669  0.51402839
   0.33333331  0.33333334  0.50757648
   0.25852461  0.33331680  0.59549968
   0.40815855  0.33331680  0.59549968
 
 position of ions in cartesian coordinates  (Angst):
   0.00000000  0.00000000  5.28037993
   2.93783769  0.00000000  5.28037993
   5.87567538  0.00000000  5.28037993
   1.46891901  2.54424197  5.28037993
   4.40675643  2.54424197  5.28037993
   7.34459439  2.54424197  5.28037993
   2.93783803  5.08848395  5.28037993
   5.87567571  5.08848395  5.28037993
   8.81351288  5.08848395  5.28037993
   1.46891893  0.84808064  7.67911405
   4.40675623  0.84808064  7.67911405
   7.34459418  0.84808064  7.67911405
   2.93783798  3.39232256  7.67911405
   5.87567574  3.39232256  7.67911405
   8.81351263  3.39232256  7.67911405
   4.40675667  5.93656453  7.67911405
   7.34459449  5.93656453  7.67911405
  10.28243270  5.93656453  7.67911405
   8.81351299  1.69298781 10.06280844
   2.93673436  1.69552416 10.07074015
   5.87677907  1.69552416 10.07074015
  10.28199735  4.24065435 10.07063759
   4.40675655  4.24167759 10.07074015
   7.34502935  4.24065435 10.07063759
  11.75409925  6.78623184 10.06280844
   5.87292766  6.78623184 10.06280844
   8.81351299  6.78414315 10.07063759
   0.00000000  0.00000000 12.49358568
   2.94265787  0.00661487 12.49156830
   5.87085519  0.00661487 12.49156830
   1.47705775  2.54510894 12.49156830
   7.33645566  2.54510894 12.49156830
   2.94115658  5.08100211 12.49156830
   5.87235717  5.08100211 12.49156830
   8.81351288  5.08848395 12.49778238
   4.40675643  2.54424197 12.34091456
   3.74735609  2.54411574 14.47862723
   5.06615678  2.54411574 14.47862723
 


--------------------------------------------------------------------------------------------------------


 k-point   1 :   0.0000 0.0000 0.0000  plane waves:   41363
 k-point   2 :   0.1250 0.0000 0.0000  plane waves:   41482
 k-point   3 :   0.0000 0.1250 0.0000  plane waves:   41482
 k-point   4 :   0.2500 0.0000 0.0000  plane waves:   41496
 k-point   5 :   0.0000 0.2500 0.0000  plane waves:   41496
 k-point   6 :   0.3750-0.0000 0.0000  plane waves:   41568
 k-point   7 :   0.0000 0.3750 0.0000  plane waves:   41568
 k-point   8 :   0.5000 0.0000 0.0000  plane waves:   41500
 k-point   9 :   0.0000 0.5000 0.0000  plane waves:   41500
 k-point  10 :   0.2500 0.1250 0.0000  plane waves:   41456
 k-point  11 :   0.1250 0.2500 0.0000  plane waves:   41456
 k-point  12 :   0.3750 0.1250 0.0000  plane waves:   41540
 k-point  13 :   0.2500 0.3750 0.0000  plane waves:   41540
 k-point  14 :  -0.1250 0.2500 0.0000  plane waves:   41540
 k-point  15 :   0.5000 0.1250 0.0000  plane waves:   41540
 k-point  16 :   0.3750 0.5000 0.0000  plane waves:   41540
 k-point  17 :  -0.1250 0.3750 0.0000  plane waves:   41540
 k-point  18 :   0.5000 0.2500 0.0000  plane waves:   41588
 k-point  19 :   0.2500 0.5000 0.0000  plane waves:   41588
 k-point  20 :  -0.3750 0.2500 0.0000  plane waves:   41554
 k-point  21 :  -0.2500 0.3750 0.0000  plane waves:   41554

 maximum and minimum number of plane-waves per node :     41588    41363

 maximum number of plane-waves:     41588
 maximum index in each direction: 
   IXMAX=   16   IYMAX=   16   IZMAX=   44
   IXMIN=  -16   IYMIN=  -16   IZMIN=  -44


 serial   3D FFT for wavefunctions
 parallel 3D FFT for charge:
    minimum data exchange during FFTs selected (reduces bandwidth)


 total amount of memory used by VASP MPI-rank0   197218. kBytes
=======================================================================

   base      :      30000. kBytes
   nonlr-proj:      14109. kBytes
   fftplans  :       4808. kBytes
   grid      :      19857. kBytes
   one-center:        590. kBytes
   wavefun   :     127854. kBytes
 
     INWAV:  cpu time    0.0000: real time    0.0001
 initial charge density was supplied:
 number of electron     407.0000085 magnetization 
 keeping initial charge density in first step


--------------------------------------------------------------------------------------------------------


 Maximum index for non-local projection operator         2561
 Maximum index for augmentation-charges          865 (set IRDMAX)


--------------------------------------------------------------------------------------------------------


 First call to EWALD:  gamma=   0.150
 Maximum number of real-space cells 4x 4x 2
 Maximum number of reciprocal cells 2x 2x 5

    FEWALD:  cpu time    0.0013: real time    0.0013


--------------------------------------- Iteration      1(   1)  ---------------------------------------


    POTLOK:  cpu time    0.0506: real time    0.0510
    SETDIJ:  cpu time    0.0049: real time    0.0050
     EDDAV:  cpu time   16.1758: real time   16.1775
 BZINTS: Fermi energy:   11.155436;  407.000000 electrons
         Band energy: 0.137925E+04;  BLOECHL correction:   -0.020507
       DOS:  cpu time    0.0298: real time    0.0299
    --------------------------------------------
      LOOP:  cpu time   16.2612: real time   16.2633

 eigenvalue-minimisations  : 10584
 total energy-change (2. order) : 0.2758488E+04  (-0.1831812E+05)
 number of electron     407.0000085 magnetization 
 augmentation part      407.0000085 magnetization 

 Free energy of the ion-electron system (eV)
  ---------------------------------------------------
  alpha Z        PSCENC =       949.98644442
  Ewald energy   TEWEN  =    128463.76373020
  -Hartree energ DENC   =   -163452.83083936
  -exchange      EXHF   =         0.00000000
  -V(xc)+E(xc)   XCENC  =       543.32538409
  PAW double counting   =     36933.87004426   -36146.22658204
  entropy T*S    EENTRO =         0.00000000
  eigenvalues    EBANDS =      1379.25310448
  atomic energy  EATOM  =     34087.34717526
  Solvation  Ediel_sol  =         0.00000000
  ---------------------------------------------------
  free energy    TOTEN  =      2758.48846131 eV

  energy without entropy =     2758.48846131  energy(sigma->0) =     2758.48846131


--------------------------------------------------------------------------------------------------------




--------------------------------------- Iteration      1(   2)  ---------------------------------------


     EDDAV:  cpu time   17.8306: real time   17.8309
 BZINTS: Fermi energy:    1.077789;  407.000000 electrons
         Band energy:-0.134853E+04;  BLOECHL correction:   -0.069640
       DOS:  cpu time    0.0289: real time    0.0289
    --------------------------------------------
      LOOP:  cpu time   17.8595: real time   17.8598

 eigenvalue-minimisations  : 11928
 total energy-change (2. order) :-0.2727780E+04  (-0.2551929E+04)
 number of electron     407.0000085 magnetization 
 augmentation part      407.0000085 magnetization 

 Free energy of the ion-electron system (eV)
  ---------------------------------------------------
  alpha Z        PSCENC =       949.98644442
  Ewald energy   TEWEN  =    128463.76373020
  -Hartree energ DENC   =   -163452.83083936
  -exchange      EXHF   =         0.00000000
  -V(xc)+E(xc)   XCENC  =       543.32538409
  PAW double counting   =     36933.87004426   -36146.22658204
  entropy T*S    EENTRO =         0.00000000
  eigenvalues    EBANDS =     -1348.52700905
  atomic energy  EATOM  =     34087.34717526
  Solvation  Ediel_sol  =         0.00000000
  ---------------------------------------------------
  free energy    TOTEN  =        30.70834779 eV

  energy without entropy =       30.70834779  energy(sigma->0) =       30.70834779


--------------------------------------------------------------------------------------------------------




--------------------------------------- Iteration      1(   3)  ---------------------------------------


     EDDAV:  cpu time   18.4271: real time   18.4272
 BZINTS: Fermi energy:    0.224418;  407.000000 electrons
         Band energy:-0.149688E+04;  BLOECHL correction:   -0.051984
       DOS:  cpu time    0.0295: real time    0.0295
    --------------------------------------------
      LOOP:  cpu time   18.4565: real time   18.4567

 eigenvalue-minimisations  : 12376
 total energy-change (2. order) :-0.1483531E+03  (-0.1438895E+03)
 number of electron     407.0000085 magnetization 
 augmentation part      407.0000085 magnetization 

 Free energy of the ion-electron system (eV)
  ---------------------------------------------------
  alpha Z        PSCENC =       949.98644442
  Ewald energy   TEWEN  =    128463.76373020
  -Hartree energ DENC   =   -163452.83083936
  -exchange      EXHF   =         0.00000000
  -V(xc)+E(xc)   XCENC  =       543.32538409
  PAW double counting   =     36933.87004426   -36146.22658204
  entropy T*S    EENTRO =         0.00000000
  eigenvalues    EBANDS =     -1496.88014858
  atomic energy  EATOM  =     34087.34717526
  Solvation  Ediel_sol  =         0.00000000
  ---------------------------------------------------
  free energy    TOTEN  =      -117.64479175 eV

  energy without entropy =     -117.64479175  energy(sigma->0) =     -117.64479175


--------------------------------------------------------------------------------------------------------




--------------------------------------- Iteration      1(   4)  ---------------------------------------


     EDDAV:  cpu time   17.5480: real time   17.5483
 BZINTS: Fermi energy:    0.144292;  407.000000 electrons
         Band energy:-0.150029E+04;  BLOECHL correction:   -0.050781
       DOS:  cpu time    0.0294: real time    0.0294
    --------------------------------------------
      LOOP:  cpu time   17.5774: real time   17.5777

 eigenvalue-minimisations  : 11676
 total energy-change (2. order) :-0.3409571E+01  (-0.3373998E+01)
 number of electron     407.0000085 magnetization 
 augmentation part      407.0000085 magnetization 

 Free energy of the ion-electron system (eV)
  ---------------------------------------------------
  alpha Z        PSCENC =       949.98644442
  Ewald energy   TEWEN  =    128463.76373020
  -Hartree energ DENC   =   -163452.83083936
  -exchange      EXHF   =         0.00000000
  -V(xc)+E(xc)   XCENC  =       543.32538409
  PAW double counting   =     36933.87004426   -36146.22658204
  entropy T*S    EENTRO =         0.00000000
  eigenvalues    EBANDS =     -1500.28971955
  atomic energy  EATOM  =     34087.34717526
  Solvation  Ediel_sol  =         0.00000000
  ---------------------------------------------------
  free energy    TOTEN  =      -121.05436272 eV

  energy without entropy =     -121.05436272  energy(sigma->0) =     -121.05436272


--------------------------------------------------------------------------------------------------------




--------------------------------------- Iteration      1(   5)  ---------------------------------------


     EDDAV:  cpu time   21.1181: real time   21.1183
 BZINTS: Fermi energy:    0.143100;  407.000000 electrons
         Band energy:-0.150040E+04;  BLOECHL correction:   -0.051585
       DOS:  cpu time    0.0308: real time    0.0309
    --------------------------------------------
      LOOP:  cpu time   21.1490: real time   21.1492

 eigenvalue-minimisations  : 14588
 total energy-change (2. order) :-0.1140544E+00  (-0.1133120E+00)
 number of electron     407.0000085 magnetization 
 augmentation part      407.0000085 magnetization 

 Free energy of the ion-electron system (eV)
  ---------------------------------------------------
  alpha Z        PSCENC =       949.98644442
  Ewald energy   TEWEN  =    128463.76373020
  -Hartree energ DENC   =   -163452.83083936
  -exchange      EXHF   =         0.00000000
  -V(xc)+E(xc)   XCENC  =       543.32538409
  PAW double counting   =     36933.87004426   -36146.22658204
  entropy T*S    EENTRO =         0.00000000
  eigenvalues    EBANDS =     -1500.40377391
  atomic energy  EATOM  =     34087.34717526
  Solvation  Ediel_sol  =         0.00000000
  ---------------------------------------------------
  free energy    TOTEN  =      -121.16841708 eV

  energy without entropy =     -121.16841708  energy(sigma->0) =     -121.16841708


--------------------------------------------------------------------------------------------------------




--------------------------------------- Iteration      1(   6)  ---------------------------------------


    EDDIAG:  cpu time    3.2222: real time    3.2223
  RMM-DIIS:  cpu time    9.4470: real time    9.4470
    ORTHCH:  cpu time    0.5880: real time    0.5880
 BZINTS: Fermi energy:    0.143076;  407.000000 electrons
         Band energy:-0.150041E+04;  BLOECHL correction:   -0.051601
       DOS:  cpu time    0.0307: real time    0.0307
    --------------------------------------------
      LOOP:  cpu time   13.2879: real time   13.2882

 eigenvalue-minimisations  : 10935
 total energy-change (2. order) :-0.2132370E-02  (-0.2119423E-02)
 number of electron     407.0000085 magnetization 
 augmentation part      407.0000085 magnetization 

 Free energy of the ion-electron system (eV)
  ---------------------------------------------------
  alpha Z        PSCENC =       949.98644442
  Ewald energy   TEWEN  =    128463.76373020
  -Hartree energ DENC   =   -163452.83083936
  -exchange      EXHF   =         0.00000000
  -V(xc)+E(xc)   XCENC  =       543.32538409
  PAW double counting   =     36933.87004426   -36146.22658204
  entropy T*S    EENTRO =         0.00000000
  eigenvalues    EBANDS =     -1500.40590628
  atomic energy  EATOM  =     34087.34717526
  Solvation  Ediel_sol  =         0.00000000
  ---------------------------------------------------
  free energy    TOTEN  =      -121.17054945 eV

  energy without entropy =     -121.17054945  energy(sigma->0) =     -121.17054945


--------------------------------------------------------------------------------------------------------




--------------------------------------- Iteration      1(   7)  ---------------------------------------


    EDDIAG:  cpu time    3.2253: real time    3.2253
  RMM-DIIS:  cpu time   11.8843: real time   11.8844
    ORTHCH:  cpu time    0.5875: real time    0.5875
 BZINTS: Fermi energy:    0.143066;  407.000000 electrons
         Band energy:-0.150041E+04;  BLOECHL correction:   -0.051608
       DOS:  cpu time    0.0308: real time    0.0308
    --------------------------------------------
      LOOP:  cpu time   15.7278: real time   15.7280

 eigenvalue-minimisations  : 13866
 total energy-change (2. order) :-0.8047195E-03  (-0.7960454E-03)
 number of electron     407.0000085 magnetization 
 augmentation part      407.0000085 magnetization 

 Free energy of the ion-electron system (eV)
  ---------------------------------------------------
  alpha Z        PSCENC =       949.98644442
  Ewald energy   TEWEN  =    128463.76373020
  -Hartree energ DENC   =   -163452.83083936
  -exchange      EXHF   =         0.00000000
  -V(xc)+E(xc)   XCENC  =       543.32538409
  PAW double counting   =     36933.87004426   -36146.22658204
  entropy T*S    EENTRO =         0.00000000
  eigenvalues    EBANDS =     -1500.40671100
  atomic energy  EATOM  =     34087.34717526
  Solvation  Ediel_sol  =         0.00000000
  ---------------------------------------------------
  free energy    TOTEN  =      -121.17135417 eV

  energy without entropy =     -121.17135417  energy(sigma->0) =     -121.17135417


--------------------------------------------------------------------------------------------------------




--------------------------------------- Iteration      1(   8)  ---------------------------------------


    EDDIAG:  cpu time    3.2225: real time    3.2227
  RMM-DIIS:  cpu time   10.3211: real time   10.3211
    ORTHCH:  cpu time    0.5870: real time    0.5870
 BZINTS: Fermi energy:    0.143065;  407.000000 electrons
         Band energy:-0.150041E+04;  BLOECHL correction:   -0.051609
       DOS:  cpu time    0.0308: real time    0.0308
    --------------------------------------------
      LOOP:  cpu time   14.1613: real time   14.1617

 eigenvalue-minimisations  : 11593
 total energy-change (2. order) :-0.6968252E-04  (-0.6634327E-04)
 number of electron     407.0000085 magnetization 
 augmentation part      407.0000085 magnetization 

 Free energy of the ion-electron system (eV)
  ---------------------------------------------------
  alpha Z        PSCENC =       949.98644442
  Ewald energy   TEWEN  =    128463.76373020
  -Hartree energ DENC   =   -163452.83083936
  -exchange      EXHF   =         0.00000000
  -V(xc)+E(xc)   XCENC  =       543.32538409
  PAW double counting   =     36933.87004426   -36146.22658204
  entropy T*S    EENTRO =         0.00000000
  eigenvalues    EBANDS =     -1500.40678068
  atomic energy  EATOM  =     34087.34717526
  Solvation  Ediel_sol  =         0.00000000
  ---------------------------------------------------
  free energy    TOTEN  =      -121.17142385 eV

  energy without entropy =     -121.17142385  energy(sigma->0) =     -121.17142385


--------------------------------------------------------------------------------------------------------




--------------------------------------- Iteration      1(   9)  ---------------------------------------


    EDDIAG:  cpu time    3.2250: real time    3.2251
  RMM-DIIS:  cpu time   10.0131: real time   10.0132
    ORTHCH:  cpu time    0.5875: real time    0.5875
 BZINTS: Fermi energy:    0.143065;  407.000000 electrons
         Band energy:-0.150041E+04;  BLOECHL correction:   -0.051609
       DOS:  cpu time    0.0295: real time    0.0295
    --------------------------------------------
      LOOP:  cpu time   13.8552: real time   13.8553

 eigenvalue-minimisations  : 10643
 total energy-change (2. order) :-0.1563141E-04  (-0.1532495E-04)
 number of electron     407.0000085 magnetization 
 augmentation part      407.0000085 magnetization 

 Free energy of the ion-electron system (eV)
  ---------------------------------------------------
  alpha Z        PSCENC =       949.98644442
  Ewald energy   TEWEN  =    128463.76373020
  -Hartree energ DENC   =   -163452.83083936
  -exchange      EXHF   =         0.00000000
  -V(xc)+E(xc)   XCENC  =       543.32538409
  PAW double counting   =     36933.87004426   -36146.22658204
  entropy T*S    EENTRO =         0.00000000
  eigenvalues    EBANDS =     -1500.40679631
  atomic energy  EATOM  =     34087.34717526
  Solvation  Ediel_sol  =         0.00000000
  ---------------------------------------------------
  free energy    TOTEN  =      -121.17143948 eV

  energy without entropy =     -121.17143948  energy(sigma->0) =     -121.17143948


--------------------------------------------------------------------------------------------------------




--------------------------------------- Iteration      1(  10)  ---------------------------------------


    EDDIAG:  cpu time    3.2227: real time    3.2258
  RMM-DIIS:  cpu time    7.4047: real time    7.4047
    ORTHCH:  cpu time    0.5876: real time    0.5876
 BZINTS: Fermi energy:    0.143065;  407.000000 electrons
         Band energy:-0.150041E+04;  BLOECHL correction:   -0.051609
       DOS:  cpu time    0.0308: real time    0.0308
    --------------------------------------------
      LOOP:  cpu time   11.2456: real time   11.2489

 eigenvalue-minimisations  :  7370
 total energy-change (2. order) :-0.1470471E-05  (-0.1451577E-05)
 number of electron     407.0000085 magnetization 
 augmentation part      407.0000085 magnetization 

 Free energy of the ion-electron system (eV)
  ---------------------------------------------------
  alpha Z        PSCENC =       949.98644442
  Ewald energy   TEWEN  =    128463.76373020
  -Hartree energ DENC   =   -163452.83083936
  -exchange      EXHF   =         0.00000000
  -V(xc)+E(xc)   XCENC  =       543.32538409
  PAW double counting   =     36933.87004426   -36146.22658204
  entropy T*S    EENTRO =         0.00000000
  eigenvalues    EBANDS =     -1500.40679778
  atomic energy  EATOM  =     34087.34717526
  Solvation  Ediel_sol  =         0.00000000
  ---------------------------------------------------
  free energy    TOTEN  =      -121.17144095 eV

  energy without entropy =     -121.17144095  energy(sigma->0) =     -121.17144095


--------------------------------------------------------------------------------------------------------




 average (electrostatic) potential at core
  the test charge radii are     1.2098  1.1199  0.7215
  (the norm of the test charge is              1.0000)
       1 -72.9057       2 -72.8561       3 -72.8561       4 -72.8579       5 -72.8627
       6 -72.8577       7 -72.8593       8 -72.8591       9 -72.8683      10 -73.2283
      11 -73.1963      12 -73.2281      13 -73.1988      14 -73.1987      15 -73.2207
      16 -73.2177      17 -73.2125      18 -73.2125      19 -73.1491      20 -73.1989
      21 -73.1989      22 -73.1927      23 -73.1723      24 -73.1929      25 -73.1565
      26 -73.1567      27 -73.1967      28 -72.7989      29 -72.7433      30 -72.7433
      31 -72.7634      32 -72.7634      33 -72.7397      34 -72.7397      35 -72.7847
      36 -80.2504      37 -77.1720      38 -77.1723
 
 
 
 E-fermi :   0.1431     XC(G=0):  -5.6791     alpha+bet : -5.3233

 Fermi energy:         0.1430653127

 k-point     1 :       0.0000    0.0000    0.0000
  band No.  band energies     occupation 
      1     -24.1456      2.00000
      2     -14.2634      2.00000
      3      -8.6372      2.00000
      4      -7.4975      2.00000
      5      -6.9116      2.00000
      6      -6.5246      2.00000
      7      -6.5100      2.00000
      8      -6.4756      2.00000
      9      -6.4735      2.00000
     10      -6.4725      2.00000
     11      -6.4715      2.00000
     12      -6.4677      2.00000
     13      -6.3579      2.00000
     14      -6.2724      2.00000
     15      -5.9898      2.00000
     16      -5.9859      2.00000
     17      -5.9849      2.00000
     18      -5.9836      2.00000
     19      -5.9788      2.00000
     20      -5.9341      2.00000
     21      -5.6723      2.00000
     22      -5.6096      2.00000
     23      -5.6086      2.00000
     24      -5.6035      2.00000
     25      -5.5913      2.00000
     26      -5.5846      2.00000
     27      -5.5810      2.00000
     28      -5.4382      2.00000
     29      -5.4369      2.00000
     30      -5.4157      2.00000
     31      -5.4134      2.00000
     32      -5.4092      2.00000
     33      -5.3545      2.00000
     34      -5.2706      2.00000
     35      -5.2680      2.00000
     36      -5.2590      2.00000
     37      -5.2519      2.00000
     38      -5.2463      2.00000
     39      -5.2398      2.00000
     40      -5.2306      2.00000
     41      -5.2294      2.00000
     42      -5.2246      2.00000
     43      -5.1479      2.00000
     44      -5.1340      2.00000
     45      -5.0271      2.00000
     46      -4.7727      2.00000
     47      -4.7715      2.00000
     48      -4.7126      2.00000
     49      -4.7106      2.00000
     50      -4.7060      2.00000
     51      -4.6872      2.00000
     52      -4.6851      2.00000
     53      -4.6798      2.00000
     54      -4.6703      2.00000
     55      -4.6459      2.00000
     56      -4.6202      2.00000
     57      -4.6145      2.00000
     58      -4.5352      2.00000
     59      -4.4901      2.00000
     60      -4.1952      2.00000
     61      -4.1803      2.00000
     62      -4.1777      2.00000
     63      -4.1677      2.00000
     64      -4.1533      2.00000
     65      -4.1504      2.00000
     66      -4.1355      2.00000
     67      -4.1202      2.00000
     68      -4.1200      2.00000
     69      -4.0442      2.00000
     70      -4.0427      2.00000
     71      -4.0097      2.00000
     72      -4.0007      2.00000
     73      -3.9989      2.00000
     74      -3.9364      2.00000
     75      -3.9335      2.00000
     76      -3.9195      2.00000
     77      -3.9179      2.00000
     78      -3.9176      2.00000
     79      -3.9062      2.00000
     80      -3.9012      2.00000
     81      -3.8992      2.00000
     82      -3.8922      2.00000
     83      -3.8772      2.00000
     84      -3.8768      2.00000
     85      -3.8371      2.00000
     86      -3.8198      2.00000
     87      -3.7920      2.00000
     88      -3.7902      2.00000
     89      -3.7872      2.00000
     90      -3.7833      2.00000
     91      -3.7801      2.00000
     92      -3.7699      2.00000
     93      -3.7647      2.00000
     94      -3.6943      2.00000
     95      -3.6939      2.00000
     96      -3.5257      2.00000
     97      -3.5243      2.00000
     98      -3.5058      2.00000
     99      -3.5054      2.00000
    100      -3.4955      2.00000
    101      -3.4952      2.00000
    102      -3.4362      2.00000
    103      -3.3585      2.00000
    104      -3.3199      2.00000
    105      -3.3152      2.00000
    106      -3.2992      2.00000
    107      -3.2802      2.00000
    108      -3.2634      2.00000
    109      -3.2321      2.00000
    110      -3.2083      2.00000
    111      -3.1896      2.00000
    112      -3.0879      2.00000
    113      -3.0861      2.00000
    114      -3.0854      2.00000
    115      -3.0824      2.00000
    116      -3.0774      2.00000
    117      -3.0715      2.00000
    118      -3.0347      2.00000
    119      -2.9982      2.00000
    120      -2.9830      2.00000
    121      -2.8672      2.00000
    122      -2.8358      2.00000
    123      -2.8187      2.00000
    124      -2.8156      2.00000
    125      -2.7820      2.00000
    126      -2.7805      2.00000
    127      -2.7628      2.00000
    128      -2.7597      2.00000
    129      -2.7368      2.00000
    130      -2.7352      2.00000
    131      -2.6732      2.00000
    132      -2.6476      2.00000
    133      -2.5864      2.00000
    134      -2.5497      2.00000
    135      -2.5482      2.00000
    136      -2.5442      2.00000
    137      -2.5368      2.00000
    138      -2.5221      2.00000
    139      -2.5219      2.00000
    140      -2.5143      2.00000
    141      -2.5091      2.00000
    142      -2.5055      2.00000
    143      -2.4671      2.00000
    144      -2.4617      2.00000
    145      -2.4054      2.00000
    146      -2.3823      2.00000
    147      -2.2909      2.00000
    148      -2.2819      2.00000
    149      -2.2755      2.00000
    150      -2.2746      2.00000
    151      -2.2550      2.00000
    152      -2.2437      2.00000
    153      -2.2423      2.00000
    154      -2.2396      2.00000
    155      -2.2374      2.00000
    156      -2.2332      2.00000
    157      -2.2250      2.00000
    158      -2.2047      2.00000
    159      -2.0986      2.00000
    160      -2.0959      2.00000
    161      -2.0840      2.00000
    162      -2.0829      2.00000
    163      -2.0827      2.00000
    164      -2.0805      2.00000
    165      -2.0734      2.00000
    166      -2.0624      2.00000
    167      -2.0468      2.00000
    168      -2.0248      2.00000
    169      -2.0241      2.00000
    170      -1.9999      2.00000
    171      -1.9970      2.00000
    172      -1.9792      2.00000
    173      -1.9674      2.00000
    174      -1.9653      2.00000
    175      -1.9647      2.00000
    176      -1.9630      2.00000
    177      -1.9626      2.00000
    178      -1.9584      2.00000
    179      -1.9080      2.00000
    180      -1.8997      2.00000
    181      -1.8977      2.00000
    182      -1.8799      2.00000
    183      -1.8753      2.00000
    184      -1.8700      2.00000
    185      -1.8693      2.00000
    186      -1.8589      2.00000
    187      -1.8473      2.00000
    188      -1.8453      2.00000
    189      -1.7988      2.00000
    190      -1.7214      2.00000
    191      -1.7103      2.00000
    192      -1.6890      2.00000
    193      -1.6663      2.00000
    194      -1.6418      2.00000
    195      -1.6344      2.00000
    196      -1.6242      2.00000
    197      -1.4274      2.00000
    198      -1.3411      2.00000
    199      -1.3052      2.00000
    200      -1.2356      2.00000
    201      -0.7459      2.00000
    202      -0.4390      2.00000
    203      -0.3931      2.00000
    204      -0.3768      2.00000
    205      -0.3755      2.00000
    206      -0.3083      2.00000
    207       0.1152      1.75784
    208       0.2204      0.00000
    209       0.4242      0.00000
    210       0.8102      0.00000
    211       1.7553      0.00000
    212       1.7685      0.00000
    213       1.8041      0.00000
    214       1.8152      0.00000
    215       1.8436      0.00000
    216       2.3472      0.00000
    217       2.9495      0.00000
    218       2.9515      0.00000
    219       2.9877      0.00000
    220       3.0041      0.00000
    221       3.0183      0.00000
    222       3.1562      0.00000
    223       3.6045      0.00000
    224       4.1485      0.00000
    225       4.8058      0.00000
    226       4.8221      0.00000
    227       4.8620      0.00000
    228       4.8725      0.00000
    229       4.8823      0.00000
    230       4.9011      0.00000
    231       4.9508      0.00000
    232       4.9654      0.00000
    233       5.0163      0.00000
    234       5.0344      0.00000
    235       5.2439      0.00000
    236       5.3375      0.00000
    237       5.6108      0.00000
    238       5.9544      0.00000
    239       6.2673      0.00000
    240       6.2806      0.00000
    241       6.4046      0.00000
    242       6.5719      0.00000
    243       6.5758      0.00000
    244       6.5785      0.00000
    245       6.6005      0.00000
    246       6.6076      0.00000
    247       6.6358      0.00000
    248       6.6988      0.00000
    249       6.7112      0.00000
    250       6.7738      0.00000
    251       6.8516      0.00000
    252       6.9301      0.00000

 k-point     2 :       0.1250    0.0000    0.0000
  band No.  band energies     occupation 
      1     -24.1457      2.00000
      2     -14.2635      2.00000
      3      -8.5862      2.00000
      4      -7.4501      2.00000
      5      -6.9040      2.00000
      6      -6.7239      2.00000
      7      -6.5535      2.00000
      8      -6.5452      2.00000
      9      -6.4701      2.00000
     10      -6.4333      2.00000
     11      -6.3577      2.00000
     12      -6.3502      2.00000
     13      -6.3140      2.00000
     14      -6.2410      2.00000
     15      -6.0199      2.00000
     16      -6.0068      2.00000
     17      -5.9652      2.00000
     18      -5.9629      2.00000
     19      -5.9544      2.00000
     20      -5.9116      2.00000
     21      -5.6723      2.00000
     22      -5.6587      2.00000
     23      -5.6073      2.00000
     24      -5.6056      2.00000
     25      -5.5672      2.00000
     26      -5.5536      2.00000
     27      -5.5445      2.00000
     28      -5.5040      2.00000
[...]
  0.000   0.000   0.000   0.000   0.000   0.000   0.000   0.000   0.000   0.000   0.000   0.000   0.000   0.000   0.000   0.000
  0.000   0.000   0.000   0.000   0.000   0.000   0.000   0.000   0.000   0.000   0.000   0.000   0.000   0.000   0.000   0.000
  0.000   0.000   0.000   0.000   0.000   0.000   0.000   0.000   0.000   0.000   1.000   0.000   0.000   0.000   0.000   0.000
  0.000   0.000   0.000   0.000   0.000   0.000   0.000   0.000   0.000   0.000   0.000   0.000   0.000   0.000   0.000   0.000
  0.000   0.000   0.000   0.000   0.000   0.000   0.000   0.000   0.000   0.000   0.000   0.000   0.000   0.000   0.000   0.000
  0.000   0.000   0.000   0.000   0.000   0.000   0.000   0.000   0.000   0.000   0.000   0.000   0.000   0.000   0.000   0.000
  0.000   0.000   0.000   0.000   0.000   0.000   0.000   0.000   0.000   0.000   0.000   0.000   0.000   0.000   0.000   0.000
  0.000   0.000   0.000   0.000   0.000   0.000   0.000   0.000   0.000   0.000   0.000   0.000   0.000   0.000   0.000   0.000
  0.000   0.000   0.000   0.000   0.000   0.000   0.000   0.000   0.000   0.000   0.000   0.000   0.000   0.000   0.000   0.000
  0.000   0.000   0.000   0.000   0.000   0.000   0.000   0.000   0.000   0.000   0.000   0.000   0.000   0.000   0.000   0.000


------------------------ aborting loop because EDIFF is reached ----------------------------------------





 total charge

# of ion       s       p       d       tot
------------------------------------------
    1        0.541   0.241   8.765   9.546
    2        0.545   0.240   8.764   9.550
    3        0.545   0.240   8.764   9.550
    4        0.546   0.240   8.765   9.550
    5        0.540   0.241   8.766   9.546
    6        0.546   0.240   8.765   9.550
    7        0.545   0.240   8.763   9.548
    8        0.545   0.240   8.763   9.548
    9        0.543   0.241   8.765   9.548
   10        0.519   0.309   8.770   9.597
   11        0.521   0.305   8.776   9.601
   12        0.519   0.309   8.770   9.597
   13        0.519   0.305   8.775   9.599
   14        0.519   0.305   8.775   9.599
   15        0.514   0.309   8.773   9.596
   16        0.518   0.308   8.773   9.599
   17        0.515   0.307   8.776   9.598
   18        0.515   0.307   8.776   9.598
   19        0.516   0.302   8.778   9.596
   20        0.525   0.315   8.761   9.601
   21        0.525   0.315   8.761   9.601
   22        0.512   0.305   8.772   9.589
   23        0.523   0.314   8.767   9.604
   24        0.512   0.305   8.772   9.589
   25        0.517   0.302   8.777   9.596
   26        0.517   0.302   8.777   9.596
   27        0.511   0.306   8.769   9.587
   28        0.542   0.233   8.767   9.541
   29        0.541   0.228   8.775   9.544
   30        0.541   0.228   8.775   9.544
   31        0.532   0.231   8.779   9.542
   32        0.532   0.231   8.779   9.542
   33        0.540   0.228   8.776   9.544
   34        0.540   0.228   8.776   9.544
   35        0.542   0.233   8.768   9.544
   36        0.366   0.389   8.460   9.215
   37        1.609   3.249   0.000   4.858
   38        1.609   3.249   0.000   4.858
--------------------------------------------------
tot         22.107  16.417 315.432 353.957
 
    CHARGE:  cpu time    0.7999: real time    0.8000
    FORLOC:  cpu time    0.0114: real time    0.0114
    FORNL :  cpu time    3.3156: real time    3.3158
    STRESS:  cpu time    9.9474: real time    9.9476
    FORCOR:  cpu time    0.0618: real time    0.0618
    FORHAR:  cpu time    0.0193: real time    0.0194
    OFIELD:  cpu time    0.0003: real time    0.0003

  FORCE on cell =-STRESS in cart. coord.  units (eV):
  Direction    XX          YY          ZZ          XY          YZ          ZX
  --------------------------------------------------------------------------------------
  Alpha Z   949.98644   949.98644   949.98644
  Ewald  151573.52870151154.97029************    -0.00032     0.11725    -0.00010
  Hartree160151.75268159952.14434************     0.00001     0.04438    -0.00002
  E(xc)   -1838.17768 -1839.71378 -1845.54684     0.00002     0.01203    -0.00001
  Local  ************************323633.31255     0.00278    -0.15232    -0.00003
  n-local  -110.95071  -112.45164   -88.54844     3.80237    -0.22635     0.29029
  augment  2450.47170  2459.02281  2466.93470    -0.00141    -0.04790     0.00003
  Kinetic  5717.28876  5774.47750  5789.59106     0.47715     0.11069     0.10996
  Fock        0.00000     0.00000     0.00000     0.00000     0.00000     0.00000
  -------------------------------------------------------------------------------------
  Total     -19.61105   -19.36980    -0.12731    -0.00000    -0.14221    -0.00000
  in kB     -19.21042   -18.97410    -0.12471    -0.00000    -0.13930    -0.00000
  external pressure =      -12.77 kB  Pullay stress =        0.00 kB


 VOLUME and BASIS-vectors are now :
 -----------------------------------------------------------------------------
  energy-cutoff  :      500.00
  volume of cell :     1635.59
      direct lattice vectors                 reciprocal lattice vectors
     8.813512802  0.000000000  0.000000000     0.113462137 -0.065507406  0.000000000
     4.406756909  7.632725690  0.000000000     0.000000000  0.131014796  0.000000000
     0.000000000  0.000000000 24.313408842     0.000000000  0.000000000  0.041129568

  length of vectors
     8.813512802  8.813512802 24.313408842     0.131014796  0.131014796  0.041129568


 FORCES acting on ions
    electron-ion (+dipol)            ewald-force                    non-local-force                 convergence-correction
 -----------------------------------------------------------------------------------------------
   -.199E-04 0.338E-01 0.269E+04   0.518E-04 -.172E-01 -.269E+04   0.908E-09 0.136E-01 -.775E+00   -.253E-03 -.296E-01 -.356E+00
   0.388E-01 0.337E+00 0.269E+04   0.219E-02 -.265E+00 -.269E+04   -.158E-01 -.476E-01 -.326E+00   -.175E-01 -.213E-01 -.348E+00
   -.389E-01 0.337E+00 0.269E+04   -.225E-02 -.265E+00 -.269E+04   0.158E-01 -.476E-01 -.326E+00   0.179E-01 -.195E-01 -.347E+00
   0.143E+00 -.148E+00 0.269E+04   -.213E+00 0.126E+00 -.269E+04   0.118E-01 0.164E-02 -.340E+00   0.549E-01 0.155E-01 -.321E+00
   0.806E-05 -.137E-01 0.269E+04   0.952E-04 0.296E-04 -.269E+04   -.114E-08 -.172E-01 -.401E+00   0.420E-02 0.292E-01 -.268E+00
   -.143E+00 -.148E+00 0.269E+04   0.213E+00 0.125E+00 -.269E+04   -.118E-01 0.164E-02 -.340E+00   -.564E-01 0.164E-01 -.321E+00
   0.269E+00 -.152E+00 0.269E+04   -.215E+00 0.139E+00 -.269E+04   -.279E-01 0.837E-02 -.342E+00   -.846E-02 0.599E-02 -.371E+00
   -.269E+00 -.152E+00 0.269E+04   0.215E+00 0.139E+00 -.269E+04   0.279E-01 0.837E-02 -.342E+00   0.102E-01 0.493E-02 -.371E+00
   0.196E-04 -.864E-02 0.269E+04   0.166E-03 0.172E-01 -.269E+04   -.129E-08 -.193E-01 -.430E+00   -.449E-02 0.369E-02 -.354E+00
   0.687E+00 0.486E+00 0.958E+03   -.398E+00 -.368E+00 -.957E+03   -.184E+00 -.777E-01 -.579E+00   -.343E-01 0.211E-02 -.272E+00
   0.163E-04 0.240E+01 0.959E+03   0.148E-03 -.240E+01 -.958E+03   -.383E-08 -.576E-01 -.526E+00   0.410E-02 0.321E-01 -.245E+00
   -.687E+00 0.486E+00 0.958E+03   0.398E+00 -.368E+00 -.957E+03   0.184E+00 -.777E-01 -.579E+00   0.330E-01 0.254E-02 -.272E+00
   0.193E+01 -.113E+01 0.959E+03   -.195E+01 0.122E+01 -.959E+03   -.116E-01 -.317E-01 -.465E+00   0.230E-01 -.505E-01 -.274E+00
   -.193E+01 -.113E+01 0.959E+03   0.195E+01 0.122E+01 -.959E+03   0.116E-01 -.317E-01 -.465E+00   -.161E-01 -.518E-01 -.276E+00
   0.312E-04 -.139E+01 0.956E+03   0.236E-03 0.137E+01 -.955E+03   0.293E-08 0.440E-01 -.432E+00   -.181E-02 -.782E-02 -.307E+00
   -.214E-04 -.774E+00 0.958E+03   0.162E-03 0.500E+00 -.957E+03   0.895E-08 0.134E+00 -.589E+00   -.637E-03 0.546E-01 -.334E+00
   -.103E+01 0.552E+00 0.955E+03   0.111E+01 -.592E+00 -.955E+03   -.362E-01 0.199E-01 -.363E+00   -.316E-01 0.156E-01 -.283E+00
   0.103E+01 0.552E+00 0.955E+03   -.111E+01 -.592E+00 -.955E+03   0.362E-01 0.199E-01 -.363E+00   0.324E-01 0.173E-01 -.281E+00
   -.399E-04 0.221E+00 -.797E+03   0.524E-04 -.347E+00 0.796E+03   0.778E-08 0.117E+00 0.733E+00   0.759E-03 -.872E-02 -.762E-01
   0.173E+02 0.110E+02 -.771E+03   -.170E+02 -.107E+02 0.772E+03   -.397E+00 -.269E+00 -.482E+00   0.112E+00 0.407E-01 0.101E+00
   -.173E+02 0.110E+02 -.771E+03   0.170E+02 -.107E+02 0.772E+03   0.397E+00 -.269E+00 -.482E+00   -.119E+00 0.389E-01 0.101E+00
   0.101E+02 -.676E+01 -.796E+03   -.102E+02 0.686E+01 0.795E+03   0.181E+00 -.111E+00 0.640E+00   0.327E-01 -.231E-02 -.226E-01
   -.110E-04 -.210E+02 -.773E+03   0.145E-03 0.209E+02 0.773E+03   0.212E-07 0.319E+00 -.325E+00   -.512E-02 -.208E+00 0.138E+00
   -.101E+02 -.676E+01 -.796E+03   0.102E+02 0.686E+01 0.795E+03   -.181E+00 -.111E+00 0.640E+00   -.246E-01 -.257E-02 -.227E-01
   0.273E+00 0.512E+00 -.798E+03   -.172E+00 -.481E+00 0.798E+03   -.110E-01 -.588E-01 0.685E+00   -.626E-01 0.259E-01 -.238E-01
   -.273E+00 0.512E+00 -.798E+03   0.172E+00 -.481E+00 0.798E+03   0.110E-01 -.588E-01 0.685E+00   0.617E-01 0.276E-01 -.234E-01
   0.674E-05 0.117E+02 -.797E+03   0.199E-03 -.119E+02 0.796E+03   0.126E-07 0.189E+00 0.652E+00   0.378E-02 0.694E-01 0.205E-01
   -.133E-04 0.410E+01 -.257E+04   0.287E-04 -.395E+01 0.257E+04   -.761E-08 -.114E+00 0.299E+00   0.134E-04 -.369E-01 0.131E+00
   0.319E+02 0.631E+02 -.253E+04   -.319E+02 -.634E+02 0.253E+04   -.154E+00 0.711E-01 0.779E+00   0.755E-01 0.605E-01 0.232E-01
   -.319E+02 0.631E+02 -.253E+04   0.319E+02 -.634E+02 0.253E+04   0.154E+00 0.711E-01 0.779E+00   -.755E-01 0.610E-01 0.225E-01
   0.757E+02 0.857E+00 -.252E+04   -.765E+02 -.836E+00 0.252E+04   0.279E+00 -.778E-02 0.933E+00   0.166E+00 -.467E-02 0.605E-01
   -.757E+02 0.857E+00 -.252E+04   0.765E+02 -.836E+00 0.252E+04   -.279E+00 -.778E-02 0.933E+00   -.166E+00 -.412E-02 0.608E-01
   0.304E+02 -.640E+02 -.253E+04   -.304E+02 0.643E+02 0.253E+04   -.106E+00 -.477E-01 0.759E+00   0.293E-01 -.721E-01 0.677E-01
   -.304E+02 -.640E+02 -.253E+04   0.304E+02 0.643E+02 0.253E+04   0.106E+00 -.477E-01 0.759E+00   -.284E-01 -.721E-01 0.690E-01
   0.281E-04 -.417E+01 -.257E+04   0.147E-03 0.396E+01 0.257E+04   0.956E-08 0.144E+00 0.401E+00   -.383E-02 0.726E-01 0.135E+00
   0.255E-05 -.723E-01 -.201E+04   0.992E-04 0.180E-01 0.200E+04   -.246E-08 -.369E-01 0.267E+01   0.337E-02 0.213E-02 -.162E+00
   0.254E+03 0.965E-01 -.169E+04   -.296E+03 -.937E-03 0.170E+04   0.422E+02 -.884E-01 -.950E+01   -.849E-01 -.715E-02 -.190E+00
   -.254E+03 0.965E-01 -.169E+04   0.296E+03 -.938E-03 0.170E+04   -.422E+02 -.884E-01 -.950E+01   0.806E-01 -.712E-02 -.190E+00
 -----------------------------------------------------------------------------------------------
   -.438E-03 0.568E+00 0.214E+02   0.000E+00 0.134E-12 0.614E-11   -.373E-07 -.560E+00 -.159E+02   0.486E-02 -.760E-02 -.538E+01
 
 
 POSITION                                       TOTAL-FORCE (eV/Angst)
 -----------------------------------------------------------------------------------
      0.00000      0.00000      5.28038         0.000000      0.000661      0.017001
      2.93784      0.00000      5.28038         0.007549      0.004083     -0.040490
      5.87568      0.00000      5.28038        -0.007549      0.004083     -0.040490
      1.46892      2.54424      5.28038        -0.002692     -0.004593     -0.036586
      4.40676      2.54424      5.28038        -0.000000     -0.001697     -0.063493
      7.34459      2.54424      5.28038         0.002692     -0.004593     -0.036586
      2.93784      5.08848      5.28038         0.016574      0.001158     -0.028836
      5.87568      5.08848      5.28038        -0.016574      0.001158     -0.028836
      8.81351      5.08848      5.28038        -0.000000     -0.007064     -0.025665
      1.46892      0.84808      7.67911         0.071378      0.043310      0.080900
      4.40676      0.84808      7.67911        -0.000000     -0.024755      0.045564
      7.34459      0.84808      7.67911        -0.071378      0.043310      0.080900
      2.93784      3.39232      7.67911        -0.010599      0.009016      0.046349
      5.87568      3.39232      7.67911         0.010599      0.009016      0.046349
      8.81351      3.39232      7.67911         0.000000      0.021928      0.099107
      4.40676      5.93656      7.67911        -0.000000     -0.084769      0.066841
      7.34459      5.93656      7.67911         0.011772     -0.003046      0.090375
     10.28243      5.93656      7.67911        -0.011772     -0.003046      0.090375
      8.81351      1.69299     10.06281        -0.000000     -0.017930      0.019193
      2.93673      1.69552     10.07074         0.028974      0.037934      0.039184
      5.87678      1.69552     10.07074        -0.028974      0.037934      0.039184
     10.28200      4.24065     10.07064         0.015271     -0.015630     -0.004325
      4.40676      4.24168     10.07074         0.000000      0.008680     -0.060127
      7.34503      4.24065     10.07064        -0.015271     -0.015630     -0.004325
     11.75410      6.78623     10.06281         0.028375     -0.001258      0.027570
      5.87293      6.78623     10.06281        -0.028375     -0.001258      0.027570
      8.81351      6.78414     10.07064         0.000000      0.031372      0.014752
      0.00000      0.00000     12.49359        -0.000000     -0.006326     -0.049674
      2.94266      0.00661     12.49157        -0.074438     -0.184302     -0.131605
      5.87086      0.00661     12.49157         0.074438     -0.184302     -0.131605
      1.47706      2.54511     12.49157        -0.337766      0.008492     -0.224222
      7.33646      2.54511     12.49157         0.337766      0.008492     -0.224222
      2.94116      5.08100     12.49157        -0.102041      0.188300     -0.126744
      5.87236      5.08100     12.49157         0.102041      0.188300     -0.126744
      8.81351      5.08848     12.49778         0.000000      0.002053     -0.004335
      4.40676      2.54424     12.34091        -0.000000     -0.089053      0.676942
      3.74736      2.54412     14.47863        -0.002676     -0.000015     -0.059624
      5.06616      2.54412     14.47863         0.002676     -0.000015     -0.059624
 -----------------------------------------------------------------------------------
    total drift:                                0.004418     -0.000102      0.125881


--------------------------------------------------------------------------------------------------------



  FREE ENERGIE OF THE ION-ELECTRON SYSTEM (eV)
  ---------------------------------------------------
  free  energy   TOTEN  =      -121.17144095 eV

  energy  without entropy=     -121.17144095  energy(sigma->0) =     -121.17144095
 


--------------------------------------------------------------------------------------------------------


    POTLOK:  cpu time    0.0463: real time    0.0463


--------------------------------------------------------------------------------------------------------


 stress matrix after NEB project (eV)
    -19.61105     -0.00000     -0.00000
     -0.00000    -19.36980     -0.14221
     -0.00000     -0.14221     -0.12731
  FORCES: max atom, RMS     0.059684    0.013692
  FORCE total and by dimension    0.084406    0.059624
  Stress total and by dimension   27.565178   19.611052
     LOOP+:  cpu time  173.8652: real time  173.8771
 -----------------------------------------------------------------------------
|                                                                             |
|           W    W    AA    RRRRR   N    N  II  N    N   GGGG   !!!           |
|           W    W   A  A   R    R  NN   N  II  NN   N  G    G  !!!           |
|           W    W  A    A  R    R  N N  N  II  N N  N  G       !!!           |
|           W WW W  AAAAAA  RRRRR   N  N N  II  N  N N  G  GGG   !            |
|           WW  WW  A    A  R   R   N   NN  II  N   NN  G    G                |
|           W    W  A    A  R    R  N    N  II  N    N   GGGG   !!!           |
|                                                                             |
|     Tetrahedron method does not include variations of the Fermi             |
|     occupations, so forces and stress will be inaccurate. We suggest        |
|     using a different smearing scheme ISMEAR = 1 or 2 for metals in         |
|     relaxations.                                                            |
|                                                                             |
 -----------------------------------------------------------------------------

    4ORBIT:  cpu time    0.0000: real time    0.0000



 total charge

# of ion       s       p       d       tot
------------------------------------------
    1        0.541   0.241   8.765   9.546
    2        0.545   0.240   8.764   9.550
    3        0.545   0.240   8.764   9.550
    4        0.546   0.240   8.765   9.550
    5        0.540   0.241   8.766   9.546
    6        0.546   0.240   8.765   9.550
    7        0.545   0.240   8.763   9.548
    8        0.545   0.240   8.763   9.548
    9        0.543   0.241   8.765   9.548
   10        0.519   0.309   8.770   9.597
   11        0.521   0.305   8.776   9.601
   12        0.519   0.309   8.770   9.597
   13        0.519   0.305   8.775   9.599
   14        0.519   0.305   8.775   9.599
   15        0.514   0.309   8.773   9.596
   16        0.518   0.308   8.773   9.599
   17        0.515   0.307   8.776   9.598
   18        0.515   0.307   8.776   9.598
   19        0.516   0.302   8.778   9.596
   20        0.525   0.315   8.761   9.601
   21        0.525   0.315   8.761   9.601
   22        0.512   0.305   8.772   9.589
   23        0.523   0.314   8.767   9.604
   24        0.512   0.305   8.772   9.589
   25        0.517   0.302   8.777   9.596
   26        0.517   0.302   8.777   9.596
   27        0.511   0.306   8.769   9.587
   28        0.542   0.233   8.767   9.541
   29        0.541   0.228   8.775   9.544
   30        0.541   0.228   8.775   9.544
   31        0.532   0.231   8.779   9.542
   32        0.532   0.231   8.779   9.542
   33        0.540   0.228   8.776   9.544
   34        0.540   0.228   8.776   9.544
   35        0.542   0.233   8.768   9.544
   36        0.366   0.389   8.460   9.215
   37        1.609   3.249   0.000   4.858
   38        1.609   3.249   0.000   4.858
--------------------------------------------------
tot         22.107  16.417 315.432 353.957
 
 BZINTS: Fermi energy:    0.143065;  407.000000 electrons
         Band energy:-0.150041E+04;  BLOECHL correction:   -0.051609

 total amount of memory used by VASP MPI-rank0   197218. kBytes
=======================================================================

   base      :      30000. kBytes
   nonlr-proj:      14109. kBytes
   fftplans  :       4808. kBytes
   grid      :      19857. kBytes
   one-center:        590. kBytes
   wavefun   :     127854. kBytes
 
  
  
 General timing and accounting informations for this job:
 ========================================================
  
                  Total CPU time used (sec):      188.557
                            User time (sec):      182.389
                          System time (sec):        6.167
                         Elapsed time (sec):      188.969
  
                   Maximum memory used (kb):      482256.
                   Average memory used (kb):          N/A
  
                          Minor page faults:       100581
                          Major page faults:            0
                 Voluntary context switches:         6035
