PROCAR new format
# of k-points:   10         # of bands:  252         # of ions:   37

 k-point     1 :    0.00000000 0.00000000 0.00000000     weight = 0.01562500

band     1 # energy   -8.21769094 # occ.  2.00000000
 
ion      s      p      d    tot
    1  0.007  0.001  0.000  0.007
    2  0.007  0.001  0.000  0.007
    3  0.007  0.001  0.000  0.007
    4  0.007  0.001  0.000  0.007
    5  0.007  0.001  0.000  0.007
    6  0.007  0.001  0.000  0.007
    7  0.007  0.001  0.000  0.007
    8  0.007  0.001  0.000  0.007
    9  0.007  0.001  0.000  0.007
   10  0.026  0.000  0.000  0.027
   11  0.027  0.000  0.000  0.028
   12  0.026  0.000  0.000  0.027
   13  0.027  0.000  0.000  0.028
   14  0.027  0.000  0.000  0.028
   15  0.027  0.000  0.000  0.027
   16  0.026  0.000  0.000  0.027
   17  0.027  0.000  0.000  0.027
   18  0.027  0.000  0.000  0.027
   19  0.023  0.000  0.000  0.024
   20  0.026  0.000  0.000  0.027
   21  0.026  0.000  0.000  0.027
   22  0.025  0.000  0.000  0.025
   23  0.026  0.000  0.000  0.027
   24  0.025  0.000  0.000  0.025
   25  0.023  0.000  0.000  0.024
   26  0.023  0.000  0.000  0.024
   27  0.025  0.000  0.000  0.025
   28  0.005  0.000  0.000  0.005
   29  0.005  0.000  0.000  0.005
   30  0.005  0.000  0.000  0.005
   31  0.005  0.000  0.000  0.005
   32  0.005  0.000  0.000  0.005
   33  0.005  0.000  0.000  0.005
   34  0.005  0.000  0.000  0.005
   35  0.005  0.000  0.000  0.005
   36  0.004  0.000  0.000  0.004
   37  0.000  0.000  0.000  0.000
tot    0.565  0.012  0.003  0.580
 
band     2 # energy   -7.02895317 # occ.  2.00000000
 
ion      s      p      d    tot
    1  0.017  0.000  0.001  0.019
    2  0.017  0.000  0.001  0.018
    3  0.017  0.000  0.001  0.018
    4  0.017  0.000  0.001  0.018
    5  0.017  0.000  0.001  0.018
    6  0.017  0.000  0.001  0.018
    7  0.017  0.000  0.001  0.018
    8  0.017  0.000  0.001  0.018
    9  0.017  0.000  0.001  0.019
   10  0.010  0.002  0.003  0.014
   11  0.010  0.002  0.003  0.014
   12  0.010  0.002  0.003  0.014
   13  0.010  0.002  0.003  0.014
   14  0.010  0.002  0.003  0.014
   15  0.010  0.002  0.003  0.014
   16  0.010  0.002  0.003  0.014
   17  0.010  0.002  0.003  0.014
   18  0.010  0.002  0.003  0.014
   19  0.014  0.001  0.004  0.019
   20  0.016  0.001  0.004  0.021
   21  0.016  0.001  0.004  0.021
   22  0.015  0.001  0.004  0.019
   23  0.016  0.001  0.004  0.021
   24  0.015  0.001  0.004  0.019
   25  0.014  0.001  0.004  0.019
   26  0.014  0.001  0.004  0.019
   27  0.015  0.001  0.004  0.019
   28  0.013  0.001  0.000  0.014
   29  0.013  0.001  0.000  0.014
   30  0.013  0.001  0.000  0.014
   31  0.013  0.001  0.000  0.014
   32  0.013  0.001  0.000  0.014
   33  0.013  0.001  0.000  0.014
   34  0.013  0.001  0.000  0.014
   35  0.013  0.001  0.000  0.014
   36  0.008  0.000  0.000  0.008
   37  0.001  0.000  0.000  0.001
tot    0.492  0.032  0.071  0.595
 
band     3 # energy   -6.08967394 # occ.  2.00000000
 
ion      s      p      d    tot
    1  0.002  0.001  0.015  0.017
    2  0.009  0.000  0.011  0.021
    3  0.009  0.000  0.011  0.021
    4  0.009  0.000  0.011  0.021
    5  0.003  0.000  0.008  0.011
    6  0.009  0.000  0.011  0.021
    7  0.009  0.000  0.011  0.021
    8  0.009  0.000  0.011  0.021
    9  0.034  0.001  0.004  0.039
   10  0.013  0.000  0.022  0.036
   11  0.018  0.002  0.012  0.033
   12  0.013  0.000  0.022  0.035
   13  0.018  0.002  0.012  0.033
   14  0.018  0.002  0.012  0.033
   15  0.006  0.001  0.022  0.028
   16  0.013  0.000  0.022  0.035
   17  0.006  0.001  0.022  0.028
   18  0.006  0.001  0.022  0.028
   19  0.001  0.001  0.014  0.016
   20  0.014  0.001  0.013  0.029
   21  0.014  0.001  0.013  0.029
   22  0.012  0.002  0.003  0.016
   23  0.014  0.001  0.013  0.029
   24  0.012  0.002  0.003  0.016
   25  0.001  0.001  0.014  0.015
   26  0.001  0.001  0.014  0.016
   27  0.012  0.002  0.003  0.016
   28  0.003  0.000  0.000  0.004
   29  0.001  0.000  0.003  0.004
   30  0.001  0.000  0.003  0.004
   31  0.001  0.000  0.003  0.004
   32  0.001  0.000  0.003  0.004
   33  0.001  0.000  0.003  0.004
   34  0.001  0.000  0.003  0.004
   35  0.007  0.000  0.000  0.007
   36  0.002  0.001  0.001  0.004
   37  0.000  0.000  0.000  0.000
tot    0.299  0.030  0.375  0.704
 
band     4 # energy   -6.08000563 # occ.  2.00000000
 
ion      s      p      d    tot
    1  0.027  0.000  0.007  0.034
    2  0.012  0.000  0.014  0.027
    3  0.012  0.000  0.014  0.027
    4  0.012  0.000  0.014  0.027
    5  0.016  0.000  0.014  0.030
    6  0.012  0.000  0.014  0.027
    7  0.012  0.000  0.014  0.027
    8  0.012  0.000  0.014  0.027
    9  0.001  0.001  0.017  0.019
   10  0.000  0.000  0.032  0.032
   11  0.001  0.001  0.021  0.023
   12  0.000  0.000  0.032  0.032
   13  0.001  0.001  0.021  0.023
   14  0.001  0.001  0.021  0.023
   15  0.033  0.002  0.010  0.045
   16  0.000  0.000  0.032  0.032
   17  0.033  0.002  0.010  0.045
   18  0.033  0.002  0.010  0.045
   19  0.000  0.001  0.011  0.012
   20  0.012  0.000  0.011  0.022
   21  0.011  0.000  0.011  0.022
   22  0.008  0.002  0.005  0.015
   23  0.011  0.000  0.011  0.022
   24  0.008  0.002  0.005  0.015
   25  0.000  0.001  0.011  0.012
   26  0.000  0.001  0.011  0.012
   27  0.008  0.002  0.005  0.015
   28  0.000  0.000  0.000  0.001
   29  0.000  0.000  0.002  0.002
   30  0.000  0.000  0.002  0.002
   31  0.000  0.000  0.002  0.002
   32  0.000  0.000  0.002  0.002
   33  0.000  0.000  0.002  0.002
   34  0.000  0.000  0.002  0.002
   35  0.001  0.000  0.000  0.002
   36  0.005  0.001  0.001  0.006
   37  0.001  0.000  0.000  0.001
tot    0.286  0.023  0.404  0.714
 
band     5 # energy   -6.06443680 # occ.  2.00000000
 
ion      s      p      d    tot
    1  0.000  0.000  0.006  0.006
    2  0.001  0.000  0.003  0.005
    3  0.002  0.001  0.004  0.006
    4  0.002  0.001  0.003  0.005
    5  0.000  0.001  0.009  0.010
    6  0.007  0.001  0.003  0.012
    7  0.002  0.001  0.004  0.007
    8  0.007  0.001  0.004  0.012
    9  0.000  0.000  0.001  0.002
   10  0.021  0.002  0.006  0.028
   11  0.014  0.002  0.028  0.044
   12  0.006  0.001  0.024  0.031
   13  0.016  0.002  0.027  0.046
   14  0.060  0.001  0.008  0.070
   15  0.002  0.003  0.005  0.011
   16  0.005  0.001  0.026  0.031
   17  0.003  0.003  0.006  0.011
   18  0.010  0.000  0.015  0.025
   19  0.000  0.003  0.006  0.009
   20  0.053  0.001  0.011  0.065
   21  0.014  0.003  0.022  0.039
   22  0.008  0.001  0.026  0.035
   23  0.012  0.003  0.023  0.038
   24  0.030  0.002  0.003  0.035
   25  0.002  0.000  0.013  0.015
   26  0.001  0.003  0.006  0.009
   27  0.007  0.000  0.028  0.035
   28  0.000  0.000  0.001  0.001
   29  0.006  0.001  0.003  0.011
   30  0.001  0.000  0.003  0.004
   31  0.007  0.001  0.003  0.011
   32  0.003  0.001  0.002  0.006
   33  0.001  0.000  0.003  0.004
   34  0.003  0.001  0.002  0.005
   35  0.000  0.000  0.006  0.006
   36  0.000  0.001  0.002  0.003
   37  0.000  0.000  0.000  0.000
tot    0.307  0.043  0.343  0.693
 
band     6 # energy   -6.06443040 # occ.  2.00000000
 
ion      s      p      d    tot
    1  0.000  0.000  0.006  0.006
    2  0.006  0.001  0.004  0.011
    3  0.005  0.001  0.003  0.009
    4  0.006  0.001  0.004  0.011
    5  0.000  0.001  0.009  0.010
    6  0.000  0.000  0.003  0.003
    7  0.005  0.001  0.003  0.009
    8  0.000  0.000  0.003  0.003
    9  0.000  0.000  0.001  0.002
   10  0.000  0.000  0.031  0.032
   11  0.047  0.001  0.014  0.062
   12  0.015  0.001  0.013  0.029
   13  0.044  0.002  0.015  0.061
   14  0.000  0.002  0.034  0.037
   15  0.008  0.001  0.012  0.021
   16  0.016  0.001  0.011  0.029
   17  0.007  0.001  0.012  0.020
   18  0.000  0.004  0.002  0.006
   19  0.002  0.001  0.010  0.013
   20  0.000  0.003  0.026  0.030
   21  0.038  0.002  0.015  0.055
   22  0.022  0.001  0.012  0.035
   23  0.041  0.002  0.014  0.057
   24  0.000  0.000  0.035  0.035
   25  0.000  0.003  0.004  0.007
   26  0.002  0.001  0.010  0.013
   27  0.023  0.002  0.010  0.035
   28  0.000  0.000  0.001  0.001
   29  0.000  0.000  0.002  0.003
   30  0.006  0.001  0.003  0.010
   31  0.000  0.000  0.002  0.003
   32  0.004  0.001  0.003  0.008
   33  0.006  0.001  0.003  0.010
   34  0.004  0.001  0.003  0.008
   35  0.000  0.000  0.006  0.006
   36  0.000  0.001  0.002  0.003
   37  0.000  0.000  0.000  0.000
tot    0.307  0.043  0.343  0.693
 
band     7 # energy   -6.04684222 # occ.  2.00000000
 
ion      s      p      d    tot
    1  0.007  0.001  0.001  0.009
    2  0.000  0.001  0.006  0.007
    3  0.000  0.001  0.006  0.007
    4  0.000  0.001  0.006  0.007
    5  0.017  0.002  0.001  0.020
    6  0.000  0.001  0.006  0.007
    7  0.000  0.001  0.006  0.007
    8  0.000  0.001  0.006  0.007
    9  0.000  0.000  0.002  0.002
   10  0.026  0.003  0.002  0.031
   11  0.020  0.001  0.023  0.044
   12  0.026  0.003  0.001  0.031
   13  0.020  0.001  0.023  0.044
   14  0.020  0.001  0.023  0.044
   15  0.000  0.001  0.024  0.025
   16  0.026  0.003  0.001  0.031
   17  0.000  0.001  0.024  0.025
   18  0.000  0.001  0.024  0.025
   19  0.025  0.002  0.006  0.033
   20  0.005  0.002  0.017  0.024
   21  0.005  0.002  0.016  0.024
   22  0.009  0.000  0.026  0.035
   23  0.005  0.002  0.016  0.024
   24  0.009  0.000  0.026  0.035
   25  0.025  0.002  0.006  0.033
   26  0.025  0.002  0.006  0.033
   27  0.009  0.000  0.026  0.035
   28  0.011  0.001  0.001  0.013
   29  0.000  0.000  0.004  0.004
   30  0.000  0.000  0.004  0.004
   31  0.000  0.000  0.004  0.004
   32  0.000  0.000  0.004  0.004
   33  0.000  0.000  0.004  0.004
   34  0.000  0.000  0.004  0.004
   35  0.004  0.001  0.002  0.007
   36  0.000  0.000  0.000  0.000
   37  0.000  0.000  0.000  0.000
tot    0.299  0.040  0.356  0.695
 
band     8 # energy   -6.02362123 # occ.  2.00000000
 
ion      s      p      d    tot
    1  0.000  0.001  0.006  0.007
    2  0.006  0.001  0.004  0.012
    3  0.006  0.001  0.003  0.011
    4  0.007  0.001  0.004  0.012
    5  0.000  0.000  0.003  0.003
    6  0.000  0.000  0.003  0.004
    7  0.007  0.001  0.004  0.011
    8  0.000  0.000  0.003  0.004
    9  0.000  0.001  0.011  0.012
   10  0.042  0.000  0.015  0.057
   11  0.000  0.002  0.013  0.016
   12  0.009  0.003  0.012  0.025
   13  0.000  0.002  0.013  0.016
   14  0.001  0.001  0.012  0.013
   15  0.016  0.001  0.035  0.051
   16  0.012  0.003  0.012  0.028
   17  0.012  0.001  0.038  0.050
   18  0.055  0.002  0.003  0.060
   19  0.014  0.001  0.027  0.041
   20  0.006  0.001  0.009  0.016
   21  0.001  0.001  0.017  0.019
   22  0.005  0.003  0.010  0.018
   23  0.002  0.001  0.016  0.019
   24  0.023  0.000  0.014  0.037
   25  0.048  0.002  0.004  0.054
   26  0.010  0.001  0.029  0.040
   27  0.006  0.003  0.010  0.020
   28  0.000  0.001  0.006  0.007
   29  0.000  0.000  0.002  0.002
   30  0.003  0.001  0.002  0.006
   31  0.000  0.000  0.002  0.002
   32  0.003  0.001  0.003  0.006
   33  0.003  0.001  0.002  0.006
   34  0.003  0.001  0.003  0.006
   35  0.000  0.000  0.002  0.003
   36  0.000  0.000  0.001  0.001
   37  0.000  0.000  0.000  0.000
tot    0.300  0.042  0.352  0.693
 
band     9 # energy   -6.02361324 # occ.  2.00000000
 
ion      s      p      d    tot
    1  0.000  0.001  0.006  0.007
    2  0.002  0.001  0.003  0.006
    3  0.003  0.001  0.004  0.007
    4  0.002  0.001  0.003  0.005
    5  0.000  0.000  0.003  0.003
    6  0.009  0.001  0.004  0.014
    7  0.002  0.001  0.004  0.006
    8  0.008  0.001  0.004  0.014
    9  0.000  0.001  0.011  0.012
   10  0.000  0.004  0.012  0.016
   11  0.000  0.001  0.012  0.014
   12  0.033  0.001  0.014  0.049
   13  0.001  0.001  0.012  0.014
   14  0.000  0.003  0.014  0.016
   15  0.039  0.001  0.016  0.057
   16  0.030  0.001  0.014  0.046
   17  0.043  0.002  0.013  0.057
   18  0.000  0.000  0.047  0.048
   19  0.034  0.002  0.013  0.049
   20  0.000  0.001  0.019  0.020
   21  0.005  0.001  0.011  0.017
   22  0.018  0.001  0.013  0.032
   23  0.004  0.001  0.012  0.017
   24  0.000  0.004  0.009  0.013
   25  0.000  0.001  0.035  0.036
   26  0.038  0.002  0.011  0.050
   27  0.016  0.001  0.012  0.030
   28  0.000  0.001  0.006  0.007
   29  0.004  0.001  0.002  0.007
   30  0.001  0.000  0.002  0.003
   31  0.004  0.001  0.002  0.007
   32  0.001  0.000  0.001  0.003
   33  0.001  0.000  0.002  0.004
   34  0.001  0.000  0.001  0.003
   35  0.000  0.000  0.002  0.003
   36  0.000  0.000  0.001  0.001
   37  0.000  0.000  0.000  0.000
tot    0.300  0.042  0.352  0.693
 
band    10 # energy   -5.91815757 # occ.  2.00000000
 
ion      s      p      d    tot
    1  0.000  0.000  0.000  0.000
    2  0.000  0.000  0.000  0.001
    3  0.000  0.000  0.000  0.001
    4  0.000  0.000  0.000  0.001
    5  0.001  0.000  0.000  0.001
    6  0.000  0.000  0.000  0.001
    7  0.000  0.000  0.000  0.001
    8  0.000  0.000  0.000  0.001
    9  0.000  0.000  0.000  0.000
   10  0.000  0.000  0.003  0.003
   11  0.001  0.000  0.002  0.003
   12  0.000  0.000  0.003  0.003
   13  0.001  0.000  0.002  0.003
   14  0.001  0.000  0.002  0.003
   15  0.000  0.000  0.003  0.003
   16  0.000  0.000  0.003  0.003
   17  0.000  0.000  0.003  0.003
   18  0.000  0.000  0.003  0.003
   19  0.006  0.001  0.021  0.028
   20  0.004  0.001  0.027  0.032
   21  0.004  0.001  0.027  0.032
   22  0.006  0.001  0.027  0.035
   23  0.004  0.001  0.027  0.032
   24  0.006  0.001  0.027  0.035
   25  0.006  0.001  0.021  0.028
   26  0.006  0.001  0.021  0.028
   27  0.006  0.001  0.027  0.035
   28  0.026  0.000  0.021  0.047
   29  0.026  0.000  0.022  0.047
   30  0.026  0.000  0.022  0.047
   31  0.026  0.000  0.022  0.047
   32  0.026  0.000  0.022  0.047
   33  0.026  0.000  0.022  0.047
   34  0.026  0.000  0.022  0.047
   35  0.030  0.000  0.022  0.051
   36  0.009  0.001  0.002  0.012
   37  0.002  0.000  0.000  0.002
tot    0.277  0.011  0.426  0.714
 
band    11 # energy   -5.58971632 # occ.  2.00000000
 
ion      s      p      d    tot
    1  0.015  0.002  0.002  0.019
    2  0.000  0.001  0.008  0.009
    3  0.000  0.001  0.008  0.009
    4  0.000  0.001  0.008  0.009
    5  0.000  0.000  0.002  0.002
    6  0.000  0.001  0.008  0.009
    7  0.000  0.001  0.008  0.009
    8  0.000  0.001  0.008  0.009
    9  0.016  0.001  0.000  0.017
   10  0.010  0.002  0.012  0.024
   11  0.003  0.000  0.042  0.045
   12  0.010  0.002  0.012  0.024
   13  0.003  0.000  0.042  0.045
   14  0.003  0.000  0.042  0.045
   15  0.003  0.001  0.026  0.030
   16  0.010  0.002  0.012  0.024
   17  0.003  0.001  0.026  0.030
   18  0.003  0.001  0.026  0.030
   19  0.006  0.001  0.011  0.018
   20  0.001  0.000  0.049  0.051
   21  0.001  0.000  0.049  0.050
   22  0.011  0.001  0.022  0.033
   23  0.001  0.000  0.049  0.050
   24  0.011  0.001  0.022  0.033
   25  0.006  0.001  0.011  0.018
   26  0.006  0.001  0.011  0.018
   27  0.011  0.001  0.022  0.033
   28  0.010  0.001  0.001  0.013
   29  0.000  0.000  0.005  0.006
   30  0.000  0.000  0.005  0.006
   31  0.000  0.000  0.005  0.006
   32  0.000  0.000  0.005  0.006
   33  0.000  0.000  0.005  0.006
   34  0.000  0.000  0.005  0.006
   35  0.008  0.001  0.002  0.011
   36  0.001  0.000  0.000  0.001
   37  0.000  0.000  0.000  0.000
tot    0.149  0.028  0.578  0.754
 
band    12 # energy   -5.57609811 # occ.  2.00000000
 
ion      s      p      d    tot
    1  0.000  0.001  0.004  0.005
    2  0.000  0.001  0.005  0.006
    3  0.009  0.001  0.005  0.015
    4  0.000  0.001  0.005  0.006
    5  0.000  0.001  0.011  0.012
    6  0.005  0.001  0.004  0.010
    7  0.009  0.001  0.005  0.015
    8  0.005  0.001  0.004  0.010
    9  0.000  0.000  0.009  0.009
   10  0.000  0.001  0.051  0.051
   11  0.015  0.001  0.021  0.037
   12  0.007  0.002  0.019  0.028
   13  0.015  0.001  0.021  0.037
   14  0.000  0.000  0.051  0.051
   15  0.001  0.000  0.020  0.022
   16  0.007  0.002  0.019  0.027
   17  0.001  0.000  0.020  0.022
   18  0.000  0.001  0.011  0.012
   19  0.007  0.000  0.019  0.026
   20  0.000  0.000  0.070  0.070
   21  0.018  0.001  0.022  0.041
   22  0.002  0.001  0.019  0.022
   23  0.018  0.001  0.022  0.041
   24  0.000  0.001  0.034  0.035
   25  0.000  0.001  0.013  0.014
   26  0.007  0.000  0.019  0.026
   27  0.002  0.001  0.019  0.022
   28  0.000  0.000  0.008  0.008
   29  0.002  0.001  0.004  0.006
   30  0.010  0.001  0.004  0.015
   31  0.002  0.001  0.004  0.006
   32  0.003  0.001  0.004  0.008
   33  0.010  0.001  0.004  0.015
   34  0.003  0.001  0.004  0.008
   35  0.000  0.000  0.003  0.004
   36  0.000  0.002  0.002  0.003
   37  0.000  0.000  0.000  0.000
tot    0.159  0.031  0.557  0.747
 
band    13 # energy   -5.57608459 # occ.  2.00000000
 
ion      s      p      d    tot
    1  0.000  0.001  0.004  0.005
    2  0.009  0.001  0.004  0.015
    3  0.001  0.000  0.004  0.006
    4  0.009  0.001  0.004  0.015
    5  0.000  0.001  0.011  0.012
    6  0.004  0.001  0.005  0.010
    7  0.001  0.000  0.004  0.006
    8  0.004  0.001  0.005  0.010
    9  0.000  0.000  0.009  0.009
   10  0.009  0.002  0.008  0.020
   11  0.005  0.000  0.041  0.047
   12  0.002  0.001  0.040  0.043
   13  0.005  0.000  0.041  0.047
   14  0.020  0.001  0.011  0.033
   15  0.000  0.001  0.014  0.015
   16  0.002  0.001  0.040  0.043
   17  0.000  0.001  0.014  0.015
   18  0.002  0.000  0.023  0.025
   19  0.002  0.001  0.015  0.018
   20  0.023  0.002  0.006  0.031
   21  0.006  0.000  0.054  0.060
   22  0.001  0.001  0.029  0.031
   23  0.006  0.000  0.054  0.061
   24  0.003  0.001  0.014  0.018
   25  0.009  0.000  0.021  0.030
   26  0.002  0.001  0.015  0.018
   27  0.001  0.001  0.029  0.031
   28  0.000  0.000  0.008  0.008
   29  0.008  0.001  0.004  0.013
   30  0.000  0.001  0.004  0.005
   31  0.008  0.001  0.004  0.013
   32  0.007  0.001  0.004  0.011
   33  0.000  0.001  0.004  0.005
   34  0.007  0.001  0.004  0.011
   35  0.000  0.000  0.003  0.004
   36  0.000  0.002  0.002  0.003
   37  0.000  0.000  0.000  0.000
tot    0.159  0.031  0.557  0.747
 
band    14 # energy   -5.55743043 # occ.  2.00000000
 
ion      s      p      d    tot
    1  0.006  0.000  0.001  0.007
    2  0.000  0.001  0.008  0.009
    3  0.000  0.001  0.008  0.009
    4  0.000  0.001  0.008  0.009
    5  0.019  0.002  0.000  0.021
    6  0.000  0.001  0.008  0.009
    7  0.000  0.001  0.008  0.009
    8  0.000  0.001  0.008  0.009
    9  0.004  0.001  0.002  0.007
   10  0.000  0.000  0.043  0.044
   11  0.006  0.002  0.011  0.019
   12  0.000  0.000  0.044  0.044
   13  0.006  0.002  0.011  0.019
   14  0.006  0.002  0.011  0.019
   15  0.008  0.001  0.024  0.034
   16  0.000  0.000  0.044  0.044
   17  0.008  0.001  0.024  0.034
   18  0.008  0.001  0.024  0.034
   19  0.009  0.000  0.040  0.049
   20  0.010  0.002  0.010  0.023
   21  0.010  0.002  0.010  0.023
   22  0.001  0.000  0.033  0.034
   23  0.010  0.002  0.010  0.023
   24  0.001  0.000  0.033  0.034
   25  0.009  0.000  0.040  0.049
   26  0.009  0.000  0.040  0.049
   27  0.001  0.000  0.033  0.034
   28  0.001  0.001  0.004  0.006
   29  0.000  0.001  0.005  0.005
   30  0.000  0.001  0.005  0.005
   31  0.000  0.001  0.005  0.005
   32  0.000  0.001  0.005  0.006
   33  0.000  0.001  0.005  0.005
   34  0.000  0.001  0.005  0.006
   35  0.004  0.000  0.000  0.005
   36  0.010  0.001  0.001  0.013
   37  0.001  0.000  0.000  0.001
tot    0.150  0.029  0.575  0.754
 
band    15 # energy   -5.53124058 # occ.  2.00000000
 
ion      s      p      d    tot
    1  0.000  0.001  0.015  0.015
    2  0.010  0.001  0.005  0.016
    3  0.002  0.000  0.005  0.008
    4  0.010  0.001  0.005  0.016
    5  0.000  0.000  0.005  0.005
    6  0.003  0.001  0.006  0.009
    7  0.002  0.000  0.005  0.008
    8  0.003  0.001  0.006  0.010
    9  0.000  0.001  0.008  0.009
   10  0.000  0.001  0.028  0.029
   11  0.001  0.001  0.020  0.022
   12  0.007  0.000  0.023  0.030
   13  0.001  0.001  0.020  0.022
   14  0.000  0.001  0.020  0.021
   15  0.011  0.002  0.021  0.034
   16  0.007  0.000  0.023  0.030
   17  0.011  0.002  0.021  0.034
   18  0.000  0.000  0.065  0.065
   19  0.013  0.001  0.020  0.034
   20  0.000  0.002  0.018  0.020
   21  0.000  0.001  0.022  0.023
   22  0.018  0.001  0.021  0.040
   23  0.000  0.001  0.022  0.023
   24  0.000  0.000  0.034  0.035
   25  0.000  0.000  0.067  0.067
   26  0.013  0.001  0.020  0.034
   27  0.018  0.001  0.021  0.040
   28  0.000  0.001  0.004  0.005
   29  0.005  0.001  0.004  0.010
   30  0.000  0.000  0.004  0.005
   31  0.005  0.001  0.004  0.010
   32  0.003  0.001  0.002  0.006
   33  0.000  0.000  0.004  0.005
   34  0.003  0.001  0.002  0.006
   35  0.000  0.001  0.008  0.008
   36  0.000  0.000  0.000  0.000
   37  0.000  0.000  0.000  0.000
tot    0.147  0.028  0.576  0.752
 
band    16 # energy   -5.53123077 # occ.  2.00000000
 
ion      s      p      d    tot
    1  0.000  0.001  0.015  0.015
    2  0.000  0.000  0.006  0.006
    3  0.008  0.001  0.005  0.015
    4  0.000  0.000  0.006  0.006
    5  0.000  0.000  0.005  0.005
    6  0.007  0.001  0.005  0.013
    7  0.008  0.001  0.005  0.015
    8  0.007  0.001  0.005  0.012
    9  0.000  0.001  0.008  0.009
   10  0.009  0.000  0.021  0.030
   11  0.000  0.001  0.020  0.022
   12  0.002  0.001  0.026  0.029
   13  0.000  0.001  0.020  0.022
   14  0.001  0.001  0.020  0.022
   15  0.004  0.001  0.050  0.055
   16  0.002  0.001  0.026  0.029
   17  0.004  0.001  0.051  0.055
   18  0.015  0.002  0.006  0.024
   19  0.004  0.001  0.051  0.056
   20  0.000  0.000  0.023  0.023
   21  0.000  0.001  0.019  0.021
   22  0.006  0.001  0.030  0.036
   23  0.000  0.001  0.019  0.021
   24  0.024  0.001  0.017  0.041
   25  0.017  0.001  0.004  0.023
   26  0.004  0.001  0.052  0.056
   27  0.006  0.001  0.030  0.036
   28  0.000  0.001  0.004  0.005
   29  0.001  0.000  0.003  0.004
   30  0.005  0.001  0.003  0.009
   31  0.001  0.000  0.003  0.004
   32  0.003  0.001  0.004  0.008
   33  0.005  0.001  0.002  0.009
   34  0.003  0.001  0.004  0.008
   35  0.000  0.001  0.008  0.008
   36  0.000  0.000  0.000  0.000
   37  0.000  0.000  0.000  0.000
tot    0.147  0.028  0.576  0.752
 
band    17 # energy   -5.19551606 # occ.  2.00000000
 
ion      s      p      d    tot
    1  0.000  0.000  0.016  0.017
    2  0.000  0.001  0.012  0.012
    3  0.006  0.000  0.015  0.022
    4  0.000  0.001  0.012  0.012
    5  0.000  0.000  0.029  0.030
    6  0.008  0.001  0.009  0.018
    7  0.006  0.000  0.015  0.022
    8  0.008  0.001  0.009  0.018
    9  0.000  0.001  0.007  0.008
   10  0.000  0.000  0.018  0.018
   11  0.000  0.000  0.049  0.049
   12  0.000  0.000  0.010  0.010
   13  0.000  0.000  0.049  0.049
   14  0.000  0.000  0.044  0.044
   15  0.000  0.000  0.031  0.031
   16  0.000  0.000  0.010  0.010
   17  0.000  0.000  0.031  0.031
   18  0.000  0.000  0.046  0.046
   19  0.000  0.000  0.010  0.011
   20  0.001  0.000  0.050  0.052
   21  0.000  0.000  0.035  0.036
   22  0.000  0.000  0.034  0.034
   23  0.000  0.000  0.035  0.036
   24  0.000  0.000  0.034  0.035
   25  0.001  0.000  0.012  0.012
   26  0.000  0.000  0.010  0.011
   27  0.000  0.000  0.034  0.034
   28  0.000  0.000  0.012  0.012
   29  0.007  0.001  0.012  0.019
   30  0.000  0.001  0.008  0.008
   31  0.007  0.001  0.012  0.019
   32  0.008  0.001  0.006  0.015
   33  0.000  0.001  0.008  0.009
   34  0.008  0.001  0.006  0.015
   35  0.000  0.000  0.017  0.017
   36  0.000  0.002  0.001  0.003
   37  0.000  0.000  0.000  0.000
tot    0.063  0.015  0.749  0.827
 
band    18 # energy   -5.19551004 # occ.  2.00000000
 
ion      s      p      d    tot
    1  0.000  0.000  0.016  0.017
    2  0.009  0.001  0.013  0.023
    3  0.003  0.001  0.009  0.013
    4  0.009  0.001  0.013  0.023
    5  0.000  0.000  0.029  0.030
    6  0.002  0.000  0.015  0.017
    7  0.003  0.001  0.009  0.013
    8  0.002  0.000  0.015  0.017
    9  0.000  0.001  0.007  0.008
   10  0.000  0.000  0.007  0.007
   11  0.000  0.000  0.046  0.046
   12  0.000  0.000  0.015  0.016
   13  0.000  0.000  0.046  0.046
   14  0.000  0.000  0.050  0.051
   15  0.000  0.000  0.041  0.041
   16  0.000  0.000  0.015  0.015
   17  0.000  0.000  0.041  0.041
   18  0.000  0.000  0.026  0.026
   19  0.001  0.000  0.011  0.012
   20  0.000  0.000  0.030  0.031
   21  0.001  0.000  0.045  0.046
   22  0.000  0.000  0.034  0.035
   23  0.001  0.000  0.045  0.046
   24  0.000  0.000  0.034  0.034
   25  0.000  0.000  0.010  0.010
   26  0.001  0.000  0.011  0.012
   27  0.000  0.000  0.034  0.035
   28  0.000  0.000  0.012  0.012
   29  0.003  0.001  0.006  0.009
   30  0.010  0.001  0.009  0.020
   31  0.003  0.001  0.006  0.010
   32  0.002  0.001  0.011  0.013
   33  0.010  0.001  0.009  0.020
   34  0.002  0.001  0.011  0.013
   35  0.000  0.000  0.017  0.017
   36  0.000  0.001  0.001  0.003
   37  0.000  0.000  0.000  0.000
tot    0.063  0.015  0.749  0.827
 
band    19 # energy   -5.17985572 # occ.  2.00000000
 
ion      s      p      d    tot
    1  0.015  0.001  0.001  0.017
    2  0.000  0.001  0.015  0.015
    3  0.000  0.001  0.015  0.015
    4  0.000  0.001  0.015  0.015
    5  0.010  0.000  0.014  0.023
    6  0.000  0.001  0.015  0.015
    7  0.000  0.001  0.015  0.015
    8  0.000  0.001  0.015  0.015
    9  0.001  0.000  0.007  0.008
   10  0.000  0.000  0.027  0.027
   11  0.000  0.000  0.038  0.039
   12  0.000  0.000  0.027  0.027
   13  0.000  0.000  0.038  0.039
   14  0.000  0.000  0.039  0.039
   15  0.000  0.000  0.040  0.040
   16  0.000  0.000  0.027  0.027
   17  0.000  0.000  0.040  0.040
   18  0.000  0.000  0.039  0.040
   19  0.000  0.000  0.025  0.025
   20  0.001  0.000  0.028  0.029
   21  0.001  0.000  0.028  0.029
   22  0.001  0.000  0.029  0.030
   23  0.001  0.000  0.028  0.029
   24  0.001  0.000  0.029  0.031
   25  0.000  0.000  0.025  0.025
   26  0.000  0.000  0.025  0.025
   27  0.001  0.000  0.029  0.030
   28  0.015  0.001  0.001  0.017
   29  0.000  0.001  0.013  0.014
   30  0.000  0.001  0.013  0.014
   31  0.000  0.001  0.013  0.014
   32  0.000  0.001  0.013  0.014
   33  0.000  0.001  0.013  0.014
   34  0.000  0.001  0.013  0.014
   35  0.009  0.000  0.004  0.013
   36  0.000  0.000  0.002  0.002
   37  0.000  0.000  0.000  0.000
tot    0.056  0.013  0.758  0.828
 
band    20 # energy   -5.17395954 # occ.  2.00000000
 
ion      s      p      d    tot
    1  0.001  0.000  0.012  0.014
    2  0.000  0.001  0.019  0.019
    3  0.000  0.001  0.019  0.019
    4  0.000  0.001  0.019  0.019
    5  0.014  0.001  0.001  0.017
    6  0.000  0.001  0.019  0.020
    7  0.000  0.001  0.019  0.019
    8  0.000  0.001  0.019  0.020
    9  0.025  0.001  0.007  0.032
   10  0.000  0.000  0.043  0.043
   11  0.000  0.001  0.039  0.039
   12  0.000  0.000  0.043  0.043
   13  0.000  0.001  0.039  0.039
   14  0.000  0.001  0.038  0.039
   15  0.000  0.000  0.031  0.031
   16  0.000  0.000  0.043  0.043
   17  0.000  0.000  0.031  0.031
   18  0.000  0.000  0.031  0.032
   19  0.001  0.000  0.023  0.024
   20  0.001  0.000  0.036  0.037
   21  0.001  0.000  0.036  0.037
   22  0.000  0.000  0.017  0.017
   23  0.001  0.000  0.036  0.037
   24  0.000  0.000  0.017  0.017
   25  0.001  0.000  0.023  0.024
   26  0.001  0.000  0.023  0.024
   27  0.000  0.000  0.017  0.017
   28  0.001  0.000  0.004  0.006
   29  0.000  0.000  0.009  0.009
   30  0.000  0.000  0.009  0.009
   31  0.000  0.000  0.009  0.009
   32  0.000  0.000  0.009  0.009
   33  0.000  0.000  0.009  0.009
   34  0.000  0.000  0.009  0.009
   35  0.001  0.000  0.001  0.003
   36  0.005  0.000  0.001  0.006
   37  0.000  0.000  0.000  0.000
tot    0.055  0.016  0.756  0.827
 
band    21 # energy   -5.14342408 # occ.  2.00000000
 
ion      s      p      d    tot
    1  0.000  0.002  0.014  0.015
    2  0.002  0.001  0.014  0.017
    3  0.006  0.001  0.018  0.025
    4  0.002  0.001  0.014  0.017
    5  0.000  0.001  0.014  0.015
    6  0.014  0.001  0.011  0.027
    7  0.006  0.001  0.018  0.025
    8  0.014  0.001  0.011  0.027
    9  0.000  0.000  0.035  0.035
   10  0.000  0.000  0.069  0.069
   11  0.000  0.000  0.035  0.035
   12  0.000  0.001  0.059  0.059
   13  0.000  0.000  0.035  0.035
   14  0.000  0.000  0.024  0.024
   15  0.000  0.001  0.028  0.030
   16  0.000  0.001  0.059  0.059
   17  0.000  0.001  0.028  0.030
   18  0.000  0.000  0.032  0.033
   19  0.001  0.000  0.033  0.034
   20  0.000  0.001  0.018  0.019
   21  0.000  0.000  0.021  0.021
   22  0.003  0.000  0.016  0.019
   23  0.000  0.000  0.021  0.021
   24  0.000  0.000  0.006  0.006
   25  0.000  0.000  0.021  0.021
   26  0.001  0.000  0.033  0.034
   27  0.003  0.000  0.016  0.019
   28  0.000  0.000  0.009  0.010
   29  0.003  0.000  0.005  0.008
   30  0.000  0.000  0.006  0.007
   31  0.003  0.000  0.005  0.008
   32  0.002  0.000  0.002  0.005
   33  0.000  0.000  0.006  0.007
   34  0.002  0.000  0.002  0.005
   35  0.000  0.001  0.005  0.006
   36  0.000  0.000  0.001  0.001