PROCAR new format
# of k-points:   10         # of bands:  252         # of ions:   38

 k-point     1 :    0.00000000 0.00000000 0.00000000     weight = 0.01562500

band     1 # energy  -21.62307112 # occ.  2.00000000
 
ion      s      p      d    tot
    1  0.000  0.000  0.000  0.000
    2  0.000  0.000  0.000  0.000
    3  0.000  0.000  0.000  0.000
    4  0.000  0.000  0.000  0.000
    5  0.000  0.000  0.000  0.000
    6  0.000  0.000  0.000  0.000
    7  0.000  0.000  0.000  0.000
    8  0.000  0.000  0.000  0.000
    9  0.000  0.000  0.000  0.000
   10  0.000  0.000  0.000  0.000
   11  0.000  0.000  0.000  0.000
   12  0.000  0.000  0.000  0.000
   13  0.000  0.000  0.000  0.000
   14  0.000  0.000  0.000  0.000
   15  0.000  0.000  0.000  0.000
   16  0.000  0.000  0.000  0.000
   17  0.000  0.000  0.000  0.000
   18  0.000  0.000  0.000  0.000
   19  0.000  0.000  0.000  0.000
   20  0.000  0.000  0.000  0.000
   21  0.000  0.000  0.000  0.000
   22  0.000  0.000  0.000  0.000
   23  0.000  0.000  0.000  0.000
   24  0.000  0.000  0.000  0.000
   25  0.000  0.000  0.000  0.000
   26  0.000  0.000  0.000  0.000
   27  0.000  0.000  0.000  0.000
   28  0.000  0.000  0.000  0.000
   29  0.000  0.000  0.000  0.000
   30  0.000  0.000  0.000  0.000
   31  0.000  0.000  0.000  0.000
   32  0.000  0.000  0.000  0.000
   33  0.000  0.000  0.000  0.000
   34  0.000  0.000  0.000  0.000
   35  0.000  0.000  0.000  0.000
   36  0.000  0.000  0.000  0.001
   37  0.154  0.109  0.000  0.263
   38  0.635  0.090  0.000  0.725
tot    0.789  0.199  0.000  0.989
 
band     2 # energy   -8.04852347 # occ.  2.00000000
 
ion      s      p      d    tot
    1  0.000  0.000  0.000  0.000
    2  0.000  0.000  0.000  0.000
    3  0.000  0.000  0.000  0.000
    4  0.000  0.000  0.000  0.000
    5  0.000  0.000  0.000  0.000
    6  0.000  0.000  0.000  0.000
    7  0.000  0.000  0.000  0.000
    8  0.000  0.000  0.000  0.000
    9  0.000  0.000  0.000  0.000
   10  0.000  0.000  0.000  0.000
   11  0.000  0.000  0.000  0.000
   12  0.000  0.000  0.000  0.000
   13  0.000  0.000  0.000  0.000
   14  0.000  0.000  0.000  0.000
   15  0.000  0.000  0.000  0.000
   16  0.000  0.000  0.000  0.000
   17  0.000  0.000  0.000  0.000
   18  0.000  0.000  0.000  0.000
   19  0.000  0.000  0.000  0.000
   20  0.002  0.001  0.002  0.005
   21  0.002  0.001  0.002  0.005
   22  0.000  0.000  0.000  0.000
   23  0.002  0.001  0.002  0.005
   24  0.000  0.000  0.000  0.000
   25  0.000  0.000  0.000  0.000
   26  0.000  0.000  0.000  0.000
   27  0.000  0.000  0.000  0.000
   28  0.000  0.000  0.000  0.000
   29  0.001  0.000  0.001  0.002
   30  0.001  0.000  0.001  0.002
   31  0.001  0.000  0.001  0.002
   32  0.001  0.000  0.001  0.002
   33  0.001  0.000  0.001  0.002
   34  0.001  0.000  0.001  0.002
   35  0.000  0.000  0.000  0.000
   36  0.082  0.026  0.088  0.197
   37  0.283  0.023  0.000  0.306
   38  0.114  0.127  0.000  0.241
tot    0.494  0.180  0.101  0.775
 
band     3 # energy   -6.40203029 # occ.  2.00000000
 
ion      s      p      d    tot
    1  0.006  0.001  0.000  0.006
    2  0.005  0.001  0.000  0.006
    3  0.005  0.001  0.000  0.006
    4  0.005  0.001  0.000  0.006
    5  0.005  0.001  0.000  0.006
    6  0.005  0.001  0.000  0.006
    7  0.005  0.001  0.000  0.006
    8  0.005  0.001  0.000  0.006
    9  0.005  0.001  0.000  0.006
   10  0.022  0.000  0.000  0.022
   11  0.022  0.000  0.000  0.022
   12  0.022  0.000  0.000  0.022
   13  0.022  0.000  0.000  0.022
   14  0.022  0.000  0.000  0.022
   15  0.021  0.000  0.000  0.021
   16  0.022  0.000  0.000  0.022
   17  0.021  0.000  0.000  0.021
   18  0.021  0.000  0.000  0.021
   19  0.021  0.000  0.000  0.021
   20  0.026  0.000  0.000  0.026
   21  0.026  0.000  0.000  0.026
   22  0.021  0.000  0.000  0.022
   23  0.026  0.000  0.000  0.026
   24  0.021  0.000  0.000  0.022
   25  0.021  0.000  0.000  0.021
   26  0.021  0.000  0.000  0.021
   27  0.021  0.000  0.000  0.022
   28  0.005  0.001  0.000  0.006
   29  0.005  0.001  0.000  0.006
   30  0.005  0.001  0.000  0.006
   31  0.005  0.001  0.000  0.006
   32  0.005  0.001  0.000  0.006
   33  0.005  0.001  0.000  0.006
   34  0.005  0.001  0.000  0.006
   35  0.005  0.001  0.000  0.006
   36  0.011  0.002  0.000  0.013
   37  0.005  0.004  0.000  0.009
   38  0.007  0.027  0.000  0.034
tot    0.511  0.044  0.007  0.562
 
band     4 # energy   -5.69009612 # occ.  2.00000000
 
ion      s      p      d    tot
    1  0.004  0.000  0.001  0.005
    2  0.006  0.000  0.000  0.007
    3  0.006  0.000  0.000  0.007
    4  0.006  0.000  0.000  0.007
    5  0.006  0.000  0.000  0.007
    6  0.006  0.000  0.000  0.007
    7  0.006  0.000  0.000  0.007
    8  0.006  0.000  0.000  0.007
    9  0.007  0.000  0.000  0.008
   10  0.007  0.000  0.008  0.015
   11  0.009  0.000  0.003  0.013
   12  0.007  0.000  0.008  0.015
   13  0.009  0.000  0.003  0.013
   14  0.009  0.000  0.003  0.013
   15  0.012  0.000  0.003  0.015
   16  0.007  0.000  0.008  0.015
   17  0.012  0.000  0.003  0.015
   18  0.012  0.000  0.003  0.015
   19  0.001  0.000  0.005  0.006
   20  0.007  0.003  0.019  0.029
   21  0.007  0.003  0.019  0.029
   22  0.000  0.001  0.002  0.003
   23  0.007  0.003  0.019  0.029
   24  0.000  0.001  0.002  0.003
   25  0.001  0.000  0.005  0.006
   26  0.001  0.000  0.005  0.006
   27  0.000  0.001  0.002  0.003
   28  0.002  0.000  0.001  0.003
   29  0.004  0.000  0.003  0.008
   30  0.004  0.000  0.003  0.008
   31  0.004  0.000  0.003  0.008
   32  0.004  0.000  0.003  0.008
   33  0.004  0.000  0.003  0.008
   34  0.004  0.000  0.003  0.008
   35  0.001  0.000  0.001  0.002
   36  0.067  0.000  0.021  0.088
   37  0.001  0.078  0.000  0.079
   38  0.030  0.190  0.000  0.220
tot    0.287  0.287  0.167  0.742
 
band     5 # energy   -5.40551209 # occ.  2.00000000
 
ion      s      p      d    tot
    1  0.004  0.000  0.001  0.005
    2  0.001  0.000  0.000  0.002
    3  0.001  0.000  0.000  0.002
    4  0.001  0.000  0.000  0.002
    5  0.001  0.000  0.000  0.001
    6  0.001  0.000  0.000  0.002
    7  0.001  0.000  0.000  0.002
    8  0.001  0.000  0.000  0.002
    9  0.001  0.000  0.000  0.001
   10  0.008  0.000  0.013  0.021
   11  0.004  0.000  0.020  0.024
   12  0.008  0.000  0.013  0.021
   13  0.004  0.000  0.020  0.024
   14  0.004  0.000  0.020  0.024
   15  0.002  0.001  0.016  0.018
   16  0.008  0.000  0.013  0.021
   17  0.002  0.001  0.016  0.018
   18  0.002  0.001  0.016  0.018
   19  0.013  0.000  0.023  0.037
   20  0.003  0.000  0.050  0.054
   21  0.003  0.000  0.050  0.054
   22  0.019  0.000  0.021  0.040
   23  0.003  0.000  0.050  0.054
   24  0.019  0.000  0.021  0.040
   25  0.013  0.000  0.023  0.037
   26  0.013  0.000  0.023  0.037
   27  0.019  0.000  0.021  0.040
   28  0.003  0.001  0.003  0.006
   29  0.001  0.001  0.004  0.005
   30  0.001  0.001  0.004  0.005
   31  0.001  0.001  0.004  0.005
   32  0.001  0.001  0.004  0.005
   33  0.001  0.001  0.004  0.005
   34  0.001  0.001  0.004  0.005
   35  0.003  0.001  0.002  0.006
   36  0.018  0.002  0.014  0.033
   37  0.000  0.034  0.000  0.035
   38  0.008  0.063  0.000  0.071
tot    0.192  0.112  0.474  0.778
 
band     6 # energy   -5.22432685 # occ.  2.00000000
 
ion      s      p      d    tot
    1  0.019  0.000  0.020  0.040
    2  0.014  0.000  0.020  0.034
    3  0.014  0.000  0.020  0.034
    4  0.014  0.000  0.020  0.034
    5  0.010  0.000  0.018  0.028
    6  0.014  0.000  0.020  0.034
    7  0.014  0.000  0.020  0.034
    8  0.014  0.000  0.020  0.034
    9  0.013  0.000  0.020  0.032
   10  0.000  0.000  0.027  0.027
   11  0.001  0.001  0.009  0.010
   12  0.000  0.000  0.027  0.027
   13  0.001  0.001  0.009  0.010
   14  0.001  0.001  0.009  0.010
   15  0.001  0.001  0.009  0.011
   16  0.000  0.000  0.027  0.027
   17  0.001  0.001  0.009  0.011
   18  0.001  0.001  0.009  0.011
   19  0.000  0.000  0.011  0.011
   20  0.000  0.000  0.035  0.035
   21  0.000  0.000  0.035  0.035
   22  0.003  0.000  0.005  0.008
   23  0.000  0.000  0.035  0.035
   24  0.003  0.000  0.005  0.008
   25  0.000  0.000  0.011  0.011
   26  0.000  0.000  0.011  0.011
   27  0.003  0.000  0.005  0.008
   28  0.006  0.000  0.004  0.010
   29  0.007  0.000  0.007  0.014
   30  0.007  0.000  0.007  0.014
   31  0.007  0.000  0.007  0.014
   32  0.007  0.000  0.007  0.014
   33  0.007  0.000  0.007  0.014
   34  0.007  0.000  0.007  0.014
   35  0.011  0.000  0.004  0.015
   36  0.001  0.000  0.023  0.024
   37  0.001  0.005  0.000  0.006
   38  0.001  0.006  0.000  0.007
tot    0.199  0.020  0.540  0.759
 
band     7 # energy   -5.12330814 # occ.  2.00000000
 
ion      s      p      d    tot
    1  0.000  0.000  0.009  0.009
    2  0.001  0.000  0.003  0.004
    3  0.000  0.000  0.002  0.002
    4  0.001  0.000  0.003  0.004
    5  0.000  0.000  0.003  0.003
    6  0.001  0.000  0.003  0.004
    7  0.000  0.000  0.002  0.002
    8  0.001  0.000  0.003  0.004
    9  0.000  0.000  0.002  0.003
   10  0.015  0.001  0.016  0.033
   11  0.001  0.001  0.022  0.024
   12  0.004  0.001  0.021  0.026
   13  0.001  0.001  0.022  0.024
   14  0.002  0.000  0.023  0.025
   15  0.001  0.000  0.023  0.025
   16  0.004  0.001  0.021  0.026
   17  0.001  0.000  0.024  0.025
   18  0.005  0.001  0.008  0.014
   19  0.005  0.001  0.025  0.031
   20  0.028  0.001  0.007  0.035
   21  0.007  0.000  0.098  0.105
   22  0.000  0.001  0.040  0.041
   23  0.007  0.000  0.098  0.105
   24  0.000  0.000  0.026  0.027
   25  0.020  0.001  0.034  0.054
   26  0.005  0.001  0.025  0.031
   27  0.000  0.001  0.040  0.041
   28  0.000  0.000  0.004  0.004
   29  0.000  0.000  0.005  0.005
   30  0.001  0.000  0.006  0.007
   31  0.000  0.000  0.005  0.005
   32  0.000  0.000  0.005  0.006
   33  0.001  0.000  0.006  0.007
   34  0.000  0.000  0.005  0.006
   35  0.000  0.000  0.001  0.001
   36  0.000  0.000  0.012  0.013
   37  0.000  0.007  0.000  0.007
   38  0.000  0.013  0.000  0.013
tot    0.112  0.035  0.653  0.800
 
band     8 # energy   -5.12329307 # occ.  2.00000000
 
ion      s      p      d    tot
    1  0.000  0.000  0.009  0.009
    2  0.001  0.000  0.002  0.003
    3  0.001  0.000  0.003  0.004
    4  0.001  0.000  0.002  0.003
    5  0.000  0.000  0.003  0.003
    6  0.000  0.000  0.003  0.003
    7  0.001  0.000  0.003  0.004
    8  0.000  0.000  0.003  0.003
    9  0.000  0.000  0.002  0.003
   10  0.000  0.001  0.023  0.024
   11  0.002  0.000  0.023  0.025
   12  0.012  0.001  0.018  0.030
   13  0.002  0.000  0.023  0.025
   14  0.000  0.001  0.022  0.023
   15  0.004  0.000  0.013  0.017
   16  0.012  0.001  0.018  0.030
   17  0.004  0.000  0.013  0.017
   18  0.000  0.000  0.029  0.029
   19  0.015  0.001  0.031  0.046
   20  0.000  0.000  0.128  0.128
   21  0.021  0.000  0.037  0.058
   22  0.000  0.000  0.031  0.031
   23  0.021  0.000  0.038  0.059
   24  0.000  0.001  0.045  0.046
   25  0.000  0.001  0.022  0.024
   26  0.015  0.001  0.031  0.047
   27  0.000  0.000  0.031  0.032
   28  0.000  0.000  0.004  0.004
   29  0.000  0.000  0.006  0.006
   30  0.000  0.000  0.005  0.005
   31  0.000  0.000  0.006  0.006
   32  0.001  0.001  0.005  0.006
   33  0.000  0.000  0.005  0.005
   34  0.001  0.001  0.005  0.006
   35  0.000  0.000  0.001  0.001
   36  0.000  0.000  0.012  0.013
   37  0.000  0.007  0.000  0.007
   38  0.000  0.013  0.000  0.013
tot    0.112  0.035  0.653  0.800
 
band     9 # energy   -5.10843219 # occ.  2.00000000
 
ion      s      p      d    tot
    1  0.003  0.000  0.004  0.007
    2  0.004  0.000  0.013  0.017
    3  0.004  0.000  0.013  0.017
    4  0.004  0.000  0.013  0.017
    5  0.010  0.000  0.016  0.026
    6  0.004  0.000  0.013  0.017
    7  0.004  0.000  0.013  0.017
    8  0.004  0.000  0.013  0.017
    9  0.001  0.000  0.009  0.010
   10  0.001  0.001  0.002  0.004
   11  0.001  0.000  0.035  0.036
   12  0.001  0.001  0.002  0.004
   13  0.001  0.000  0.035  0.036
   14  0.001  0.000  0.035  0.036
   15  0.001  0.000  0.019  0.019
   16  0.001  0.001  0.002  0.004
   17  0.001  0.000  0.019  0.019
   18  0.001  0.000  0.019  0.019
   19  0.008  0.001  0.008  0.017
   20  0.001  0.000  0.081  0.082
   21  0.001  0.000  0.082  0.083
   22  0.004  0.000  0.031  0.035
   23  0.001  0.000  0.082  0.083
   24  0.004  0.000  0.031  0.035
   25  0.008  0.001  0.008  0.017
   26  0.008  0.001  0.008  0.017
   27  0.004  0.000  0.031  0.035
   28  0.000  0.000  0.003  0.003
   29  0.001  0.000  0.010  0.012
   30  0.001  0.000  0.010  0.012
   31  0.001  0.000  0.010  0.012
   32  0.001  0.000  0.010  0.012
   33  0.001  0.000  0.010  0.012
   34  0.001  0.000  0.010  0.012
   35  0.003  0.000  0.001  0.004
   36  0.007  0.000  0.009  0.016
   37  0.000  0.000  0.000  0.000
   38  0.000  0.001  0.000  0.001
tot    0.100  0.010  0.709  0.819
 
band    10 # energy   -5.10550998 # occ.  2.00000000
 
ion      s      p      d    tot
    1  0.000  0.000  0.003  0.003
    2  0.000  0.000  0.002  0.002
    3  0.001  0.000  0.006  0.007
    4  0.000  0.000  0.002  0.002
    5  0.000  0.000  0.008  0.008
    6  0.001  0.000  0.005  0.006
    7  0.001  0.000  0.006  0.007
    8  0.001  0.000  0.004  0.006
    9  0.000  0.000  0.002  0.002
   10  0.004  0.000  0.020  0.024
   11  0.008  0.001  0.068  0.076
   12  0.001  0.001  0.072  0.074
   13  0.007  0.001  0.070  0.077
   14  0.029  0.001  0.013  0.042
   15  0.003  0.001  0.015  0.019
   16  0.001  0.001  0.070  0.072
   17  0.002  0.001  0.014  0.018
   18  0.010  0.000  0.038  0.048
   19  0.001  0.000  0.035  0.036
   20  0.006  0.000  0.038  0.045
   21  0.002  0.001  0.030  0.032
   22  0.004  0.001  0.025  0.029
   23  0.002  0.001  0.030  0.033
   24  0.015  0.001  0.012  0.028
   25  0.003  0.000  0.013  0.017
   26  0.001  0.000  0.036  0.037
   27  0.004  0.001  0.024  0.029
   28  0.000  0.000  0.002  0.002
   29  0.001  0.000  0.003  0.004
   30  0.000  0.000  0.002  0.003
   31  0.001  0.000  0.003  0.004
   32  0.000  0.000  0.002  0.003
   33  0.000  0.000  0.002  0.003
   34  0.000  0.000  0.003  0.003
   35  0.000  0.000  0.006  0.006
   36  0.000  0.000  0.002  0.002
   37  0.000  0.000  0.000  0.000
   38  0.000  0.000  0.000  0.000
tot    0.108  0.015  0.689  0.812
 
band    11 # energy   -5.10549983 # occ.  2.00000000
 
ion      s      p      d    tot
    1  0.000  0.000  0.003  0.003
    2  0.001  0.001  0.006  0.008
    3  0.000  0.000  0.002  0.003
    4  0.001  0.001  0.006  0.008
    5  0.000  0.000  0.008  0.008
    6  0.000  0.000  0.004  0.004
    7  0.000  0.000  0.003  0.003
    8  0.000  0.000  0.004  0.004
    9  0.000  0.000  0.002  0.002
   10  0.000  0.001  0.088  0.089
   11  0.021  0.001  0.033  0.055
   12  0.003  0.000  0.036  0.040
   13  0.022  0.001  0.031  0.053
   14  0.000  0.000  0.088  0.088
   15  0.008  0.001  0.030  0.038
   16  0.003  0.000  0.038  0.042
   17  0.008  0.001  0.031  0.039
   18  0.000  0.002  0.007  0.009
   19  0.002  0.000  0.021  0.024
   20  0.000  0.001  0.028  0.029
   21  0.005  0.001  0.035  0.041
   22  0.011  0.001  0.016  0.028
   23  0.005  0.001  0.035  0.040
   24  0.000  0.000  0.029  0.029
   25  0.000  0.000  0.043  0.044
   26  0.002  0.000  0.020  0.023
   27  0.011  0.001  0.017  0.028
   28  0.000  0.000  0.002  0.002
   29  0.000  0.000  0.002  0.002
   30  0.001  0.000  0.003  0.004
   31  0.000  0.000  0.002  0.002
   32  0.001  0.000  0.003  0.004
   33  0.001  0.000  0.003  0.004
   34  0.001  0.000  0.003  0.004
   35  0.000  0.000  0.006  0.006
   36  0.000  0.000  0.002  0.002
   37  0.000  0.000  0.000  0.000
   38  0.000  0.000  0.000  0.000
tot    0.107  0.015  0.689  0.812
 
band    12 # energy   -5.09674178 # occ.  2.00000000
 
ion      s      p      d    tot
    1  0.000  0.000  0.000  0.001
    2  0.000  0.000  0.006  0.006
    3  0.000  0.000  0.006  0.006
    4  0.000  0.000  0.006  0.006
    5  0.004  0.001  0.004  0.008
    6  0.000  0.000  0.006  0.006
    7  0.000  0.000  0.006  0.006
    8  0.000  0.000  0.006  0.006
    9  0.002  0.000  0.004  0.007
   10  0.005  0.001  0.009  0.015
   11  0.015  0.001  0.030  0.046
   12  0.005  0.001  0.009  0.015
   13  0.015  0.001  0.030  0.046
   14  0.015  0.001  0.030  0.046
   15  0.002  0.000  0.058  0.061
   16  0.005  0.001  0.009  0.015
   17  0.002  0.000  0.058  0.061
   18  0.002  0.000  0.058  0.061
   19  0.009  0.000  0.037  0.047
   20  0.008  0.001  0.014  0.023
   21  0.008  0.001  0.014  0.023
   22  0.000  0.000  0.044  0.045
   23  0.008  0.001  0.014  0.023
   24  0.000  0.000  0.044  0.044
   25  0.009  0.000  0.037  0.047
   26  0.009  0.000  0.037  0.047
   27  0.000  0.000  0.044  0.045
   28  0.005  0.001  0.004  0.009
   29  0.000  0.000  0.004  0.004
   30  0.000  0.000  0.004  0.004
   31  0.000  0.000  0.004  0.004
   32  0.000  0.000  0.004  0.004
   33  0.000  0.000  0.004  0.004
   34  0.000  0.000  0.004  0.004
   35  0.001  0.000  0.005  0.006
   36  0.000  0.000  0.000  0.001
   37  0.000  0.000  0.000  0.000
   38  0.000  0.001  0.000  0.001
tot    0.132  0.019  0.648  0.799
 
band    13 # energy   -5.07941330 # occ.  2.00000000
 
ion      s      p      d    tot
    1  0.000  0.001  0.019  0.019
    2  0.000  0.000  0.005  0.006
    3  0.000  0.000  0.005  0.006
    4  0.000  0.000  0.005  0.006
    5  0.000  0.000  0.001  0.001
    6  0.000  0.000  0.005  0.005
    7  0.000  0.000  0.005  0.006
    8  0.000  0.000  0.005  0.005
    9  0.003  0.001  0.003  0.007
   10  0.005  0.000  0.101  0.105
   11  0.002  0.001  0.038  0.040
   12  0.005  0.000  0.101  0.106
   13  0.002  0.001  0.038  0.040
   14  0.002  0.001  0.038  0.040
   15  0.012  0.001  0.021  0.034
   16  0.005  0.000  0.101  0.106
   17  0.012  0.001  0.021  0.034
   18  0.012  0.001  0.021  0.034
   19  0.002  0.000  0.025  0.027
   20  0.001  0.001  0.011  0.013
   21  0.001  0.001  0.011  0.013
   22  0.000  0.000  0.023  0.024
   23  0.001  0.001  0.011  0.013
   24  0.000  0.000  0.023  0.024
   25  0.002  0.000  0.025  0.027
   26  0.002  0.000  0.025  0.027
   27  0.000  0.000  0.023  0.024
   28  0.001  0.000  0.004  0.006
   29  0.000  0.000  0.005  0.005
   30  0.000  0.000  0.005  0.005
   31  0.000  0.000  0.005  0.005
   32  0.000  0.000  0.005  0.005
   33  0.000  0.000  0.005  0.005
   34  0.000  0.000  0.005  0.005
   35  0.000  0.000  0.000  0.000
   36  0.000  0.001  0.002  0.003
   37  0.000  0.003  0.000  0.003
   38  0.000  0.004  0.000  0.005
tot    0.072  0.018  0.746  0.836
 
band    14 # energy   -5.06077856 # occ.  2.00000000
 
ion      s      p      d    tot
    1  0.000  0.000  0.013  0.014
    2  0.002  0.000  0.006  0.009
    3  0.000  0.000  0.011  0.011
    4  0.002  0.000  0.006  0.009
    5  0.000  0.000  0.010  0.010
    6  0.004  0.001  0.007  0.012
    7  0.000  0.000  0.011  0.011
    8  0.004  0.001  0.007  0.012
    9  0.000  0.001  0.008  0.009
   10  0.000  0.001  0.053  0.054
   11  0.000  0.000  0.036  0.036
   12  0.013  0.000  0.032  0.045
   13  0.000  0.000  0.037  0.037
   14  0.000  0.000  0.023  0.024
   15  0.013  0.000  0.034  0.047
   16  0.012  0.000  0.034  0.046
   17  0.014  0.000  0.028  0.042
   18  0.000  0.000  0.108  0.108
   19  0.000  0.000  0.024  0.025
   20  0.000  0.000  0.034  0.034
   21  0.003  0.000  0.017  0.021
   22  0.005  0.000  0.020  0.025
   23  0.003  0.000  0.019  0.022
   24  0.000  0.000  0.033  0.033
   25  0.000  0.000  0.025  0.025
   26  0.000  0.000  0.024  0.025
   27  0.005  0.000  0.021  0.026
   28  0.000  0.000  0.011  0.011
   29  0.001  0.000  0.004  0.005
   30  0.003  0.001  0.004  0.008
   31  0.001  0.000  0.004  0.006
   32  0.000  0.000  0.005  0.005
   33  0.003  0.001  0.004  0.008
   34  0.000  0.000  0.005  0.005
   35  0.000  0.000  0.005  0.005
   36  0.000  0.000  0.002  0.002
   37  0.000  0.000  0.000  0.000
   38  0.000  0.000  0.000  0.000
tot    0.090  0.011  0.725  0.825
 
band    15 # energy   -5.06077194 # occ.  2.00000000
 
ion      s      p      d    tot
    1  0.000  0.000  0.013  0.014
    2  0.002  0.001  0.010  0.013
    3  0.004  0.001  0.005  0.010
    4  0.002  0.001  0.010  0.013
    5  0.000  0.000  0.010  0.010
    6  0.000  0.000  0.009  0.009
    7  0.004  0.001  0.005  0.010
    8  0.000  0.000  0.009  0.010
    9  0.000  0.001  0.008  0.009
   10  0.016  0.000  0.026  0.043
   11  0.000  0.000  0.028  0.029
   12  0.004  0.000  0.047  0.051
   13  0.000  0.000  0.027  0.028
   14  0.000  0.000  0.040  0.040
   15  0.005  0.000  0.079  0.084
   16  0.004  0.000  0.046  0.050
   17  0.004  0.000  0.085  0.089
   18  0.017  0.000  0.005  0.023
   19  0.000  0.000  0.025  0.025
   20  0.004  0.000  0.013  0.017
   21  0.001  0.000  0.029  0.030
   22  0.001  0.000  0.029  0.031
   23  0.001  0.000  0.028  0.029
   24  0.007  0.000  0.017  0.023
   25  0.000  0.000  0.024  0.024
   26  0.000  0.000  0.025  0.025
   27  0.002  0.000  0.028  0.030
   28  0.000  0.000  0.011  0.011
   29  0.002  0.000  0.004  0.007
   30  0.000  0.000  0.004  0.005
   31  0.002  0.000  0.004  0.007
   32  0.003  0.000  0.004  0.007
   33  0.000  0.000  0.004  0.005
   34  0.003  0.000  0.004  0.007
   35  0.000  0.000  0.005  0.005
   36  0.000  0.000  0.002  0.002
   37  0.000  0.000  0.000  0.000
   38  0.000  0.000  0.000  0.000
tot    0.090  0.011  0.725  0.825
 
band    16 # energy   -5.05404585 # occ.  2.00000000
 
ion      s      p      d    tot
    1  0.000  0.001  0.010  0.011
    2  0.002  0.000  0.012  0.015
    3  0.002  0.000  0.012  0.015
    4  0.002  0.000  0.012  0.015
    5  0.002  0.000  0.000  0.003
    6  0.002  0.000  0.012  0.015
    7  0.002  0.000  0.012  0.015
    8  0.002  0.000  0.012  0.015
    9  0.009  0.000  0.018  0.027
   10  0.006  0.000  0.009  0.015
   11  0.000  0.000  0.018  0.018
   12  0.006  0.000  0.009  0.015
   13  0.000  0.000  0.018  0.018
   14  0.000  0.000  0.018  0.019
   15  0.000  0.000  0.039  0.039
   16  0.006  0.000  0.009  0.015
   17  0.000  0.000  0.039  0.039
   18  0.000  0.000  0.039  0.039
   19  0.000  0.001  0.014  0.015
   20  0.004  0.000  0.021  0.025
   21  0.004  0.000  0.021  0.025
   22  0.001  0.000  0.047  0.048
   23  0.004  0.000  0.021  0.025
   24  0.001  0.000  0.047  0.048
   25  0.000  0.001  0.014  0.015
   26  0.000  0.001  0.014  0.015
   27  0.001  0.000  0.047  0.048
   28  0.010  0.000  0.002  0.013
   29  0.007  0.000  0.016  0.023
   30  0.007  0.000  0.016  0.023
   31  0.007  0.000  0.016  0.023
   32  0.007  0.000  0.016  0.023
   33  0.007  0.000  0.016  0.023
   34  0.007  0.000  0.016  0.023
   35  0.010  0.000  0.032  0.042
   36  0.001  0.001  0.004  0.006
   37  0.000  0.000  0.000  0.000
   38  0.000  0.000  0.000  0.000
tot    0.117  0.008  0.684  0.809
 
band    17 # energy   -5.05013784 # occ.  2.00000000
 
ion      s      p      d    tot
    1  0.000  0.000  0.007  0.007
    2  0.000  0.000  0.007  0.008
    3  0.003  0.000  0.006  0.009
    4  0.001  0.000  0.007  0.008
    5  0.000  0.000  0.006  0.007
    6  0.001  0.000  0.008  0.010
    7  0.003  0.000  0.005  0.009
    8  0.001  0.000  0.009  0.009
    9  0.000  0.000  0.020  0.020
   10  0.000  0.000  0.015  0.015
   11  0.003  0.000  0.023  0.027
   12  0.001  0.000  0.028  0.029
   13  0.004  0.000  0.017  0.021
   14  0.000  0.000  0.057  0.057
   15  0.001  0.000  0.036  0.037
   16  0.001  0.000  0.026  0.027
   17  0.001  0.000  0.036  0.037
   18  0.000  0.000  0.035  0.035
   19  0.006  0.000  0.034  0.040
   20  0.000  0.000  0.011  0.012
   21  0.000  0.000  0.044  0.044
   22  0.009  0.000  0.035  0.044
   23  0.000  0.000  0.039  0.039
   24  0.000  0.000  0.066  0.066
   25  0.000  0.000  0.095  0.095
   26  0.007  0.000  0.023  0.030
   27  0.008  0.000  0.040  0.048
   28  0.000  0.000  0.005  0.005
   29  0.001  0.000  0.004  0.006
   30  0.000  0.000  0.009  0.009
   31  0.001  0.000  0.004  0.006
   32  0.001  0.000  0.004  0.005
   33  0.000  0.000  0.009  0.009
   34  0.001  0.000  0.003  0.005
   35  0.000  0.000  0.011  0.011
   36  0.000  0.000  0.002  0.002
   37  0.000  0.000  0.000  0.000
   38  0.000  0.000  0.000  0.000
tot    0.054  0.007  0.786  0.846
 
band    18 # energy   -5.05012954 # occ.  2.00000000
 
ion      s      p      d    tot
    1  0.000  0.000  0.007  0.007
    2  0.003  0.000  0.007  0.010
    3  0.000  0.000  0.008  0.009
    4  0.002  0.000  0.007  0.010
    5  0.000  0.000  0.006  0.007
    6  0.002  0.000  0.006  0.008
    7  0.000  0.000  0.009  0.009
    8  0.002  0.000  0.006  0.008
    9  0.000  0.000  0.020  0.020
   10  0.001  0.000  0.032  0.033
   11  0.001  0.000  0.041  0.043
   12  0.000  0.000  0.018  0.018
   13  0.001  0.000  0.048  0.049
   14  0.005  0.000  0.008  0.013
   15  0.000  0.000  0.035  0.036
   16  0.000  0.000  0.020  0.020
   17  0.000  0.000  0.035  0.036
   18  0.001  0.000  0.036  0.037
   19  0.003  0.000  0.067  0.070
   20  0.000  0.000  0.052  0.052
   21  0.000  0.000  0.019  0.019
   22  0.002  0.000  0.059  0.061
   23  0.000  0.000  0.024  0.024
   24  0.011  0.000  0.028  0.039
   25  0.008  0.000  0.006  0.015
   26  0.002  0.000  0.079  0.080
   27  0.004  0.000  0.054  0.057
   28  0.000  0.000  0.005  0.005
   29  0.000  0.000  0.008  0.008
   30  0.002  0.000  0.002  0.004
   31  0.000  0.000  0.007  0.007
   32  0.001  0.000  0.007  0.008
   33  0.002  0.000  0.002  0.004
   34  0.000  0.000  0.008  0.009
   35  0.000  0.000  0.011  0.011
   36  0.000  0.000  0.002  0.002
   37  0.000  0.000  0.000  0.000
   38  0.000  0.000  0.000  0.000
tot    0.054  0.007  0.786  0.846
 
band    19 # energy   -4.97133573 # occ.  2.00000000
 
ion      s      p      d    tot
    1  0.006  0.000  0.001  0.007
    2  0.000  0.000  0.008  0.008
    3  0.000  0.000  0.008  0.008
    4  0.000  0.000  0.008  0.008
    5  0.002  0.001  0.015  0.017
    6  0.000  0.000  0.008  0.008
    7  0.000  0.000  0.008  0.008
    8  0.000  0.000  0.008  0.008
    9  0.000  0.000  0.002  0.002
   10  0.001  0.000  0.007  0.008
   11  0.001  0.000  0.059  0.061
   12  0.001  0.000  0.007  0.008
   13  0.001  0.000  0.059  0.061
   14  0.001  0.000  0.059  0.061
   15  0.003  0.000  0.019  0.023
   16  0.001  0.000  0.007  0.008
   17  0.003  0.000  0.019  0.023
   18  0.003  0.000  0.019  0.023
   19  0.000  0.000  0.035  0.036
   20  0.004  0.000  0.026  0.030
   21  0.004  0.000  0.026  0.030
   22  0.006  0.001  0.002  0.009
   23  0.004  0.000  0.026  0.030
   24  0.006  0.001  0.002  0.009
   25  0.000  0.000  0.035  0.036
   26  0.000  0.000  0.035  0.036
   27  0.006  0.001  0.002  0.009
   28  0.011  0.000  0.019  0.031
   29  0.004  0.000  0.015  0.020
   30  0.004  0.000  0.015  0.020
   31  0.004  0.000  0.015  0.020
   32  0.004  0.000  0.015  0.020
   33  0.004  0.000  0.015  0.020
   34  0.004  0.000  0.015  0.020
   35  0.000  0.001  0.008  0.009
   36  0.000  0.004  0.030  0.034
   37  0.002  0.025  0.000  0.028
   38  0.003  0.032  0.000  0.034
tot    0.097  0.073  0.658  0.827
 
band    20 # energy   -4.93217024 # occ.  2.00000000
 
ion      s      p      d    tot
    1  0.000  0.000  0.002  0.002
    2  0.001  0.001  0.006  0.008
    3  0.000  0.000  0.005  0.005
    4  0.001  0.001  0.006  0.008
    5  0.000  0.000  0.009  0.009
    6  0.002  0.001  0.003  0.005
    7  0.000  0.000  0.005  0.005
    8  0.002  0.001  0.003  0.005
    9  0.000  0.000  0.007  0.007
   10  0.000  0.001  0.025  0.026
   11  0.000  0.000  0.047  0.048
   12  0.000  0.000  0.007  0.007
   13  0.000  0.000  0.047  0.048
   14  0.002  0.000  0.033  0.035
   15  0.000  0.000  0.028  0.028
   16  0.000  0.000  0.007  0.007
   17  0.000  0.000  0.028  0.028
   18  0.001  0.000  0.023  0.024
   19  0.000  0.000  0.006  0.006
   20  0.001  0.000  0.062  0.063
   21  0.000  0.000  0.072  0.072
   22  0.000  0.000  0.037  0.037
   23  0.000  0.000  0.072  0.072
   24  0.000  0.000  0.019  0.019
   25  0.000  0.001  0.019  0.019
   26  0.000  0.000  0.006  0.006
   27  0.000  0.000  0.037  0.037
   28  0.000  0.000  0.001  0.001
   29  0.000  0.000  0.008  0.008
   30  0.001  0.000  0.007  0.008
   31  0.000  0.000  0.008  0.008
   32  0.000  0.001  0.010  0.010
   33  0.001  0.000  0.007  0.008
   34  0.000  0.001  0.010  0.010
   35  0.000  0.000  0.001  0.002
   36  0.000  0.000  0.025  0.025
   37  0.000  0.038  0.000  0.038
   38  0.000  0.076  0.000  0.076
tot    0.013  0.123  0.696  0.832
 
band    21 # energy   -4.93213619 # occ.  2.00000000
 
ion      s      p      d    tot
    1  0.000  0.000  0.002  0.002
    2  0.001  0.000  0.003  0.004
    3  0.002  0.001  0.005  0.007
    4  0.001  0.000  0.003  0.004
    5  0.000  0.000  0.009  0.009
    6  0.000  0.000  0.006  0.007
    7  0.002  0.001  0.005  0.007
    8  0.000  0.000  0.006  0.007
    9  0.000  0.000  0.007  0.007
   10  0.000  0.000  0.001  0.001
   11  0.001  0.000  0.038  0.039
   12  0.000  0.001  0.019  0.020
   13  0.001  0.000  0.038  0.039
   14  0.000  0.000  0.052  0.052
   15  0.000  0.000  0.024  0.025
   16  0.000  0.001  0.019  0.020