PROCAR new format
# of k-points:   10         # of bands:  252         # of ions:   38

 k-point     1 :    0.00000000 0.00000000 0.00000000     weight = 0.01562500

band     1 # energy  -22.01398201 # occ.  2.00000000
 
ion      s      p      d    tot
    1  0.000  0.000  0.000  0.000
    2  0.000  0.000  0.000  0.000
    3  0.000  0.000  0.000  0.000
    4  0.000  0.000  0.000  0.000
    5  0.000  0.000  0.000  0.000
    6  0.000  0.000  0.000  0.000
    7  0.000  0.000  0.000  0.000
    8  0.000  0.000  0.000  0.000
    9  0.000  0.000  0.000  0.000
   10  0.000  0.000  0.000  0.000
   11  0.000  0.000  0.000  0.000
   12  0.000  0.000  0.000  0.000
   13  0.000  0.000  0.000  0.000
   14  0.000  0.000  0.000  0.000
   15  0.000  0.000  0.000  0.000
   16  0.000  0.000  0.000  0.000
   17  0.000  0.000  0.000  0.000
   18  0.000  0.000  0.000  0.000
   19  0.000  0.000  0.000  0.000
   20  0.000  0.000  0.000  0.000
   21  0.000  0.000  0.000  0.000
   22  0.000  0.000  0.000  0.000
   23  0.000  0.000  0.000  0.000
   24  0.000  0.000  0.000  0.000
   25  0.000  0.000  0.000  0.000
   26  0.000  0.000  0.000  0.000
   27  0.000  0.000  0.000  0.000
   28  0.000  0.000  0.000  0.000
   29  0.000  0.000  0.000  0.000
   30  0.000  0.000  0.000  0.000
   31  0.000  0.000  0.000  0.000
   32  0.000  0.000  0.000  0.000
   33  0.000  0.000  0.000  0.000
   34  0.000  0.000  0.000  0.000
   35  0.000  0.000  0.000  0.000
   36  0.000  0.000  0.000  0.000
   37  0.153  0.112  0.000  0.265
   38  0.639  0.091  0.000  0.730
tot    0.793  0.203  0.000  0.995
 
band     2 # energy   -7.78342608 # occ.  2.00000000
 
ion      s      p      d    tot
    1  0.000  0.000  0.000  0.000
    2  0.000  0.000  0.000  0.000
    3  0.000  0.000  0.000  0.000
    4  0.000  0.000  0.000  0.000
    5  0.000  0.000  0.000  0.000
    6  0.000  0.000  0.000  0.000
    7  0.000  0.000  0.000  0.000
    8  0.000  0.000  0.000  0.000
    9  0.000  0.000  0.000  0.000
   10  0.000  0.000  0.000  0.000
   11  0.000  0.000  0.000  0.000
   12  0.000  0.000  0.000  0.000
   13  0.000  0.000  0.000  0.000
   14  0.000  0.000  0.000  0.000
   15  0.000  0.000  0.000  0.000
   16  0.000  0.000  0.000  0.000
   17  0.000  0.000  0.000  0.000
   18  0.000  0.000  0.000  0.000
   19  0.000  0.000  0.000  0.000
   20  0.000  0.000  0.000  0.001
   21  0.000  0.000  0.000  0.001
   22  0.000  0.000  0.000  0.000
   23  0.000  0.000  0.000  0.001
   24  0.000  0.000  0.000  0.000
   25  0.000  0.000  0.000  0.000
   26  0.000  0.000  0.000  0.000
   27  0.000  0.000  0.000  0.000
   28  0.000  0.000  0.000  0.000
   29  0.001  0.000  0.001  0.002
   30  0.001  0.000  0.001  0.002
   31  0.001  0.000  0.001  0.002
   32  0.001  0.000  0.001  0.002
   33  0.001  0.000  0.001  0.002
   34  0.001  0.000  0.001  0.002
   35  0.000  0.000  0.000  0.000
   36  0.037  0.024  0.032  0.093
   37  0.268  0.001  0.000  0.269
   38  0.148  0.254  0.000  0.402
tot    0.461  0.280  0.038  0.778
 
band     3 # energy   -6.37891657 # occ.  2.00000000
 
ion      s      p      d    tot
    1  0.006  0.001  0.000  0.007
    2  0.006  0.001  0.000  0.006
    3  0.006  0.001  0.000  0.006
    4  0.006  0.001  0.000  0.006
    5  0.006  0.001  0.000  0.006
    6  0.006  0.001  0.000  0.006
    7  0.006  0.001  0.000  0.006
    8  0.006  0.001  0.000  0.006
    9  0.006  0.001  0.000  0.006
   10  0.023  0.000  0.000  0.024
   11  0.023  0.000  0.000  0.024
   12  0.023  0.000  0.000  0.024
   13  0.023  0.000  0.000  0.024
   14  0.023  0.000  0.000  0.024
   15  0.022  0.000  0.000  0.023
   16  0.023  0.000  0.000  0.024
   17  0.022  0.000  0.000  0.023
   18  0.022  0.000  0.000  0.023
   19  0.022  0.000  0.000  0.023
   20  0.025  0.000  0.000  0.025
   21  0.025  0.000  0.000  0.025
   22  0.022  0.000  0.000  0.023
   23  0.025  0.000  0.000  0.025
   24  0.022  0.000  0.000  0.023
   25  0.022  0.000  0.000  0.023
   26  0.022  0.000  0.000  0.023
   27  0.022  0.000  0.000  0.023
   28  0.005  0.001  0.000  0.006
   29  0.005  0.001  0.000  0.006
   30  0.005  0.001  0.000  0.006
   31  0.005  0.001  0.000  0.006
   32  0.005  0.001  0.000  0.006
   33  0.005  0.001  0.000  0.006
   34  0.005  0.001  0.000  0.006
   35  0.005  0.001  0.000  0.006
   36  0.008  0.001  0.000  0.009
   37  0.001  0.002  0.000  0.003
   38  0.002  0.009  0.000  0.011
tot    0.520  0.024  0.006  0.550
 
band     4 # energy   -5.54163422 # occ.  2.00000000
 
ion      s      p      d    tot
    1  0.007  0.000  0.000  0.008
    2  0.008  0.000  0.000  0.009
    3  0.008  0.000  0.000  0.009
    4  0.008  0.000  0.000  0.009
    5  0.008  0.000  0.000  0.009
    6  0.008  0.000  0.000  0.009
    7  0.008  0.000  0.000  0.009
    8  0.008  0.000  0.000  0.009
    9  0.009  0.000  0.000  0.009
   10  0.010  0.001  0.014  0.025
   11  0.012  0.001  0.011  0.024
   12  0.010  0.001  0.014  0.025
   13  0.012  0.001  0.011  0.024
   14  0.012  0.001  0.011  0.024
   15  0.012  0.001  0.011  0.023
   16  0.010  0.001  0.014  0.025
   17  0.012  0.001  0.011  0.023
   18  0.012  0.001  0.011  0.023
   19  0.009  0.001  0.012  0.021
   20  0.012  0.001  0.016  0.029
   21  0.012  0.001  0.016  0.029
   22  0.007  0.001  0.011  0.019
   23  0.012  0.001  0.016  0.029
   24  0.007  0.001  0.011  0.019
   25  0.009  0.001  0.012  0.021
   26  0.009  0.001  0.012  0.021
   27  0.007  0.001  0.011  0.019
   28  0.007  0.000  0.001  0.008
   29  0.008  0.000  0.001  0.009
   30  0.008  0.000  0.001  0.009
   31  0.008  0.000  0.001  0.009
   32  0.008  0.000  0.001  0.009
   33  0.008  0.000  0.001  0.009
   34  0.008  0.000  0.001  0.009
   35  0.006  0.000  0.000  0.007
   36  0.026  0.000  0.005  0.031
   37  0.000  0.020  0.000  0.020
   38  0.003  0.035  0.000  0.039
tot    0.347  0.079  0.236  0.662
 
band     5 # energy   -5.28394446 # occ.  2.00000000
 
ion      s      p      d    tot
    1  0.001  0.000  0.009  0.010
    2  0.003  0.000  0.005  0.008
    3  0.003  0.000  0.005  0.008
    4  0.003  0.000  0.005  0.008
    5  0.004  0.000  0.004  0.007
    6  0.003  0.000  0.005  0.008
    7  0.003  0.000  0.005  0.008
    8  0.003  0.000  0.005  0.008
    9  0.004  0.000  0.004  0.008
   10  0.003  0.000  0.012  0.015
   11  0.000  0.000  0.020  0.021
   12  0.003  0.000  0.012  0.015
   13  0.000  0.000  0.020  0.021
   14  0.000  0.000  0.020  0.021
   15  0.000  0.000  0.014  0.014
   16  0.003  0.000  0.012  0.015
   17  0.000  0.000  0.014  0.014
   18  0.000  0.000  0.014  0.014
   19  0.002  0.000  0.020  0.023
   20  0.000  0.000  0.047  0.048
   21  0.000  0.000  0.047  0.048
   22  0.007  0.000  0.017  0.024
   23  0.000  0.000  0.047  0.048
   24  0.007  0.000  0.017  0.024
   25  0.002  0.000  0.020  0.023
   26  0.002  0.000  0.020  0.023
   27  0.007  0.000  0.017  0.024
   28  0.002  0.000  0.012  0.014
   29  0.005  0.000  0.013  0.018
   30  0.005  0.000  0.013  0.018
   31  0.005  0.000  0.013  0.018
   32  0.005  0.000  0.013  0.018
   33  0.005  0.000  0.013  0.018
   34  0.005  0.000  0.013  0.018
   35  0.001  0.000  0.011  0.013
   36  0.047  0.003  0.008  0.059
   37  0.003  0.047  0.000  0.050
   38  0.005  0.069  0.000  0.074
tot    0.147  0.123  0.552  0.822
 
band     6 # energy   -5.16971338 # occ.  2.00000000
 
ion      s      p      d    tot
    1  0.025  0.001  0.012  0.037
    2  0.012  0.000  0.021  0.033
    3  0.012  0.000  0.021  0.033
    4  0.012  0.000  0.021  0.033
    5  0.007  0.000  0.024  0.032
    6  0.012  0.000  0.021  0.033
    7  0.012  0.000  0.021  0.033
    8  0.012  0.000  0.021  0.033
    9  0.007  0.000  0.021  0.029
   10  0.001  0.000  0.033  0.035
   11  0.001  0.001  0.014  0.015
   12  0.001  0.000  0.033  0.035
   13  0.001  0.001  0.014  0.015
   14  0.001  0.001  0.014  0.015
   15  0.004  0.001  0.007  0.013
   16  0.001  0.000  0.033  0.035
   17  0.004  0.001  0.007  0.013
   18  0.004  0.001  0.007  0.013
   19  0.000  0.000  0.014  0.015
   20  0.001  0.000  0.040  0.041
   21  0.001  0.000  0.040  0.040
   22  0.010  0.000  0.002  0.012
   23  0.001  0.000  0.040  0.040
   24  0.010  0.000  0.002  0.012
   25  0.000  0.000  0.014  0.015
   26  0.000  0.000  0.014  0.015
   27  0.010  0.000  0.002  0.012
   28  0.002  0.000  0.000  0.002
   29  0.001  0.000  0.004  0.005
   30  0.001  0.000  0.004  0.005
   31  0.001  0.000  0.004  0.005
   32  0.001  0.000  0.004  0.005
   33  0.001  0.000  0.004  0.005
   34  0.001  0.000  0.004  0.005
   35  0.006  0.001  0.000  0.007
   36  0.010  0.000  0.010  0.020
   37  0.001  0.013  0.000  0.014
   38  0.001  0.016  0.000  0.018
tot    0.186  0.041  0.549  0.776
 
band     7 # energy   -5.10765675 # occ.  2.00000000
 
ion      s      p      d    tot
    1  0.000  0.000  0.006  0.006
    2  0.000  0.000  0.002  0.002
    3  0.001  0.000  0.003  0.004
    4  0.000  0.000  0.002  0.002
    5  0.000  0.000  0.002  0.002
    6  0.000  0.000  0.003  0.004
    7  0.001  0.000  0.003  0.004
    8  0.001  0.000  0.003  0.004
    9  0.000  0.000  0.005  0.005
   10  0.000  0.001  0.016  0.017
   11  0.000  0.000  0.026  0.026
   12  0.007  0.001  0.024  0.032
   13  0.000  0.000  0.026  0.027
   14  0.000  0.000  0.042  0.042
   15  0.010  0.001  0.015  0.026
   16  0.007  0.001  0.024  0.032
   17  0.010  0.001  0.016  0.027
   18  0.000  0.000  0.037  0.037
   19  0.019  0.001  0.029  0.048
   20  0.000  0.000  0.120  0.120
   21  0.008  0.000  0.042  0.050
   22  0.002  0.001  0.031  0.033
   23  0.008  0.000  0.040  0.048
   24  0.000  0.001  0.019  0.020
   25  0.000  0.001  0.049  0.050
   26  0.018  0.001  0.030  0.049
   27  0.002  0.001  0.031  0.034
   28  0.000  0.000  0.006  0.007
   29  0.001  0.000  0.006  0.007
   30  0.000  0.000  0.003  0.003
   31  0.001  0.000  0.006  0.007
   32  0.000  0.000  0.003  0.004
   33  0.000  0.000  0.003  0.003
   34  0.000  0.000  0.003  0.004
   35  0.000  0.000  0.001  0.001
   36  0.000  0.000  0.003  0.003
   37  0.000  0.006  0.000  0.006
   38  0.000  0.015  0.000  0.015
tot    0.098  0.034  0.678  0.810
 
band     8 # energy   -5.10764568 # occ.  2.00000000
 
ion      s      p      d    tot
    1  0.000  0.000  0.006  0.006
    2  0.001  0.000  0.003  0.004
    3  0.000  0.000  0.003  0.003
    4  0.001  0.000  0.003  0.004
    5  0.000  0.000  0.002  0.002
    6  0.000  0.000  0.002  0.003
    7  0.000  0.000  0.003  0.003
    8  0.000  0.000  0.002  0.003
    9  0.000  0.000  0.005  0.005
   10  0.010  0.001  0.027  0.037
   11  0.000  0.000  0.037  0.037
   12  0.003  0.001  0.019  0.022
   13  0.000  0.000  0.036  0.037
   14  0.000  0.000  0.021  0.021
   15  0.003  0.000  0.030  0.034
   16  0.002  0.001  0.018  0.022
   17  0.004  0.000  0.029  0.033
   18  0.014  0.001  0.009  0.023
   19  0.006  0.001  0.043  0.049
   20  0.010  0.000  0.015  0.026
   21  0.003  0.000  0.092  0.095
   22  0.001  0.001  0.023  0.025
   23  0.003  0.000  0.095  0.097
   24  0.003  0.000  0.035  0.038
   25  0.025  0.001  0.023  0.048
   26  0.006  0.001  0.042  0.049
   27  0.001  0.001  0.023  0.025
   28  0.000  0.000  0.006  0.007
   29  0.000  0.000  0.002  0.002
   30  0.001  0.000  0.005  0.006
   31  0.000  0.000  0.002  0.002
   32  0.001  0.000  0.005  0.005
   33  0.001  0.000  0.005  0.006
   34  0.001  0.000  0.005  0.005
   35  0.000  0.000  0.001  0.001
   36  0.000  0.000  0.003  0.003
   37  0.000  0.006  0.000  0.006
   38  0.000  0.015  0.000  0.015
tot    0.098  0.034  0.678  0.810
 
band     9 # energy   -5.09762341 # occ.  2.00000000
 
ion      s      p      d    tot
    1  0.001  0.000  0.000  0.001
    2  0.000  0.000  0.005  0.005
    3  0.000  0.000  0.005  0.006
    4  0.000  0.000  0.005  0.005
    5  0.001  0.001  0.008  0.009
    6  0.000  0.000  0.005  0.005
    7  0.000  0.000  0.005  0.006
    8  0.000  0.000  0.005  0.005
    9  0.002  0.000  0.002  0.004
   10  0.003  0.001  0.008  0.012
   11  0.015  0.001  0.042  0.058
   12  0.004  0.001  0.007  0.012
   13  0.015  0.001  0.042  0.058
   14  0.012  0.001  0.046  0.059
   15  0.002  0.000  0.056  0.058
   16  0.004  0.001  0.007  0.012
   17  0.002  0.000  0.056  0.058
   18  0.001  0.000  0.061  0.062
   19  0.004  0.000  0.046  0.050
   20  0.010  0.001  0.030  0.042
   21  0.008  0.001  0.033  0.042
   22  0.000  0.001  0.021  0.021
   23  0.008  0.001  0.033  0.042
   24  0.001  0.000  0.020  0.021
   25  0.004  0.000  0.043  0.048
   26  0.004  0.000  0.046  0.050
   27  0.000  0.001  0.021  0.021
   28  0.002  0.000  0.002  0.005
   29  0.000  0.000  0.005  0.005
   30  0.000  0.000  0.004  0.004
   31  0.000  0.000  0.005  0.005
   32  0.000  0.000  0.004  0.005
   33  0.000  0.000  0.004  0.004
   34  0.000  0.000  0.004  0.005
   35  0.000  0.000  0.001  0.001
   36  0.000  0.001  0.000  0.001
   37  0.000  0.001  0.000  0.001
   38  0.000  0.002  0.000  0.002
tot    0.106  0.019  0.686  0.810
 
band    10 # energy   -5.09741846 # occ.  2.00000000
 
ion      s      p      d    tot
    1  0.000  0.000  0.005  0.005
    2  0.000  0.000  0.002  0.003
    3  0.001  0.000  0.005  0.007
    4  0.000  0.000  0.002  0.003
    5  0.000  0.000  0.010  0.010
    6  0.002  0.001  0.006  0.008
    7  0.001  0.000  0.005  0.006
    8  0.002  0.001  0.005  0.008
    9  0.000  0.000  0.001  0.001
   10  0.011  0.001  0.009  0.020
   11  0.008  0.001  0.051  0.060
   12  0.002  0.000  0.068  0.070
   13  0.006  0.001  0.055  0.061
   14  0.033  0.001  0.014  0.048
   15  0.001  0.001  0.019  0.021
   16  0.003  0.000  0.062  0.065
   17  0.001  0.001  0.016  0.019
   18  0.005  0.000  0.031  0.036
   19  0.000  0.001  0.022  0.023
   20  0.018  0.001  0.029  0.048
   21  0.005  0.001  0.030  0.036
   22  0.003  0.000  0.048  0.052
   23  0.006  0.001  0.030  0.037
   24  0.015  0.001  0.005  0.022
   25  0.000  0.000  0.024  0.024
   26  0.000  0.001  0.022  0.023
   27  0.005  0.000  0.044  0.049
   28  0.000  0.000  0.000  0.000
   29  0.002  0.000  0.004  0.006
   30  0.000  0.000  0.003  0.004
   31  0.002  0.000  0.004  0.006
   32  0.000  0.000  0.002  0.002
   33  0.001  0.000  0.004  0.005
   34  0.000  0.000  0.002  0.002
   35  0.000  0.000  0.007  0.007
   36  0.000  0.001  0.001  0.002
   37  0.000  0.000  0.000  0.000
   38  0.000  0.000  0.000  0.000
tot    0.133  0.018  0.648  0.799
 
band    11 # energy   -5.09741703 # occ.  2.00000000
 
ion      s      p      d    tot
    1  0.000  0.000  0.005  0.005
    2  0.002  0.001  0.006  0.009
    3  0.001  0.000  0.003  0.004
    4  0.002  0.001  0.006  0.009
    5  0.000  0.000  0.010  0.010
    6  0.000  0.000  0.003  0.004
    7  0.001  0.000  0.003  0.005
    8  0.000  0.000  0.004  0.004
    9  0.000  0.000  0.001  0.001
   10  0.000  0.000  0.084  0.084
   11  0.022  0.001  0.030  0.053
   12  0.008  0.001  0.025  0.033
   13  0.024  0.001  0.027  0.052
   14  0.000  0.001  0.064  0.065
   15  0.004  0.001  0.027  0.031
   16  0.007  0.001  0.031  0.038
   17  0.004  0.000  0.029  0.033
   18  0.000  0.002  0.010  0.011
   19  0.000  0.000  0.022  0.023
   20  0.000  0.001  0.032  0.033
   21  0.015  0.001  0.029  0.045
   22  0.012  0.001  0.016  0.029
   23  0.014  0.001  0.029  0.044
   24  0.000  0.000  0.060  0.060
   25  0.000  0.001  0.023  0.024
   26  0.000  0.000  0.022  0.022
   27  0.011  0.001  0.021  0.033
   28  0.000  0.000  0.000  0.000
   29  0.000  0.000  0.002  0.002
   30  0.001  0.000  0.003  0.005
   31  0.000  0.000  0.002  0.002
   32  0.001  0.000  0.004  0.006
   33  0.001  0.000  0.003  0.004
   34  0.001  0.000  0.004  0.006
   35  0.000  0.000  0.007  0.007
   36  0.000  0.001  0.001  0.002
   37  0.000  0.000  0.000  0.000
   38  0.000  0.000  0.000  0.000
tot    0.133  0.018  0.648  0.799
 
band    12 # energy   -5.08380217 # occ.  2.00000000
 
ion      s      p      d    tot
    1  0.001  0.000  0.001  0.002
    2  0.001  0.000  0.009  0.010
    3  0.001  0.000  0.009  0.010
    4  0.001  0.000  0.009  0.010
    5  0.009  0.000  0.004  0.014
    6  0.001  0.000  0.009  0.010
    7  0.001  0.000  0.009  0.010
    8  0.001  0.000  0.009  0.010
    9  0.000  0.000  0.004  0.005
   10  0.002  0.001  0.004  0.007
   11  0.000  0.000  0.025  0.025
   12  0.002  0.001  0.004  0.007
   13  0.000  0.000  0.025  0.025
   14  0.000  0.000  0.025  0.025
   15  0.000  0.000  0.015  0.015
   16  0.002  0.001  0.004  0.007
   17  0.000  0.000  0.015  0.015
   18  0.000  0.000  0.015  0.015
   19  0.016  0.001  0.005  0.021
   20  0.000  0.001  0.067  0.068
   21  0.000  0.001  0.067  0.068
   22  0.005  0.000  0.068  0.073
   23  0.000  0.001  0.067  0.068
   24  0.005  0.000  0.068  0.073
   25  0.016  0.001  0.005  0.021
   26  0.016  0.001  0.005  0.021
   27  0.005  0.000  0.068  0.073
   28  0.002  0.001  0.007  0.010
   29  0.001  0.000  0.009  0.010
   30  0.001  0.000  0.009  0.010
   31  0.001  0.000  0.009  0.010
   32  0.001  0.000  0.009  0.010
   33  0.001  0.000  0.009  0.010
   34  0.001  0.000  0.009  0.010
   35  0.004  0.001  0.004  0.009
   36  0.009  0.001  0.000  0.010
   37  0.001  0.006  0.000  0.006
   38  0.000  0.008  0.000  0.008
tot    0.110  0.026  0.678  0.814
 
band    13 # energy   -5.07266177 # occ.  2.00000000
 
ion      s      p      d    tot
    1  0.000  0.000  0.028  0.029
    2  0.002  0.000  0.009  0.010
    3  0.002  0.000  0.009  0.010
    4  0.002  0.000  0.009  0.010
    5  0.000  0.000  0.000  0.000
    6  0.002  0.000  0.009  0.010
    7  0.002  0.000  0.009  0.010
    8  0.002  0.000  0.009  0.010
    9  0.009  0.001  0.000  0.009
   10  0.005  0.000  0.087  0.093
   11  0.003  0.001  0.038  0.041
   12  0.005  0.000  0.087  0.093
   13  0.003  0.001  0.038  0.041
   14  0.003  0.001  0.038  0.041
   15  0.008  0.001  0.009  0.017
   16  0.005  0.000  0.087  0.093
   17  0.008  0.001  0.009  0.017
   18  0.008  0.001  0.009  0.018
   19  0.000  0.000  0.024  0.025
   20  0.002  0.000  0.008  0.011
   21  0.002  0.000  0.008  0.011
   22  0.000  0.000  0.019  0.019
   23  0.002  0.000  0.008  0.011
   24  0.000  0.000  0.019  0.019
   25  0.000  0.000  0.024  0.025
   26  0.000  0.000  0.024  0.025
   27  0.000  0.000  0.019  0.019
   28  0.007  0.000  0.008  0.015
   29  0.002  0.000  0.010  0.012
   30  0.002  0.000  0.010  0.012
   31  0.002  0.000  0.010  0.012
   32  0.002  0.000  0.010  0.012
   33  0.002  0.000  0.010  0.012
   34  0.002  0.000  0.010  0.012
   35  0.001  0.000  0.006  0.007
   36  0.001  0.001  0.001  0.002
   37  0.000  0.003  0.000  0.003
   38  0.000  0.004  0.000  0.004
tot    0.094  0.017  0.712  0.823
 
band    14 # energy   -5.05891449 # occ.  2.00000000
 
ion      s      p      d    tot
    1  0.000  0.000  0.014  0.014
    2  0.002  0.000  0.005  0.008
    3  0.000  0.000  0.010  0.010
    4  0.002  0.000  0.006  0.008
    5  0.000  0.000  0.008  0.008
    6  0.002  0.001  0.007  0.010
    7  0.000  0.000  0.010  0.010
    8  0.003  0.001  0.006  0.010
    9  0.000  0.000  0.006  0.007
   10  0.000  0.000  0.056  0.056
   11  0.000  0.000  0.034  0.035
   12  0.010  0.000  0.032  0.042
   13  0.000  0.000  0.037  0.037
   14  0.000  0.000  0.017  0.017
   15  0.009  0.000  0.033  0.041
   16  0.009  0.000  0.035  0.044
   17  0.010  0.000  0.023  0.034
   18  0.000  0.000  0.097  0.097
   19  0.000  0.000  0.029  0.029
   20  0.000  0.000  0.050  0.050
   21  0.004  0.000  0.019  0.023
   22  0.002  0.000  0.023  0.024
   23  0.003  0.000  0.023  0.026
   24  0.000  0.000  0.022  0.022
   25  0.000  0.000  0.031  0.031
   26  0.000  0.000  0.028  0.029
   27  0.002  0.000  0.023  0.024
   28  0.000  0.000  0.014  0.014
   29  0.001  0.000  0.006  0.007
   30  0.004  0.000  0.003  0.007
   31  0.001  0.000  0.006  0.007
   32  0.001  0.000  0.005  0.006
   33  0.004  0.000  0.003  0.007
   34  0.001  0.000  0.005  0.006
   35  0.000  0.000  0.006  0.006
   36  0.000  0.001  0.000  0.002
   37  0.000  0.005  0.000  0.005
   38  0.000  0.014  0.000  0.014
tot    0.069  0.029  0.731  0.829
 
band    15 # energy   -5.05891178 # occ.  2.00000000
 
ion      s      p      d    tot
    1  0.000  0.000  0.014  0.014
    2  0.001  0.001  0.009  0.011
    3  0.003  0.001  0.005  0.008
    4  0.001  0.001  0.009  0.010
    5  0.000  0.000  0.008  0.008
    6  0.001  0.000  0.008  0.009
    7  0.003  0.001  0.005  0.009
    8  0.001  0.000  0.008  0.009
    9  0.000  0.000  0.006  0.007
   10  0.013  0.000  0.026  0.039
   11  0.000  0.000  0.024  0.025
   12  0.003  0.000  0.050  0.052
   13  0.000  0.000  0.022  0.022
   14  0.000  0.000  0.042  0.042
   15  0.004  0.000  0.069  0.073
   16  0.004  0.000  0.047  0.051
   17  0.003  0.000  0.078  0.081
   18  0.012  0.000  0.005  0.018
   19  0.000  0.000  0.030  0.030
   20  0.005  0.000  0.011  0.016
   21  0.001  0.000  0.042  0.043
   22  0.000  0.000  0.022  0.023
   23  0.001  0.000  0.038  0.040
   24  0.002  0.000  0.023  0.025
   25  0.000  0.000  0.028  0.028
   26  0.000  0.000  0.031  0.031
   27  0.001  0.000  0.022  0.023
   28  0.000  0.000  0.014  0.014
   29  0.003  0.000  0.003  0.007
   30  0.000  0.000  0.006  0.007
   31  0.003  0.000  0.004  0.007
   32  0.003  0.000  0.005  0.007
   33  0.000  0.000  0.006  0.006
   34  0.003  0.000  0.004  0.007
   35  0.000  0.000  0.006  0.006
   36  0.000  0.001  0.000  0.002
   37  0.000  0.005  0.000  0.005
   38  0.000  0.014  0.000  0.014
tot    0.069  0.029  0.732  0.830
 
band    16 # energy   -5.04863048 # occ.  2.00000000
 
ion      s      p      d    tot
    1  0.000  0.000  0.002  0.003
    2  0.002  0.000  0.012  0.014
    3  0.002  0.000  0.012  0.014
    4  0.002  0.000  0.012  0.014
    5  0.005  0.000  0.000  0.006
    6  0.002  0.000  0.012  0.014
    7  0.002  0.000  0.012  0.013
    8  0.002  0.000  0.012  0.014
    9  0.005  0.000  0.021  0.026
   10  0.004  0.000  0.019  0.023
   11  0.001  0.000  0.008  0.009
   12  0.004  0.000  0.019  0.023
   13  0.001  0.000  0.008  0.009
   14  0.001  0.000  0.008  0.009
   15  0.001  0.000  0.054  0.055
   16  0.004  0.000  0.019  0.023
   17  0.001  0.000  0.054  0.055
   18  0.001  0.000  0.054  0.056
   19  0.000  0.000  0.037  0.037
   20  0.005  0.000  0.021  0.027
   21  0.005  0.000  0.021  0.027
   22  0.000  0.000  0.035  0.036
   23  0.005  0.000  0.021  0.027
   24  0.000  0.000  0.035  0.036
   25  0.000  0.000  0.037  0.037
   26  0.000  0.000  0.037  0.037
   27  0.000  0.000  0.035  0.036
   28  0.003  0.000  0.000  0.003
   29  0.004  0.000  0.014  0.018
   30  0.004  0.000  0.014  0.018
   31  0.004  0.000  0.014  0.018
   32  0.004  0.000  0.014  0.018
   33  0.004  0.000  0.014  0.018
   34  0.004  0.000  0.014  0.018
   35  0.013  0.000  0.017  0.030
   36  0.000  0.002  0.001  0.004
   37  0.000  0.001  0.000  0.001
   38  0.000  0.002  0.000  0.002
tot    0.092  0.012  0.720  0.824
 
band    17 # energy   -5.04396973 # occ.  2.00000000
 
ion      s      p      d    tot
    1  0.000  0.000  0.005  0.005
    2  0.003  0.000  0.006  0.009
    3  0.000  0.000  0.009  0.009
    4  0.003  0.000  0.006  0.009
    5  0.000  0.000  0.009  0.010
    6  0.002  0.000  0.006  0.008
    7  0.000  0.000  0.009  0.009
    8  0.002  0.000  0.006  0.008
    9  0.000  0.000  0.018  0.018
   10  0.003  0.000  0.025  0.028
   11  0.001  0.000  0.049  0.051
   12  0.001  0.000  0.025  0.025
   13  0.001  0.000  0.048  0.050
   14  0.006  0.000  0.009  0.015
   15  0.000  0.000  0.029  0.029
   16  0.001  0.000  0.025  0.025
   17  0.000  0.000  0.029  0.029
   18  0.001  0.000  0.040  0.041
   19  0.002  0.000  0.066  0.067
   20  0.001  0.000  0.053  0.053
   21  0.000  0.000  0.022  0.022
   22  0.003  0.000  0.061  0.064
   23  0.000  0.000  0.021  0.021
   24  0.012  0.000  0.021  0.033
   25  0.007  0.000  0.009  0.016
   26  0.002  0.000  0.064  0.066
   27  0.003  0.000  0.062  0.065
   28  0.000  0.000  0.004  0.004
   29  0.000  0.000  0.007  0.007
   30  0.002  0.000  0.002  0.004
   31  0.000  0.000  0.007  0.007
   32  0.001  0.000  0.007  0.009
   33  0.002  0.000  0.002  0.004
   34  0.001  0.000  0.007  0.009
   35  0.000  0.000  0.010  0.010
   36  0.000  0.000  0.001  0.001
   37  0.000  0.001  0.000  0.001
   38  0.000  0.001  0.000  0.001
tot    0.057  0.009  0.779  0.845
 
band    18 # energy   -5.04393214 # occ.  2.00000000
 
ion      s      p      d    tot
    1  0.000  0.000  0.005  0.005
    2  0.000  0.000  0.008  0.008
    3  0.003  0.000  0.005  0.009
    4  0.000  0.000  0.008  0.008
    5  0.000  0.000  0.009  0.010
    6  0.001  0.000  0.008  0.010
    7  0.003  0.000  0.005  0.009
    8  0.002  0.000  0.008  0.010
    9  0.000  0.000  0.018  0.018
   10  0.000  0.000  0.024  0.024
   11  0.004  0.000  0.022  0.026
   12  0.002  0.000  0.025  0.027
   13  0.004  0.000  0.023  0.027
   14  0.000  0.000  0.062  0.062
   15  0.000  0.000  0.036  0.037
   16  0.002  0.000  0.025  0.027
   17  0.000  0.000  0.036  0.037
   18  0.000  0.000  0.025  0.026
   19  0.005  0.000  0.027  0.032
   20  0.000  0.000  0.011  0.011
   21  0.000  0.000  0.042  0.042
   22  0.009  0.000  0.035  0.044
   23  0.000  0.000  0.043  0.043
   24  0.000  0.000  0.075  0.075
   25  0.000  0.000  0.084  0.084
   26  0.005  0.000  0.028  0.033
   27  0.009  0.000  0.034  0.043
   28  0.000  0.000  0.004  0.004
   29  0.002  0.001  0.004  0.006
   30  0.000  0.000  0.009  0.009
   31  0.002  0.001  0.004  0.006
   32  0.001  0.000  0.004  0.005
   33  0.000  0.000  0.009  0.009
   34  0.001  0.000  0.004  0.005
   35  0.000  0.000  0.010  0.010
   36  0.000  0.000  0.001  0.001
   37  0.000  0.000  0.000  0.000
   38  0.000  0.001  0.000  0.001
tot    0.056  0.009  0.779  0.845
 
band    19 # energy   -4.99172792 # occ.  2.00000000
 
ion      s      p      d    tot
    1  0.000  0.000  0.000  0.000
    2  0.000  0.000  0.001  0.002
    3  0.000  0.000  0.000  0.000
    4  0.000  0.000  0.001  0.002
    5  0.000  0.000  0.000  0.000
    6  0.000  0.000  0.001  0.001
    7  0.000  0.000  0.000  0.000
    8  0.000  0.000  0.001  0.001
    9  0.000  0.000  0.000  0.000
   10  0.001  0.000  0.006  0.007
   11  0.000  0.000  0.006  0.006
   12  0.000  0.000  0.004  0.004
   13  0.000  0.000  0.006  0.006
   14  0.000  0.000  0.004  0.004
   15  0.001  0.000  0.014  0.014
   16  0.000  0.000  0.004  0.004
   17  0.001  0.000  0.014  0.014
   18  0.002  0.000  0.000  0.003
   19  0.000  0.000  0.001  0.001
   20  0.000  0.000  0.002  0.002
   21  0.000  0.000  0.002  0.002
   22  0.000  0.000  0.001  0.001
   23  0.000  0.000  0.002  0.002
   24  0.001  0.000  0.003  0.004
   25  0.001  0.000  0.000  0.001
   26  0.000  0.000  0.001  0.001
   27  0.000  0.000  0.001  0.001
   28  0.000  0.000  0.001  0.001
   29  0.001  0.000  0.005  0.006
   30  0.000  0.000  0.002  0.002
   31  0.001  0.000  0.005  0.006
   32  0.000  0.001  0.004  0.005
   33  0.000  0.000  0.002  0.002
   34  0.000  0.001  0.004  0.005
   35  0.000  0.000  0.002  0.002
   36  0.000  0.003  0.014  0.017
   37  0.000  0.151  0.000  0.151
   38  0.000  0.402  0.000  0.402
tot    0.012  0.560  0.115  0.686
 
band    20 # energy   -4.99162863 # occ.  2.00000000
 
ion      s      p      d    tot
    1  0.000  0.000  0.000  0.000
    2  0.000  0.000  0.000  0.000
    3  0.000  0.000  0.001  0.001
    4  0.000  0.000  0.000  0.000
    5  0.000  0.000  0.000  0.000
    6  0.000  0.000  0.001  0.001
    7  0.000  0.000  0.001  0.001
    8  0.000  0.000  0.001  0.001
    9  0.000  0.000  0.000  0.000
   10  0.000  0.000  0.003  0.003
   11  0.000  0.000  0.005  0.005
   12  0.001  0.000  0.005  0.006
   13  0.000  0.000  0.005  0.005
   14  0.000  0.000  0.006  0.006
   15  0.002  0.000  0.005  0.006
   16  0.001  0.000  0.005  0.006
   17  0.002  0.000  0.005  0.006
   18  0.000  0.000  0.018  0.018
   19  0.001  0.000  0.001  0.001
   20  0.000  0.000  0.003  0.003
   21  0.000  0.000  0.002  0.002
   22  0.001  0.000  0.002  0.003
   23  0.000  0.000  0.002  0.002
   24  0.000  0.000  0.000  0.001
   25  0.000  0.000  0.001  0.001
   26  0.001  0.000  0.001  0.001
   27  0.001  0.000  0.002  0.003
   28  0.000  0.000  0.001  0.001
   29  0.000  0.000  0.003  0.003
   30  0.001  0.001  0.005  0.007
   31  0.000  0.000  0.003  0.003
   32  0.001  0.000  0.003  0.004
   33  0.001  0.001  0.005  0.007
   34  0.001  0.000  0.003  0.004
   35  0.000  0.000  0.002  0.002
   36  0.000  0.003  0.014  0.017
   37  0.000  0.151  0.000  0.151
   38  0.000  0.402  0.000  0.402
tot    0.012  0.560  0.115  0.686
 
band    21 # energy   -4.91676954 # occ.  2.00000000
 
ion      s      p      d    tot
    1  0.000  0.000  0.000  0.000
    2  0.000  0.000  0.005  0.005
    3  0.000  0.000  0.005  0.005
    4  0.000  0.000  0.005  0.005
    5  0.000  0.000  0.022  0.023
    6  0.000  0.000  0.005  0.005
    7  0.000  0.000  0.005  0.005
    8  0.000  0.000  0.005  0.005
    9  0.000  0.000  0.003  0.004
   10  0.000  0.000  0.009  0.009
   11  0.000  0.001  0.080  0.081
   12  0.000  0.000  0.009  0.009
   13  0.000  0.001  0.080  0.081
   14  0.000  0.001  0.080  0.081
   15  0.002  0.000  0.028  0.030
   16  0.000  0.000  0.009  0.009