 vasp.6.2.0 18Jan21 (build Jun 12 2021 23:27:24) complex                        
  
 executed on             LinuxIFC date 2022.05.30  16:00:49
 running on   28 total cores
 distrk:  each k-point on   28 cores,    1 groups
 distr:  one band on NCORE=   1 cores,   28 groups


--------------------------------------------------------------------------------------------------------


 INCAR:
   ISMEAR = -5
   SIGMA = 0.1
   ISPIN = 1
   EDIFF = 1.d-5
   EDIFFG = -0.01
   NSW = 0
   NELM = 150
   ENCUT = 500
   ISIF = 2
   IBRION = 2
   LREAL = Auto
   ALGO = Fast
   ICHARG = 11
   LORBIT = 10
   LCHARG = .F.
   LWAVE = .F.

 POTCAR:    PAW_PBE Au 04Oct2007                  
 POTCAR:    PAW_PBE Ni 02Aug2007                  
 POTCAR:    PAW_PBE C 08Apr2002                   
 POTCAR:    PAW_PBE O 08Apr2002                   
 POTCAR:    PAW_PBE H 15Jun2001                   
 -----------------------------------------------------------------------------
|                                                                             |
|           W    W    AA    RRRRR   N    N  II  N    N   GGGG   !!!           |
|           W    W   A  A   R    R  NN   N  II  NN   N  G    G  !!!           |
|           W    W  A    A  R    R  N N  N  II  N N  N  G       !!!           |
|           W WW W  AAAAAA  RRRRR   N  N N  II  N  N N  G  GGG   !            |
|           WW  WW  A    A  R   R   N   NN  II  N   NN  G    G                |
|           W    W  A    A  R    R  N    N  II  N    N   GGGG   !!!           |
|                                                                             |
|     For optimal performance we recommend to set                             |
|       NCORE = 2 up to number-of-cores-per-socket                            |
|     NCORE specifies how many cores store one orbital (NPAR=cpu/NCORE).      |
|     This setting can greatly improve the performance of VASP for DFT.       |
|     The default, NCORE=1 might be grossly inefficient on modern             |
|     multi-core architectures or massively parallel machines. Do your        |
|     own testing! More info at https://www.vasp.at/wiki/index.php/NCORE      |
|     Unfortunately you need to use the default for GW and RPA                |
|     calculations (for HF NCORE is supported but not extensively tested      |
|     yet).                                                                   |
|                                                                             |
 -----------------------------------------------------------------------------

 POTCAR:    PAW_PBE Au 04Oct2007                  
   VRHFIN =Au: s1d10                                                                                
   LEXCH  = PE                                                                                      
   EATOM  =   926.0867 eV,   68.0654 Ry                                                             
                                                                                                    
   TITEL  = PAW_PBE Au 04Oct2007                                                                    
   LULTRA =        F    use ultrasoft PP ?                                                          
   IUNSCR =        1    unscreen: 0-lin 1-nonlin 2-no                                               
   RPACOR =    2.330    partial core radius                                                         
   POMASS =  196.966; ZVAL   =   11.000    mass and valenz                                          
   RCORE  =    2.500    outmost cutoff radius                                                       
   RWIGS  =    2.840; RWIGS  =    1.503    wigner-seitz radius (au A)                               
   ENMAX  =  229.943; ENMIN  =  172.457 eV                                                          
   ICORE  =        3    local potential                                                             
   LCOR   =        T    correct aug charges                                                         
   LPAW   =        T    paw PP                                                                      
   EAUG   =  356.670                                                                                
   DEXC   =    0.000                                                                                
   RMAX   =    2.562    core radius for proj-oper                                                   
   RAUG   =    1.300    factor for augmentation sphere                                              
   RDEP   =    2.598    radius for radial grids                                                     
   RDEPT  =    2.193    core radius for aug-charge                                                  
                                                                                                    
   Atomic configuration                                                                             
   16 entries                                                                                       
     n  l   j            E        occ.                                                              
     1  0  0.50    -80748.5001   2.0000                                                             
     2  0  0.50    -14244.7466   2.0000                                                             
     2  1  1.50    -12310.9591   6.0000                                                             
     3  0  0.50     -3362.1768   2.0000                                                             
     3  1  1.50     -2801.5463   6.0000                                                             
     3  2  2.50     -2203.8206  10.0000                                                             
     4  0  0.50      -729.8168   2.0000                                                             
     4  1  1.50      -546.0527   6.0000                                                             
     4  2  2.50      -325.7302  10.0000                                                             
     4  3  3.50       -81.1472  14.0000                                                             
     5  0  0.50      -108.3201   2.0000                                                             
     5  1  1.50       -59.7479   6.0000                                                             
     5  2  2.50        -6.8783  10.0000                                                             
     6  0  0.50        -5.7602   1.0000                                                             
     6  1  1.50        -6.8029   0.0000                                                             
     5  3  2.50        -1.3606   0.0000                                                             
   Description                                                                                      
     l       E           TYP  RCUT    TYP  RCUT                                                     
     2     -6.8782861     23  2.500                                                                 
     2     -8.2388687     23  2.500                                                                 
     0     -5.7601759     23  2.500                                                                 
     0     -0.8493231     23  2.500                                                                 
     1     -2.7211652     23  2.500                                                                 
     1     27.2116520     23  2.500                                                                 
     3     -1.3605826     23  2.500                                                                 
  local pseudopotential read in
  partial core-charges read in
  partial kinetic energy density read in
  atomic valenz-charges read in
  non local Contribution for L=           2  read in
    real space projection operators read in
  non local Contribution for L=           2  read in
    real space projection operators read in
  non local Contribution for L=           0  read in
    real space projection operators read in
  non local Contribution for L=           0  read in
    real space projection operators read in
  non local Contribution for L=           1  read in
    real space projection operators read in
  non local Contribution for L=           1  read in
    real space projection operators read in
    PAW grid and wavefunctions read in
 
   number of l-projection  operators is LMAX  =           6
   number of lm-projection operators is LMMAX =          18
 
 POTCAR:    PAW_PBE Ni 02Aug2007                  
   VRHFIN =Ni:                                                                                      
   LEXCH  = PE                                                                                      
   EATOM  =  1077.6739 eV,   79.2068 Ry                                                             
                                                                                                    
   TITEL  = PAW_PBE Ni 02Aug2007                                                                    
   LULTRA =        F    use ultrasoft PP ?                                                          
   IUNSCR =        1    unscreen: 0-lin 1-nonlin 2-no                                               
   RPACOR =    2.000    partial core radius                                                         
   POMASS =   58.690; ZVAL   =   10.000    mass and valenz                                          
   RCORE  =    2.300    outmost cutoff radius                                                       
   RWIGS  =    2.430; RWIGS  =    1.286    wigner-seitz radius (au A)                               
   ENMAX  =  269.532; ENMIN  =  202.149 eV                                                          
   RCLOC  =    1.201    cutoff for local pot                                                        
   LCOR   =        T    correct aug charges                                                         
   LPAW   =        T    paw PP                                                                      
   EAUG   =  544.565                                                                                
   DEXC   =    0.000                                                                                
   RMAX   =    2.357    core radius for proj-oper                                                   
   RAUG   =    1.300    factor for augmentation sphere                                              
   RDEP   =    2.390    radius for radial grids                                                     
   RDEPT  =    1.838    core radius for aug-charge                                                  
                                                                                                    
   Atomic configuration                                                                             
    9 entries                                                                                       
     n  l   j            E        occ.                                                              
     1  0  0.50     -8206.4253   2.0000                                                             
     2  0  0.50      -976.1748   2.0000                                                             
     2  1  1.50      -839.0571   6.0000                                                             
     3  0  0.50      -105.9991   2.0000                                                             
     3  1  1.50       -66.4603   6.0000                                                             
     3  2  2.50        -4.6458   9.0000                                                             
     4  0  0.50        -4.4926   1.0000                                                             
     4  1  1.50        -4.0817   0.0000                                                             
     4  3  2.50        -1.3606   0.0000                                                             
   Description                                                                                      
     l       E           TYP  RCUT    TYP  RCUT                                                     
     2     -4.6457903     23  2.300                                                                 
     2     -6.0063729     23  2.300                                                                 
     0     -4.4925590     23  2.300                                                                 
     0      5.0102601     23  2.300                                                                 
     1     -2.7211652     23  2.300                                                                 
     1     16.5183231     23  2.300                                                                 
  local pseudopotential read in
  partial core-charges read in
  partial kinetic energy density read in
  atomic valenz-charges read in
  non local Contribution for L=           2  read in
    real space projection operators read in
  non local Contribution for L=           2  read in
    real space projection operators read in
  non local Contribution for L=           0  read in
    real space projection operators read in
  non local Contribution for L=           0  read in
    real space projection operators read in
  non local Contribution for L=           1  read in
    real space projection operators read in
  non local Contribution for L=           1  read in
    real space projection operators read in
    PAW grid and wavefunctions read in
 
   number of l-projection  operators is LMAX  =           6
   number of lm-projection operators is LMMAX =          18
 
 POTCAR:    PAW_PBE C 08Apr2002                   
   VRHFIN =C: s2p2                                                                                  
   LEXCH  = PE                                                                                      
   EATOM  =   147.1560 eV,   10.8157 Ry                                                             
                                                                                                    
   TITEL  = PAW_PBE C 08Apr2002                                                                     
   LULTRA =        F    use ultrasoft PP ?                                                          
   IUNSCR =        1    unscreen: 0-lin 1-nonlin 2-no                                               
   RPACOR =    1.200    partial core radius                                                         
   POMASS =   12.011; ZVAL   =    4.000    mass and valenz                                          
   RCORE  =    1.500    outmost cutoff radius                                                       
   RWIGS  =    1.630; RWIGS  =    0.863    wigner-seitz radius (au A)                               
   ENMAX  =  400.000; ENMIN  =  300.000 eV                                                          
   ICORE  =        2    local potential                                                             
   LCOR   =        T    correct aug charges                                                         
   LPAW   =        T    paw PP                                                                      
   EAUG   =  644.873                                                                                
   DEXC   =    0.000                                                                                
   RMAX   =    1.529    core radius for proj-oper                                                   
   RAUG   =    1.300    factor for augmentation sphere                                              
   RDEP   =    1.501    radius for radial grids                                                     
   RDEPT  =    1.300    core radius for aug-charge                                                  
                                                                                                    
   Atomic configuration                                                                             
    4 entries                                                                                       
     n  l   j            E        occ.                                                              
     1  0  0.50      -273.3789   2.0000                                                             
     2  0  0.50       -13.7508   2.0000                                                             
     2  1  0.50        -5.2854   2.0000                                                             
     3  2  1.50        -5.4423   0.0000                                                             
   Description                                                                                      
     l       E           TYP  RCUT    TYP  RCUT                                                     
     0    -13.7508458     23  1.200                                                                 
     0     -8.2022199     23  1.200                                                                 
     1     -5.2854383     23  1.500                                                                 
     1     34.0145650     23  1.500                                                                 
     2     -5.4423304      7  1.500                                                                 
  local pseudopotential read in
  partial core-charges read in
  partial kinetic energy density read in
  atomic valenz-charges read in
  non local Contribution for L=           0  read in
    real space projection operators read in
  non local Contribution for L=           0  read in
    real space projection operators read in
  non local Contribution for L=           1  read in
    real space projection operators read in
  non local Contribution for L=           1  read in
    real space projection operators read in
    PAW grid and wavefunctions read in
 
   number of l-projection  operators is LMAX  =           4
   number of lm-projection operators is LMMAX =           8
 
 POTCAR:    PAW_PBE O 08Apr2002                   
   VRHFIN =O: s2p4                                                                                  
   LEXCH  = PE                                                                                      
   EATOM  =   432.3788 eV,   31.7789 Ry                                                             
                                                                                                    
   TITEL  = PAW_PBE O 08Apr2002                                                                     
   LULTRA =        F    use ultrasoft PP ?                                                          
   IUNSCR =        1    unscreen: 0-lin 1-nonlin 2-no                                               
   RPACOR =    1.200    partial core radius                                                         
   POMASS =   16.000; ZVAL   =    6.000    mass and valenz                                          
   RCORE  =    1.520    outmost cutoff radius                                                       
   RWIGS  =    1.550; RWIGS  =    0.820    wigner-seitz radius (au A)                               
   ENMAX  =  400.000; ENMIN  =  300.000 eV                                                          
   ICORE  =        2    local potential                                                             
   LCOR   =        T    correct aug charges                                                         
   LPAW   =        T    paw PP                                                                      
   EAUG   =  605.392                                                                                
   DEXC   =    0.000                                                                                
   RMAX   =    1.553    core radius for proj-oper                                                   
   RAUG   =    1.300    factor for augmentation sphere                                              
   RDEP   =    1.550    radius for radial grids                                                     
   RDEPT  =    1.329    core radius for aug-charge                                                  
                                                                                                    
   Atomic configuration                                                                             
    4 entries                                                                                       
     n  l   j            E        occ.                                                              
     1  0  0.50      -514.6923   2.0000                                                             
     2  0  0.50       -23.9615   2.0000                                                             
     2  1  0.50        -9.0305   4.0000                                                             
     3  2  1.50        -9.5241   0.0000                                                             
   Description                                                                                      
     l       E           TYP  RCUT    TYP  RCUT                                                     
     0    -23.9615318     23  1.200                                                                 
     0     -9.5240782     23  1.200                                                                 
     1     -9.0304911     23  1.520                                                                 
     1      8.1634956     23  1.520                                                                 
     2     -9.5240782      7  1.500                                                                 
  local pseudopotential read in
  partial core-charges read in
  partial kinetic energy density read in
  kinetic energy density of atom read in
  atomic valenz-charges read in
  non local Contribution for L=           0  read in
    real space projection operators read in
  non local Contribution for L=           0  read in
    real space projection operators read in
  non local Contribution for L=           1  read in
    real space projection operators read in
  non local Contribution for L=           1  read in
    real space projection operators read in
    PAW grid and wavefunctions read in
 
   number of l-projection  operators is LMAX  =           4
   number of lm-projection operators is LMMAX =           8
 
 POTCAR:    PAW_PBE H 15Jun2001                   
   VRHFIN =H: ultrasoft test                                                                        
   LEXCH  = PE                                                                                      
   EATOM  =    12.4884 eV,    0.9179 Ry                                                             
                                                                                                    
   TITEL  = PAW_PBE H 15Jun2001                                                                     
   LULTRA =        F    use ultrasoft PP ?                                                          
   IUNSCR =        0    unscreen: 0-lin 1-nonlin 2-no                                               
   RPACOR =    0.000    partial core radius                                                         
   POMASS =    1.000; ZVAL   =    1.000    mass and valenz                                          
   RCORE  =    1.100    outmost cutoff radius                                                       
   RWIGS  =    0.700; RWIGS  =    0.370    wigner-seitz radius (au A)                               
   ENMAX  =  250.000; ENMIN  =  200.000 eV                                                          
   RCLOC  =    0.701    cutoff for local pot                                                        
   LCOR   =        T    correct aug charges                                                         
   LPAW   =        T    paw PP                                                                      
   EAUG   =  400.000                                                                                
   RMAX   =    1.123    core radius for proj-oper                                                   
   RAUG   =    1.200    factor for augmentation sphere                                              
   RDEP   =    1.112    radius for radial grids                                                     
   RDEPT  =    0.926    core radius for aug-charge                                                  
                                                                                                    
   Atomic configuration                                                                             
    2 entries                                                                                       
     n  l   j            E        occ.                                                              
     1  0  0.50        -6.4927   1.0000                                                             
     2  1  0.50        -3.4015   0.0000                                                             
   Description                                                                                      
     l       E           TYP  RCUT    TYP  RCUT                                                     
     0     -6.4927494     23  1.100                                                                 
     0      6.8029130     23  1.100                                                                 
     1     -4.0817478     23  1.100                                                                 
  local pseudopotential read in
  atomic valenz-charges read in
  non local Contribution for L=           0  read in
    real space projection operators read in
  non local Contribution for L=           0  read in
    real space projection operators read in
  non local Contribution for L=           1  read in
    real space projection operators read in
    PAW grid and wavefunctions read in
 
   number of l-projection  operators is LMAX  =           3
   number of lm-projection operators is LMMAX =           5
 
 Optimization of the real space projectors (new method)

 maximal supplied QI-value         = 15.12
 optimisation between [QCUT,QGAM] = [ 11.34, 22.83] = [ 36.00,145.93] Ry 
 Optimized for a Real-space Cutoff    1.39 Angstroem

   l    n(q)    QCUT    max X(q) W(low)/X(q) W(high)/X(q)  e(spline) 
   2      9    11.338    60.898    0.39E-03    0.42E-03    0.21E-06
   2      9    11.338    58.894    0.40E-03    0.42E-03    0.22E-06
   0      9    11.338   109.617    0.13E-03    0.20E-04    0.13E-06
   0      9    11.338    75.026    0.13E-03    0.20E-04    0.13E-06
   1      9    11.338    16.344    0.33E-04    0.24E-03    0.18E-06
   1      9    11.338    10.160    0.26E-04    0.19E-03    0.15E-06
 Optimization of the real space projectors (new method)

 maximal supplied QI-value         = 16.25
 optimisation between [QCUT,QGAM] = [ 11.38, 22.75] = [ 36.24,144.96] Ry 
 Optimized for a Real-space Cutoff    1.39 Angstroem

   l    n(q)    QCUT    max X(q) W(low)/X(q) W(high)/X(q)  e(spline) 
   2      8    11.376    60.317    0.19E-03    0.33E-04    0.13E-06
   2      8    11.376    55.921    0.20E-03    0.34E-04    0.14E-06
   0      9    11.376    51.690    0.82E-04    0.12E-03    0.20E-06
   0      9    11.376    30.015    0.74E-04    0.11E-03    0.18E-06
   1      9    11.376    18.849    0.39E-03    0.12E-03    0.13E-06
   1      9    11.376    14.624    0.33E-03    0.10E-03    0.11E-06
 Optimization of the real space projectors (new method)

 maximal supplied QI-value         = 25.13
 optimisation between [QCUT,QGAM] = [ 11.31, 22.87] = [ 35.82,146.48] Ry 
 Optimized for a Real-space Cutoff    1.00 Angstroem

   l    n(q)    QCUT    max X(q) W(low)/X(q) W(high)/X(q)  e(spline) 
   0      7    11.310   115.676    0.43E-03    0.13E-02    0.19E-06
   0      7    11.310    87.132    0.43E-03    0.13E-02    0.18E-06
   1      6    11.310     4.429    0.42E-03    0.74E-03    0.11E-06
   1      6    11.310     2.733    0.34E-03    0.55E-03    0.92E-07
 Optimization of the real space projectors (new method)

 maximal supplied QI-value         = 24.76
 optimisation between [QCUT,QGAM] = [ 11.39, 22.77] = [ 36.31,145.25] Ry 
 Optimized for a Real-space Cutoff    1.00 Angstroem

   l    n(q)    QCUT    max X(q) W(low)/X(q) W(high)/X(q)  e(spline) 
   0      7    11.387    20.381    0.39E-03    0.13E-02    0.15E-06
   0      7    11.387    15.268    0.42E-03    0.14E-02    0.17E-06
   1      6    11.387     5.964    0.41E-03    0.11E-02    0.17E-06
   1      6    11.387     5.382    0.39E-03    0.87E-03    0.15E-06
 Optimization of the real space projectors (new method)

 maximal supplied QI-value         = 34.20
 optimisation between [QCUT,QGAM] = [ 11.29, 22.57] = [ 35.68,142.71] Ry 
 Optimized for a Real-space Cutoff    1.16 Angstroem

   l    n(q)    QCUT    max X(q) W(low)/X(q) W(high)/X(q)  e(spline) 
   0      8    11.287    19.460    0.40E-03    0.73E-03    0.16E-06
   0      8    11.287    12.209    0.38E-03    0.70E-03    0.15E-06
   1      7    11.287     4.655    0.22E-03    0.25E-04    0.22E-06
  PAW_PBE Au 04Oct2007                  :
 energy of atom  1       EATOM= -926.0867
 kinetic energy error for atom=    0.0042 (will be added to EATOM!!)
  PAW_PBE Ni 02Aug2007                  :
 energy of atom  2       EATOM=-1077.6739
 kinetic energy error for atom=    0.0030 (will be added to EATOM!!)
  PAW_PBE C 08Apr2002                   :
 energy of atom  3       EATOM= -147.1560
 kinetic energy error for atom=    0.0076 (will be added to EATOM!!)
  PAW_PBE O 08Apr2002                   :
 energy of atom  4       EATOM= -432.3788
 kinetic energy error for atom=    0.0224 (will be added to EATOM!!)
  PAW_PBE H 15Jun2001                   :
 energy of atom  5       EATOM=  -12.4884
 kinetic energy error for atom=    0.0020 (will be added to EATOM!!)
 
 
 POSCAR: Au-Ni-COH
  positions in direct lattice
  velocities in cartesian coordinates
 exchange correlation table for  LEXCH =        8
   RHO(1)=    0.500       N(1)  =     2000
   RHO(2)=  100.500       N(2)  =     4000

 VTST: version 3.2, (02/03/18)

 CHAIN: initializing optimizer
 
 OPT: Using VASP Conjugate-Gradient optimizer
 CHAIN: Read ICHAIN            0
 
 POSCAR: Au-Ni-COH
  positions in direct lattice
  velocities in cartesian coordinates
 


--------------------------------------------------------------------------------------------------------


 ion  position               nearest neighbor table
   1  0.000  0.000  0.197-  16 2.94  12 2.94   6 2.94   8 2.94   7 2.94   3 2.94  10 2.94   4 2.94
                             2 2.94
   2  0.333  0.000  0.197-   9 2.94  11 2.94  17 2.94  10 2.94   8 2.94   4 2.94   5 2.94   1 2.94
                             3 2.94
   3  0.667  0.000  0.197-   7 2.94  18 2.94  12 2.94   1 2.94  11 2.94   5 2.94   6 2.94   9 2.94
                             2 2.94
   4  0.000  0.333  0.197-  10 2.94   6 2.94   5 2.94  13 2.94   2 2.94  15 2.94   9 2.94   1 2.94
                             7 2.94
   5  0.333  0.333  0.197-  13 2.94   7 2.94  11 2.94   4 2.94   2 2.94  14 2.94   3 2.94   8 2.94
                             6 2.94
   6  0.667  0.333  0.197-  15 2.94  14 2.94   1 2.94  12 2.94   4 2.94   9 2.94   8 2.94   3 2.94
                             5 2.94
   7  0.000  0.667  0.197-  18 2.94   3 2.94  16 2.94   5 2.94   1 2.94  13 2.94   8 2.94   4 2.94
                             9 2.94
   8  0.333  0.667  0.197-   9 2.94  17 2.94   1 2.94   2 2.94  14 2.94  16 2.94   6 2.94   7 2.94
                             5 2.94
   9  0.667  0.667  0.197-   2 2.94   8 2.94  17 2.94   6 2.94  15 2.94   4 2.94   3 2.94  18 2.94
                             7 2.94
  10  0.111  0.111  0.287-  20 2.93  26 2.93  19 2.93  11 2.94  17 2.94   2 2.94   4 2.94   1 2.94
                            12 2.94  16 2.94  13 2.94  15 2.94
  11  0.444  0.111  0.287-  20 2.92  21 2.92  27 2.93  13 2.94   2 2.94  10 2.94  17 2.94   5 2.94
                             3 2.94  18 2.94  14 2.94  12 2.94
  12  0.778  0.111  0.287-  21 2.93  25 2.93  19 2.93  16 2.94  18 2.94   1 2.94  14 2.94  15 2.94
                             3 2.94   6 2.94  10 2.94  11 2.94
  13  0.111  0.444  0.287-  23 2.92  20 2.92  22 2.93   5 2.94  18 2.94  11 2.94   7 2.94   4 2.94
                            16 2.94  10 2.94  14 2.94  15 2.94
  14  0.444  0.444  0.287-  21 2.92  23 2.92  24 2.93  15 2.94   6 2.94  12 2.94   8 2.94  17 2.94
                             5 2.94  16 2.94  13 2.94  11 2.94
  15  0.778  0.444  0.287-  24 2.92  22 2.92  19 2.93  14 2.94   6 2.94  17 2.94  12 2.94   9 2.94
                             4 2.94  10 2.94  13 2.94  18 2.94
  16  0.111  0.778  0.287-  23 2.93  25 2.93  26 2.93  18 2.94  12 2.94   7 2.94   1 2.94   8 2.94
                            13 2.94  10 2.94  14 2.94  17 2.94
  17  0.444  0.778  0.287-  27 2.92  24 2.92  26 2.93   9 2.94  15 2.94   2 2.94  10 2.94  11 2.94
                             8 2.94  14 2.94  16 2.94  18 2.94
  18  0.778  0.778  0.287-  22 2.92  27 2.92  25 2.93  16 2.94   7 2.94  13 2.94  12 2.94   3 2.94
                            11 2.94   9 2.94  15 2.94  17 2.94
  19  0.889  0.222  0.376-  10 2.93  12 2.93  15 2.93  26 2.93  25 2.93  24 2.94  22 2.94  21 2.95
                            20 2.95  28 2.95  32 2.96  31 2.96
  20  0.223  0.223  0.376-  36 2.70  29 2.91  31 2.91  11 2.92  13 2.92  23 2.92  21 2.92  10 2.93
                            27 2.95  22 2.95  26 2.95  19 2.95
  21  0.554  0.223  0.376-  36 2.70  30 2.91  32 2.91  14 2.92  11 2.92  20 2.92  23 2.92  12 2.93
                            27 2.95  24 2.95  25 2.95  19 2.95
  22  0.888  0.556  0.376-  18 2.92  15 2.92  24 2.92  27 2.92  13 2.93  25 2.94  19 2.94  33 2.94
                            31 2.94  23 2.95  20 2.95  35 2.96
  23  0.223  0.554  0.376-  36 2.70  33 2.91  34 2.91  13 2.92  14 2.92  20 2.92  21 2.92  16 2.93
                            22 2.95  24 2.95  25 2.95  26 2.95
  24  0.556  0.556  0.376-  15 2.92  17 2.92  27 2.92  22 2.92  14 2.93  26 2.94  19 2.94  32 2.94
                            34 2.94  21 2.95  23 2.95  35 2.96
  25  0.889  0.889  0.376-  16 2.93  12 2.93  18 2.93  19 2.93  26 2.93  22 2.94  27 2.94  23 2.95
                            21 2.95  28 2.95  33 2.96  30 2.96
  26  0.222  0.889  0.376-  10 2.93  16 2.93  17 2.93  19 2.93  25 2.93  27 2.94  24 2.94  20 2.95
                            23 2.95  28 2.95  29 2.96  34 2.96
  27  0.556  0.888  0.376-  17 2.92  18 2.92  24 2.92  22 2.92  11 2.93  26 2.94  25 2.94  29 2.94
                            30 2.94  20 2.95  21 2.95  35 2.96
  28  0.000  0.000  0.467-  25 2.95  19 2.95  26 2.95  34 2.97  32 2.97  33 2.97  30 2.97  31 2.97
                            29 2.97
  29  0.334  0.007  0.466-  30 2.87  31 2.88  36 2.89  20 2.91  27 2.94  26 2.96  35 2.97  28 2.97
                            34 3.06
  30  0.660  0.007  0.466-  29 2.87  32 2.88  36 2.89  21 2.91  27 2.94  25 2.96  35 2.97  28 2.97
                            33 3.06
  31  0.007  0.334  0.466-  33 2.87  29 2.88  36 2.89  20 2.91  22 2.94  19 2.96  35 2.97  28 2.97
                            32 3.06
  32  0.660  0.334  0.466-  34 2.87  30 2.88  36 2.89  21 2.91  24 2.94  19 2.96  35 2.97  28 2.97
                            31 3.06
  33  0.007  0.660  0.466-  31 2.87  34 2.88  36 2.89  23 2.91  22 2.94  25 2.96  35 2.97  28 2.97
                            30 3.06
  34  0.334  0.660  0.466-  32 2.87  33 2.88  36 2.89  23 2.91  24 2.94  26 2.96  35 2.97  28 2.97
                            29 3.06
  35  0.667  0.667  0.467-  24 2.96  27 2.96  22 2.96  29 2.97  34 2.97  32 2.97  31 2.97  30 2.97
                            33 2.97
  36  0.333  0.333  0.455-  37 1.68  20 2.70  23 2.70  21 2.70  33 2.89  31 2.89  29 2.89  30 2.89
                            34 2.89  32 2.89
  37  0.333  0.333  0.517-  38 1.24  36 1.68
  38  0.333  0.333  0.564-  39 0.97  37 1.24
  39  0.333  0.333  0.600-  38 0.97
 
  LATTYP: Found a hexagonal cell.
 ALAT       =     8.8135128021
 C/A-ratio  =     3.0356784858
  
  Lattice vectors:
  
 A1 = (  -4.4067569092,  -7.6327256898,   0.0000000000)
 A2 = (   8.8135128021,   0.0000000000,   0.0000000000)
 A3 = (   0.0000000000,   0.0000000000,  26.7549911976)


Analysis of symmetry for initial positions (statically):
=====================================================================
 Subroutine PRICEL returns:
 Original cell was already a primitive cell.
 

 Routine SETGRP: Setting up the symmetry group for a 
 hexagonal supercell.


 Subroutine GETGRP returns: Found  6 space group operations
 (whereof  6 operations were pure point group operations)
 out of a pool of 24 trial point group operations.


The static configuration has the point symmetry C_3v.


Analysis of symmetry for dynamics (positions and initial velocities):
=====================================================================
 Subroutine PRICEL returns:
 Original cell was already a primitive cell.
 

 Routine SETGRP: Setting up the symmetry group for a 
 hexagonal supercell.


 Subroutine GETGRP returns: Found  6 space group operations
 (whereof  6 operations were pure point group operations)
 out of a pool of 24 trial point group operations.


The dynamic configuration has the point symmetry C_3v.


Analysis of constrained symmetry for selective dynamics:
=====================================================================
 Subroutine PRICEL returns:
 Original cell was already a primitive cell.
 

 Routine SETGRP: Setting up the symmetry group for a 
 hexagonal supercell.


 Subroutine GETGRP returns: Found  6 space group operations
 (whereof  6 operations were pure point group operations)
 out of a pool of 24 trial point group operations.


The constrained configuration has the point symmetry C_3v.


 Subroutine INISYM returns: Found  6 space group operations
 (whereof  6 operations are pure point group operations),
 and found     1 'primitive' translations


----------------------------------------------------------------------------------------

                                     Primitive cell                                     

  volume of cell :    1799.8384

  direct lattice vectors                    reciprocal lattice vectors
     8.813512802  0.000000000  0.000000000     0.113462137 -0.065507406  0.000000000
     4.406756909  7.632725690  0.000000000     0.000000000  0.131014796  0.000000000
     0.000000000  0.000000000 26.754991198     0.000000000  0.000000000  0.037376204

  length of vectors
     8.813512802  8.813512802 26.754991198     0.131014796  0.131014796  0.037376204

  position of ions in fractional coordinates (direct lattice)
     0.000000000  0.000000000  0.197360556
     0.333333343  0.000000000  0.197360556
     0.666666687  0.000000000  0.197360556
     0.000000000  0.333333343  0.197360556
     0.333333313  0.333333343  0.197360556
     0.666666687  0.333333343  0.197360556
     0.000000000  0.666666687  0.197360556
     0.333333343  0.666666687  0.197360556
     0.666666627  0.666666687  0.197360556
     0.111111119  0.111111112  0.287016131
     0.444444418  0.111111112  0.287016131
     0.777777791  0.111111112  0.287016131
     0.111111127  0.444444448  0.287016131
     0.444444478  0.444444448  0.287016131
     0.777777731  0.444444448  0.287016131
     0.111111090  0.777777791  0.287016131
     0.444444448  0.777777791  0.287016131
     0.777777851  0.777777791  0.287016131
     0.889034572  0.221930873  0.376398784
     0.222892879  0.222892864  0.375947609
     0.554214302  0.222892864  0.375947609
     0.887576566  0.556211747  0.375984158
     0.222892834  0.554214302  0.375947609
     0.556211747  0.556211747  0.375984158
     0.889034572  0.889034572  0.376398784
     0.221930903  0.889034572  0.376398784
     0.556211687  0.887576566  0.375984158
     0.000000000  0.000000000  0.466774507
     0.333602496  0.006773743  0.465655840
     0.659623791  0.006773743  0.465655840
     0.006773743  0.333602496  0.465655840
     0.659623791  0.333602496  0.465655840
     0.006773743  0.659623791  0.465655840
     0.333602496  0.659623791  0.465655840
     0.666666627  0.666666687  0.466904698
     0.333333313  0.333333343  0.454550144
     0.333333313  0.333333343  0.517189727
     0.333333313  0.333333343  0.563668156
     0.333333313  0.333333343  0.599789236

  ion indices of the primitive-cell ions
   primitive index   ion index
                 1           1
                 2           2
                 3           3
                 4           4
                 5           5
                 6           6
                 7           7
                 8           8
                 9           9
                10          10
                11          11
                12          12
                13          13
                14          14
                15          15
                16          16
                17          17
                18          18
                19          19
                20          20
                21          21
                22          22
                23          23
                24          24
                25          25
                26          26
                27          27
                28          28
                29          29
                30          30
                31          31
                32          32
                33          33
                34          34
                35          35
                36          36
                37          37
                38          38
                39          39

----------------------------------------------------------------------------------------

 
 
 KPOINTS: Automatic mesh                          

Automatic generation of k-mesh.
 Grid dimensions read from file:
 generate k-points for:    8    8    1

 Generating k-lattice:

  Cartesian coordinates                     Fractional coordinates (reciprocal lattice)
     0.014182767 -0.008188426  0.000000000     0.125000000  0.000000000  0.000000000
     0.000000000  0.016376850  0.000000000     0.000000000  0.125000000  0.000000000
     0.000000000  0.000000000  0.037376204     0.000000000  0.000000000  1.000000000

  Length of vectors
     0.016376850  0.016376850  0.037376204

  Shift w.r.t. Gamma in fractional coordinates (k-lattice)
     0.000000000  0.000000000  0.000000000

 TETIRR: Found     36 inequivalent tetrahedra from      384
 
 Subroutine IBZKPT returns following result:
 ===========================================
 
 Found     10 irreducible k-points:
 
 Following reciprocal coordinates:
            Coordinates               Weight
  0.000000  0.000000  0.000000      1.000000
  0.125000  0.000000  0.000000      6.000000
  0.250000  0.000000  0.000000      6.000000
  0.375000  0.000000  0.000000      6.000000
  0.500000  0.000000  0.000000      3.000000
  0.250000  0.125000  0.000000      6.000000
  0.375000  0.125000  0.000000     12.000000
  0.500000  0.125000  0.000000     12.000000
  0.500000  0.250000  0.000000      6.000000
 -0.375000  0.250000  0.000000      6.000000
 
 Following cartesian coordinates:
            Coordinates               Weight
  0.000000  0.000000  0.000000      1.000000
  0.014183 -0.008188  0.000000      6.000000
  0.028366 -0.016377  0.000000      6.000000
  0.042548 -0.024565  0.000000      6.000000
  0.056731 -0.032754  0.000000      3.000000
  0.028366 -0.000000  0.000000      6.000000
  0.042548 -0.008188  0.000000     12.000000
  0.056731 -0.016377  0.000000     12.000000
  0.056731 -0.000000  0.000000      6.000000
 -0.042548  0.057319  0.000000      6.000000
 


--------------------------------------------------------------------------------------------------------




 Dimension of arrays:
   k-points           NKPTS =     10   k-points in BZ     NKDIM =     10   number of bands    NBANDS=    252
   number of dos      NEDOS =    301   number of ions     NIONS =     39
   non local maximal  LDIM  =      6   non local SUM 2l+1 LMDIM =     18
   total plane-waves  NPLWV = 345600
   max r-space proj   IRMAX =   2208   max aug-charges    IRDMAX=  11941
   dimension x,y,z NGX =    48 NGY =   48 NGZ =  150
   dimension x,y,z NGXF=    96 NGYF=   96 NGZF=  300
   support grid    NGXF=    96 NGYF=   96 NGZF=  300
   ions per type =              35   1   1   1   1
   NGX,Y,Z   is equivalent  to a cutoff of   9.05,  9.05,  9.32 a.u.
   NGXF,Y,Z  is equivalent  to a cutoff of  18.11, 18.11, 18.64 a.u.

 SYSTEM =  unknown system                          
 POSCAR =  Au-Ni-COH                               

 Startparameter for this run:
   NWRITE =      2    write-flag & timer
   PREC   = normal    normal or accurate (medium, high low for compatibility)
   ISTART =      0    job   : 0-new  1-cont  2-samecut
   ICHARG =     11    charge: 1-file 2-atom 10-const
   ISPIN  =      1    spin polarized calculation?
   LNONCOLLINEAR =      F non collinear calculations
   LSORBIT =      F    spin-orbit coupling
   INIWAV =      1    electr: 0-lowe 1-rand  2-diag
   LASPH  =      F    aspherical Exc in radial PAW
   METAGGA=      F    non-selfconsistent MetaGGA calc.

 Electronic Relaxation 1
   ENCUT  =  500.0 eV  36.75 Ry    6.06 a.u.  16.07 16.07 48.78*2*pi/ulx,y,z
   ENINI  =  500.0     initial cutoff
   ENAUG  =  644.9 eV  augmentation charge cutoff
   NELM   =    150;   NELMIN=  2; NELMDL= -5     # of ELM steps 
   EDIFF  = 0.1E-04   stopping-criterion for ELM
   LREAL  =      T    real-space projection
   NLSPLINE    = F    spline interpolate recip. space projectors
   LCOMPAT=      F    compatible to vasp.4.4
   GGA_COMPAT  = T    GGA compatible to vasp.4.4-vasp.4.6
   LMAXPAW     = -100 max onsite density
   LMAXMIX     =    2 max onsite mixed and CHGCAR
   VOSKOWN=      0    Vosko Wilk Nusair interpolation
   ROPT   =   -0.00050  -0.00050  -0.00050  -0.00050
   ROPT   =   -0.00050
 Ionic relaxation
   EDIFFG = -.1E-01   stopping-criterion for IOM
   NSW    =      0    number of steps for IOM
   NBLOCK =      1;   KBLOCK =      1    inner block; outer block 
   IBRION =     -1    ionic relax: 0-MD 1-quasi-New 2-CG
   NFREE  =      1    steps in history (QN), initial steepest desc. (CG)
   ISIF   =      2    stress and relaxation
   IWAVPR =     10    prediction:  0-non 1-charg 2-wave 3-comb
   ISYM   =      2    0-nonsym 1-usesym 2-fastsym
   LCORR  =      T    Harris-Foulkes like correction to forces

   POTIM  = 0.5000    time-step for ionic-motion
   TEIN   =    0.0    initial temperature
   TEBEG  =    0.0;   TEEND  =   0.0 temperature during run
   SMASS  =  -3.00    Nose mass-parameter (am)
   estimated Nose-frequenzy (Omega)   =  0.10E-29 period in steps = 0.13E+47 mass=  -0.178E-26a.u.
   SCALEE = 1.0000    scale energy and forces
   NPACO  =    256;   APACO  = 16.0  distance and # of slots for P.C.
   PSTRESS=    0.0 pullay stress

  Mass of Ions in am
   POMASS = 196.97 58.69 12.01 16.00  1.00
  Ionic Valenz
   ZVAL   =  11.00 10.00  4.00  6.00  1.00
  Atomic Wigner-Seitz radii
   RWIGS  =  -1.00 -1.00 -1.00 -1.00 -1.00
  virtual crystal weights 
   VCA    =   1.00  1.00  1.00  1.00  1.00
   NELECT =     406.0000    total number of electrons
   NUPDOWN=      -1.0000    fix difference up-down

 DOS related values:
   EMIN   =  10.00;   EMAX   =-10.00  energy-range for DOS
   EFERMI =   0.00
   ISMEAR =    -5;   SIGMA  =   0.10  broadening in eV -4-tet -1-fermi 0-gaus

 Electronic relaxation 2 (details)
   IALGO  =     68    algorithm
   LDIAG  =      T    sub-space diagonalisation (order eigenvalues)
   LSUBROT=      F    optimize rotation matrix (better conditioning)
   TURBO    =      0    0=normal 1=particle mesh
   IRESTART =      0    0=no restart 2=restart with 2 vectors
   NREBOOT  =      0    no. of reboots
   NMIN     =      0    reboot dimension
   EREF     =   0.00    reference energy to select bands
   IMIX   =      4    mixing-type and parameters
     AMIX     =   0.40;   BMIX     =  1.00
     AMIX_MAG =   1.60;   BMIX_MAG =  1.00
     AMIN     =   0.10
     WC   =   100.;   INIMIX=   1;  MIXPRE=   1;  MAXMIX= -45

 Intra band minimization:
   WEIMIN = 0.0000     energy-eigenvalue tresh-hold
   EBREAK =  0.99E-08  absolut break condition
   DEPER  =   0.30     relativ break condition  

   TIME   =   0.40     timestep for ELM

  volume/ion in A,a.u.               =      46.15       311.43
  Fermi-wavevector in a.u.,A,eV,Ry     =   0.996565  1.883235 13.512517  0.993142
  Thomas-Fermi vector in A             =   2.128662
 
 Write flags
   LWAVE        =      F    write WAVECAR
   LDOWNSAMPLE  =      F    k-point downsampling of WAVECAR
   LCHARG       =      F    write CHGCAR
   LVTOT        =      F    write LOCPOT, total local potential
   LVHAR        =      F    write LOCPOT, Hartree potential only
   LELF         =      F    write electronic localiz. function (ELF)
   LORBIT       =     10    0 simple, 1 ext, 2 COOP (PROOUT), +10 PAW based schemes


 Dipole corrections
   LMONO  =      F    monopole corrections only (constant potential shift)
   LDIPOL =      F    correct potential (dipole corrections)
   IDIPOL =      0    1-x, 2-y, 3-z, 4-all directions 
   EPSILON=  1.0000000 bulk dielectric constant

 Exchange correlation treatment:
   GGA     =    --    GGA type
   LEXCH   =     8    internal setting for exchange type
   VOSKOWN=      0    Vosko Wilk Nusair interpolation
   LHFCALC =     F    Hartree Fock is set to
   LHFONE  =     F    Hartree Fock one center treatment
   AEXX    =    0.0000 exact exchange contribution

 Linear response parameters
   LEPSILON=     F    determine dielectric tensor
   LRPA    =     F    only Hartree local field effects (RPA)
   LNABLA  =     F    use nabla operator in PAW spheres
   LVEL    =     F    velocity operator in full k-point grid
   LINTERFAST=   F  fast interpolation
   KINTER  =     0    interpolate to denser k-point grid
   CSHIFT  =0.1000    complex shift for real part using Kramers Kronig
   OMEGAMAX=  -1.0    maximum frequency
   DEG_THRESHOLD= 0.2000000E-02 threshold for treating states as degnerate
   RTIME   =   -0.100 relaxation time in fs
  (WPLASMAI=    0.000 imaginary part of plasma frequency in eV, 0.658/RTIME)
   DFIELD  = 0.0000000 0.0000000 0.0000000 field for delta impulse in time
 
 Orbital magnetization related:
   ORBITALMAG=     F  switch on orbital magnetization
   LCHIMAG   =     F  perturbation theory with respect to B field
   DQ        =  0.001000  dq finite difference perturbation B field
   LLRAUG    =     F  two centre corrections for induced B field



--------------------------------------------------------------------------------------------------------


 Static calculation
 charge density and potential remain constant during run
 non-spin polarized calculation
 RMM-DIIS sequential band-by-band and
  variant of blocked Davidson during initial phase
 perform sub-space diagonalisation
    before iterative eigenvector-optimisation
 no mixing
 using additional bands           49
 real space projection scheme for non local part
 use partial core corrections
 calculate Harris-corrections to forces 
   (improved forces if not selfconsistent)
 use gradient corrections 
 WARNING: stress and forces are not correct
  (second derivative of E(xc) not defined)
 use of overlap-Matrix (Vanderbilt PP)
 Fermi weights with tetrahedron method with Bloechl corrections


--------------------------------------------------------------------------------------------------------


  energy-cutoff  :      500.00
  volume of cell :     1799.84
      direct lattice vectors                 reciprocal lattice vectors
     8.813512802  0.000000000  0.000000000     0.113462137 -0.065507406  0.000000000
     4.406756909  7.632725690  0.000000000     0.000000000  0.131014796  0.000000000
     0.000000000  0.000000000 26.754991198     0.000000000  0.000000000  0.037376204

  length of vectors
     8.813512802  8.813512802 26.754991198     0.131014796  0.131014796  0.037376204


 
 k-points in units of 2pi/SCALE and weight: Automatic mesh                          
   0.00000000  0.00000000  0.00000000       0.016
   0.01418277 -0.00818843  0.00000000       0.094
   0.02836553 -0.01637685  0.00000000       0.094
   0.04254830 -0.02456528  0.00000000       0.094
   0.05673107 -0.03275370  0.00000000       0.047
   0.02836553 -0.00000000  0.00000000       0.094
   0.04254830 -0.00818843  0.00000000       0.188
   0.05673107 -0.01637685  0.00000000       0.188
   0.05673107 -0.00000000  0.00000000       0.094
  -0.04254830  0.05731898  0.00000000       0.094
 
 k-points in reciprocal lattice and weights: Automatic mesh                          
   0.00000000  0.00000000  0.00000000       0.016
   0.12500000  0.00000000  0.00000000       0.094
   0.25000000  0.00000000  0.00000000       0.094
   0.37500000  0.00000000  0.00000000       0.094
   0.50000000  0.00000000  0.00000000       0.047
   0.25000000  0.12500000  0.00000000       0.094
   0.37500000  0.12500000  0.00000000       0.188
   0.50000000  0.12500000  0.00000000       0.188
   0.50000000  0.25000000  0.00000000       0.094
  -0.37500000  0.25000000  0.00000000       0.094
 
 position of ions in fractional coordinates (direct lattice) 
   0.00000000  0.00000000  0.19736056
   0.33333334  0.00000000  0.19736056
   0.66666669  0.00000000  0.19736056
   0.00000000  0.33333334  0.19736056
   0.33333331  0.33333334  0.19736056
   0.66666669  0.33333334  0.19736056
   0.00000000  0.66666669  0.19736056
   0.33333334  0.66666669  0.19736056
   0.66666663  0.66666669  0.19736056
   0.11111112  0.11111111  0.28701613
   0.44444442  0.11111111  0.28701613
   0.77777779  0.11111111  0.28701613
   0.11111113  0.44444445  0.28701613
   0.44444448  0.44444445  0.28701613
   0.77777773  0.44444445  0.28701613
   0.11111109  0.77777779  0.28701613
   0.44444445  0.77777779  0.28701613
   0.77777785  0.77777779  0.28701613
   0.88903457  0.22193087  0.37639878
   0.22289288  0.22289286  0.37594761
   0.55421430  0.22289286  0.37594761
   0.88757657  0.55621175  0.37598416
   0.22289283  0.55421430  0.37594761
   0.55621175  0.55621175  0.37598416
   0.88903457  0.88903457  0.37639878
   0.22193090  0.88903457  0.37639878
   0.55621169  0.88757657  0.37598416
   0.00000000  0.00000000  0.46677451
   0.33360250  0.00677374  0.46565584
   0.65962379  0.00677374  0.46565584
   0.00677374  0.33360250  0.46565584
   0.65962379  0.33360250  0.46565584
   0.00677374  0.65962379  0.46565584
   0.33360250  0.65962379  0.46565584
   0.66666663  0.66666669  0.46690470
   0.33333331  0.33333334  0.45455014
   0.33333331  0.33333334  0.51718973
   0.33333331  0.33333334  0.56366816
   0.33333331  0.33333334  0.59978924
 
 position of ions in cartesian coordinates  (Angst):
   0.00000000  0.00000000  5.28037993
   2.93783769  0.00000000  5.28037993
   5.87567538  0.00000000  5.28037993
   1.46891901  2.54424197  5.28037993
   4.40675643  2.54424197  5.28037993
   7.34459439  2.54424197  5.28037993
   2.93783803  5.08848395  5.28037993
   5.87567571  5.08848395  5.28037993
   8.81351288  5.08848395  5.28037993
   1.46891893  0.84808064  7.67911405
   4.40675623  0.84808064  7.67911405
   7.34459418  0.84808064  7.67911405
   2.93783798  3.39232256  7.67911405
   5.87567574  3.39232256  7.67911405
   8.81351263  3.39232256  7.67911405
   4.40675667  5.93656453  7.67911405
   7.34459449  5.93656453  7.67911405
  10.28243270  5.93656453  7.67911405
   8.81351299  1.69393747 10.07054615
   2.94670391  1.70128009 10.05847497
   5.86680951  1.70128009 10.05847497
  10.27375739  4.24541169 10.05945283
   4.40675655  4.23016574 10.05847497
   7.35326931  4.24541169 10.05945283
  11.75327682  6.78575701 10.07054615
   5.87375009  6.78575701 10.07054615
   8.81351299  6.77462846 10.05945283
   0.00000000  0.00000000 12.48854784
   2.97006011  0.05170212 12.45861791
   5.84345296  0.05170212 12.45861791
   1.52980557  2.54629634 12.45861791
   7.28370783  2.54629634 12.45861791
   2.96650217  5.03472745 12.45861791
   5.84701157  5.03472745 12.45861791
   8.81351288  5.08848395 12.49203108
   4.40675643  2.54424197 12.16148509
   4.40675643  2.54424197 13.83740659
   4.40675643  2.54424197 15.08093656
   4.40675643  2.54424197 16.04735573
 


--------------------------------------------------------------------------------------------------------


 k-point   1 :   0.0000 0.0000 0.0000  plane waves:   45655
 k-point   2 :   0.1250 0.0000 0.0000  plane waves:   45660
 k-point   3 :   0.2500 0.0000 0.0000  plane waves:   45682
 k-point   4 :   0.3750 0.0000 0.0000  plane waves:   45716
 k-point   5 :   0.5000 0.0000 0.0000  plane waves:   45700
 k-point   6 :   0.2500 0.1250 0.0000  plane waves:   45658
 k-point   7 :   0.3750 0.1250 0.0000  plane waves:   45702
 k-point   8 :   0.5000 0.1250 0.0000  plane waves:   45722
 k-point   9 :   0.5000 0.2500 0.0000  plane waves:   45712
 k-point  10 :  -0.3750 0.2500 0.0000  plane waves:   45690

 maximum and minimum number of plane-waves per node :     45722    45655

 maximum number of plane-waves:     45722
 maximum index in each direction: 
   IXMAX=   16   IYMAX=   16   IZMAX=   48
   IXMIN=  -16   IYMIN=  -16   IZMIN=  -48


 serial   3D FFT for wavefunctions
 parallel 3D FFT for charge:
    minimum data exchange during FFTs selected (reduces bandwidth)


 total amount of memory used by VASP MPI-rank0   139247. kBytes
=======================================================================

   base      :      30000. kBytes
   nonlr-proj:      13555. kBytes
   fftplans  :       5150. kBytes
   grid      :      23126. kBytes
   one-center:        606. kBytes
   wavefun   :      66810. kBytes
 
     INWAV:  cpu time    0.0000: real time    0.0000
 initial charge density was supplied:
 number of electron     406.0000072 magnetization 
 keeping initial charge density in first step


--------------------------------------------------------------------------------------------------------


 Maximum index for non-local projection operator         2109
 Maximum index for augmentation-charges          844 (set IRDMAX)


--------------------------------------------------------------------------------------------------------


 First call to EWALD:  gamma=   0.146
 Maximum number of real-space cells 4x 4x 2
 Maximum number of reciprocal cells 2x 2x 5

    FEWALD:  cpu time    0.0013: real time    0.0013


--------------------------------------- Iteration      1(   1)  ---------------------------------------


    POTLOK:  cpu time    0.0524: real time    0.0528
    SETDIJ:  cpu time    0.0050: real time    0.0051
     EDDAV:  cpu time    8.2519: real time    8.2537
 BZINTS: Fermi energy:   10.721351;  406.000000 electrons
         Band energy: 0.140576E+04;  BLOECHL correction:   -0.012405
       DOS:  cpu time    0.0101: real time    0.0102
    --------------------------------------------
      LOOP:  cpu time    8.3194: real time    8.3218

 eigenvalue-minimisations  :  5040
 total energy-change (2. order) : 0.2719273E+04  (-0.1765923E+05)
 number of electron     406.0000072 magnetization 
 augmentation part      406.0000072 magnetization 

 Free energy of the ion-electron system (eV)
  ---------------------------------------------------
  alpha Z        PSCENC =       857.93261005
  Ewald energy   TEWEN  =    167414.58394879
  -Hartree energ DENC   =   -202292.20709650
  -exchange      EXHF   =         0.00000000
  -V(xc)+E(xc)   XCENC  =       592.36216152
  PAW double counting   =     37196.89432521   -36538.60628500
  entropy T*S    EENTRO =         0.00000000
  eigenvalues    EBANDS =      1405.76449986
  atomic energy  EATOM  =     34082.54840045
  Solvation  Ediel_sol  =         0.00000000
  ---------------------------------------------------
  free energy    TOTEN  =      2719.27256438 eV

  energy without entropy =     2719.27256438  energy(sigma->0) =     2719.27256438


--------------------------------------------------------------------------------------------------------




--------------------------------------- Iteration      1(   2)  ---------------------------------------


     EDDAV:  cpu time    9.0094: real time    9.0096
 BZINTS: Fermi energy:    1.223587;  406.000000 electrons
         Band energy:-0.126293E+04;  BLOECHL correction:   -0.059554
       DOS:  cpu time    0.0099: real time    0.0099
    --------------------------------------------
      LOOP:  cpu time    9.0193: real time    9.0195

 eigenvalue-minimisations  :  5628
 total energy-change (2. order) :-0.2668698E+04  (-0.2454751E+04)
 number of electron     406.0000072 magnetization 
 augmentation part      406.0000072 magnetization 

 Free energy of the ion-electron system (eV)
  ---------------------------------------------------
  alpha Z        PSCENC =       857.93261005
  Ewald energy   TEWEN  =    167414.58394879
  -Hartree energ DENC   =   -202292.20709650
  -exchange      EXHF   =         0.00000000
  -V(xc)+E(xc)   XCENC  =       592.36216152
  PAW double counting   =     37196.89432521   -36538.60628500
  entropy T*S    EENTRO =         0.00000000
  eigenvalues    EBANDS =     -1262.93381974
  atomic energy  EATOM  =     34082.54840045
  Solvation  Ediel_sol  =         0.00000000
  ---------------------------------------------------
  free energy    TOTEN  =        50.57424479 eV

  energy without entropy =       50.57424479  energy(sigma->0) =       50.57424479


--------------------------------------------------------------------------------------------------------




--------------------------------------- Iteration      1(   3)  ---------------------------------------


     EDDAV:  cpu time    9.4022: real time    9.4024
 BZINTS: Fermi energy:    0.373180;  406.000000 electrons
         Band energy:-0.143784E+04;  BLOECHL correction:   -0.061726
       DOS:  cpu time    0.0099: real time    0.0099
    --------------------------------------------
      LOOP:  cpu time    9.4121: real time    9.4123

 eigenvalue-minimisations  :  5908
 total energy-change (2. order) :-0.1749104E+03  (-0.1695086E+03)
 number of electron     406.0000072 magnetization 
 augmentation part      406.0000072 magnetization 

 Free energy of the ion-electron system (eV)
  ---------------------------------------------------
  alpha Z        PSCENC =       857.93261005
  Ewald energy   TEWEN  =    167414.58394879
  -Hartree energ DENC   =   -202292.20709650
  -exchange      EXHF   =         0.00000000
  -V(xc)+E(xc)   XCENC  =       592.36216152
  PAW double counting   =     37196.89432521   -36538.60628500
  entropy T*S    EENTRO =         0.00000000
  eigenvalues    EBANDS =     -1437.84417508
  atomic energy  EATOM  =     34082.54840045
  Solvation  Ediel_sol  =         0.00000000
  ---------------------------------------------------
  free energy    TOTEN  =      -124.33611056 eV

  energy without entropy =     -124.33611056  energy(sigma->0) =     -124.33611056


--------------------------------------------------------------------------------------------------------




--------------------------------------- Iteration      1(   4)  ---------------------------------------


     EDDAV:  cpu time    8.9178: real time    8.9180
 BZINTS: Fermi energy:    0.352658;  406.000000 electrons
         Band energy:-0.144202E+04;  BLOECHL correction:   -0.059966
       DOS:  cpu time    0.0102: real time    0.0102
    --------------------------------------------
      LOOP:  cpu time    8.9279: real time    8.9282

 eigenvalue-minimisations  :  5544
 total energy-change (2. order) :-0.4176928E+01  (-0.4157897E+01)
 number of electron     406.0000072 magnetization 
 augmentation part      406.0000072 magnetization 

 Free energy of the ion-electron system (eV)
  ---------------------------------------------------
  alpha Z        PSCENC =       857.93261005
  Ewald energy   TEWEN  =    167414.58394879
  -Hartree energ DENC   =   -202292.20709650
  -exchange      EXHF   =         0.00000000
  -V(xc)+E(xc)   XCENC  =       592.36216152
  PAW double counting   =     37196.89432521   -36538.60628500
  entropy T*S    EENTRO =         0.00000000
  eigenvalues    EBANDS =     -1442.02110353
  atomic energy  EATOM  =     34082.54840045
  Solvation  Ediel_sol  =         0.00000000
  ---------------------------------------------------
  free energy    TOTEN  =      -128.51303901 eV

  energy without entropy =     -128.51303901  energy(sigma->0) =     -128.51303901


--------------------------------------------------------------------------------------------------------




--------------------------------------- Iteration      1(   5)  ---------------------------------------


     EDDAV:  cpu time   10.1609: real time   10.1610
 BZINTS: Fermi energy:    0.352215;  406.000000 electrons
         Band energy:-0.144216E+04;  BLOECHL correction:   -0.059918
       DOS:  cpu time    0.0099: real time    0.0099
    --------------------------------------------
      LOOP:  cpu time   10.1708: real time   10.1709

 eigenvalue-minimisations  :  6496
 total energy-change (2. order) :-0.1340350E+00  (-0.1340178E+00)
 number of electron     406.0000072 magnetization 
 augmentation part      406.0000072 magnetization 

 Free energy of the ion-electron system (eV)
  ---------------------------------------------------
  alpha Z        PSCENC =       857.93261005
  Ewald energy   TEWEN  =    167414.58394879
  -Hartree energ DENC   =   -202292.20709650
  -exchange      EXHF   =         0.00000000
  -V(xc)+E(xc)   XCENC  =       592.36216152
  PAW double counting   =     37196.89432521   -36538.60628500
  entropy T*S    EENTRO =         0.00000000
  eigenvalues    EBANDS =     -1442.15513857
  atomic energy  EATOM  =     34082.54840045
  Solvation  Ediel_sol  =         0.00000000
  ---------------------------------------------------
  free energy    TOTEN  =      -128.64707404 eV

  energy without entropy =     -128.64707404  energy(sigma->0) =     -128.64707404


--------------------------------------------------------------------------------------------------------




--------------------------------------- Iteration      1(   6)  ---------------------------------------


    EDDIAG:  cpu time    1.6503: real time    1.6535
  RMM-DIIS:  cpu time    4.8477: real time    4.8477
    ORTHCH:  cpu time    0.3041: real time    0.3041
 BZINTS: Fermi energy:    0.352213;  406.000000 electrons
         Band energy:-0.144216E+04;  BLOECHL correction:   -0.059918
       DOS:  cpu time    0.0101: real time    0.0101
    --------------------------------------------
      LOOP:  cpu time    6.8121: real time    6.8154

 eigenvalue-minimisations  :  5172
 total energy-change (2. order) :-0.3006669E-02  (-0.3006696E-02)
 number of electron     406.0000072 magnetization 
 augmentation part      406.0000072 magnetization 

 Free energy of the ion-electron system (eV)
  ---------------------------------------------------
  alpha Z        PSCENC =       857.93261005
  Ewald energy   TEWEN  =    167414.58394879
  -Hartree energ DENC   =   -202292.20709650
  -exchange      EXHF   =         0.00000000
  -V(xc)+E(xc)   XCENC  =       592.36216152
  PAW double counting   =     37196.89432521   -36538.60628500
  entropy T*S    EENTRO =         0.00000000
  eigenvalues    EBANDS =     -1442.15814523
  atomic energy  EATOM  =     34082.54840045
  Solvation  Ediel_sol  =         0.00000000
  ---------------------------------------------------
  free energy    TOTEN  =      -128.65008071 eV

  energy without entropy =     -128.65008071  energy(sigma->0) =     -128.65008071


--------------------------------------------------------------------------------------------------------




--------------------------------------- Iteration      1(   7)  ---------------------------------------


    EDDIAG:  cpu time    1.6486: real time    1.6487
  RMM-DIIS:  cpu time    6.5906: real time    6.5907
    ORTHCH:  cpu time    0.3038: real time    0.3038
 BZINTS: Fermi energy:    0.352213;  406.000000 electrons
         Band energy:-0.144216E+04;  BLOECHL correction:   -0.059918
       DOS:  cpu time    0.0101: real time    0.0101
    --------------------------------------------
      LOOP:  cpu time    8.5531: real time    8.5533

 eigenvalue-minimisations  :  7145
 total energy-change (2. order) :-0.1070240E-02  (-0.1062341E-02)
 number of electron     406.0000072 magnetization 
 augmentation part      406.0000072 magnetization 

 Free energy of the ion-electron system (eV)
  ---------------------------------------------------
  alpha Z        PSCENC =       857.93261005
  Ewald energy   TEWEN  =    167414.58394879
  -Hartree energ DENC   =   -202292.20709650
  -exchange      EXHF   =         0.00000000
  -V(xc)+E(xc)   XCENC  =       592.36216152
  PAW double counting   =     37196.89432521   -36538.60628500
  entropy T*S    EENTRO =         0.00000000
  eigenvalues    EBANDS =     -1442.15921547
  atomic energy  EATOM  =     34082.54840045
  Solvation  Ediel_sol  =         0.00000000
  ---------------------------------------------------
  free energy    TOTEN  =      -128.65115095 eV

  energy without entropy =     -128.65115095  energy(sigma->0) =     -128.65115095


--------------------------------------------------------------------------------------------------------




--------------------------------------- Iteration      1(   8)  ---------------------------------------


    EDDIAG:  cpu time    1.6493: real time    1.6493
  RMM-DIIS:  cpu time    5.3704: real time    5.3705
    ORTHCH:  cpu time    0.3037: real time    0.3037
 BZINTS: Fermi energy:    0.352213;  406.000000 electrons
         Band energy:-0.144216E+04;  BLOECHL correction:   -0.059918
       DOS:  cpu time    0.0101: real time    0.0101
    --------------------------------------------
      LOOP:  cpu time    7.3335: real time    7.3336

 eigenvalue-minimisations  :  5720
 total energy-change (2. order) :-0.5052055E-04  (-0.5037154E-04)
 number of electron     406.0000072 magnetization 
 augmentation part      406.0000072 magnetization 

 Free energy of the ion-electron system (eV)
  ---------------------------------------------------
  alpha Z        PSCENC =       857.93261005
  Ewald energy   TEWEN  =    167414.58394879
  -Hartree energ DENC   =   -202292.20709650
  -exchange      EXHF   =         0.00000000
  -V(xc)+E(xc)   XCENC  =       592.36216152
  PAW double counting   =     37196.89432521   -36538.60628500
  entropy T*S    EENTRO =         0.00000000
  eigenvalues    EBANDS =     -1442.15926599
  atomic energy  EATOM  =     34082.54840045
  Solvation  Ediel_sol  =         0.00000000
  ---------------------------------------------------
  free energy    TOTEN  =      -128.65120147 eV

  energy without entropy =     -128.65120147  energy(sigma->0) =     -128.65120147


--------------------------------------------------------------------------------------------------------




--------------------------------------- Iteration      1(   9)  ---------------------------------------


    EDDIAG:  cpu time    1.6502: real time    1.6504
  RMM-DIIS:  cpu time    5.3652: real time    5.3653
    ORTHCH:  cpu time    0.3036: real time    0.3036
 BZINTS: Fermi energy:    0.352213;  406.000000 electrons
         Band energy:-0.144216E+04;  BLOECHL correction:   -0.059918
       DOS:  cpu time    0.0101: real time    0.0101
    --------------------------------------------
      LOOP:  cpu time    7.3291: real time    7.3294

 eigenvalue-minimisations  :  5234
 total energy-change (2. order) :-0.1474185E-04  (-0.1477285E-04)
 number of electron     406.0000072 magnetization 
 augmentation part      406.0000072 magnetization 

 Free energy of the ion-electron system (eV)
  ---------------------------------------------------
  alpha Z        PSCENC =       857.93261005
  Ewald energy   TEWEN  =    167414.58394879
  -Hartree energ DENC   =   -202292.20709650
  -exchange      EXHF   =         0.00000000
  -V(xc)+E(xc)   XCENC  =       592.36216152
  PAW double counting   =     37196.89432521   -36538.60628500
  entropy T*S    EENTRO =         0.00000000
  eigenvalues    EBANDS =     -1442.15928074
  atomic energy  EATOM  =     34082.54840045
  Solvation  Ediel_sol  =         0.00000000
  ---------------------------------------------------
  free energy    TOTEN  =      -128.65121621 eV

  energy without entropy =     -128.65121621  energy(sigma->0) =     -128.65121621


--------------------------------------------------------------------------------------------------------




--------------------------------------- Iteration      1(  10)  ---------------------------------------


    EDDIAG:  cpu time    1.6505: real time    1.6505
  RMM-DIIS:  cpu time    3.6644: real time    3.6645
    ORTHCH:  cpu time    0.3036: real time    0.3036
 BZINTS: Fermi energy:    0.352213;  406.000000 electrons
         Band energy:-0.144216E+04;  BLOECHL correction:   -0.059918
       DOS:  cpu time    0.0101: real time    0.0101
    --------------------------------------------
      LOOP:  cpu time    5.6286: real time    5.6287

 eigenvalue-minimisations  :  3261
 total energy-change (2. order) :-0.1097709E-05  (-0.1188233E-05)
 number of electron     406.0000072 magnetization 
 augmentation part      406.0000072 magnetization 

 Free energy of the ion-electron system (eV)
  ---------------------------------------------------
  alpha Z        PSCENC =       857.93261005
  Ewald energy   TEWEN  =    167414.58394879
  -Hartree energ DENC   =   -202292.20709650
  -exchange      EXHF   =         0.00000000
  -V(xc)+E(xc)   XCENC  =       592.36216152
  PAW double counting   =     37196.89432521   -36538.60628500
  entropy T*S    EENTRO =         0.00000000
  eigenvalues    EBANDS =     -1442.15928183
  atomic energy  EATOM  =     34082.54840045
  Solvation  Ediel_sol  =         0.00000000
  ---------------------------------------------------
  free energy    TOTEN  =      -128.65121731 eV

  energy without entropy =     -128.65121731  energy(sigma->0) =     -128.65121731


--------------------------------------------------------------------------------------------------------




 average (electrostatic) potential at core
  the test charge radii are     1.2098  0.9791  0.6991  0.7215  0.5201
  (the norm of the test charge is              1.0000)
       1 -72.7161       2 -72.6557       3 -72.6556       4 -72.6557       5 -72.6618
       6 -72.6554       7 -72.6556       8 -72.6554       9 -72.6668      10 -73.0007
      11 -72.9816      12 -73.0004      13 -72.9816      14 -72.9812      15 -72.9976
      16 -73.0004      17 -72.9976      18 -72.9977      19 -72.9458      20 -73.0711
      21 -73.0707      22 -72.9892      23 -73.0707      24 -72.9888      25 -72.9458
      26 -72.9458      27 -72.9892      28 -72.6064      29 -72.6335      30 -72.6335
      31 -72.6335      32 -72.6332      33 -72.6335      34 -72.6332      35 -72.5665
      36 -91.3818      37 -58.0025      38 -79.9307      39 -43.9196
 
 
 
 E-fermi :   0.3522     XC(G=0):  -5.1991     alpha+bet : -4.8297

 Fermi energy:         0.3522130236

 k-point     1 :       0.0000    0.0000    0.0000
  band No.  band energies     occupation 
      1     -25.0011      2.00000
      2     -15.5453      2.00000
      3      -8.6371      2.00000
      4      -8.2547      2.00000
      5      -7.6767      2.00000
      6      -7.6765      2.00000
      7      -7.1963      2.00000
      8      -6.3232      2.00000
      9      -6.2988      2.00000
     10      -6.2988      2.00000
     11      -6.2972      2.00000
     12      -6.2843      2.00000
     13      -6.2693      2.00000
     14      -6.2693      2.00000
     15      -6.1124      2.00000
     16      -5.8168      2.00000
     17      -5.8138      2.00000
     18      -5.8138      2.00000
     19      -5.7808      2.00000
     20      -5.7808      2.00000
     21      -5.7688      2.00000
     22      -5.4341      2.00000
     23      -5.4341      2.00000
     24      -5.4184      2.00000
     25      -5.4015      2.00000
     26      -5.3826      2.00000
     27      -5.3826      2.00000
     28      -5.2580      2.00000
     29      -5.2580      2.00000
     30      -5.2470      2.00000
     31      -5.2292      2.00000
     32      -5.2291      2.00000
     33      -5.1957      2.00000
     34      -5.0920      2.00000
     35      -5.0920      2.00000
     36      -5.0716      2.00000
     37      -5.0715      2.00000
     38      -5.0672      2.00000
     39      -5.0585      2.00000
     40      -5.0584      2.00000
     41      -5.0485      2.00000
     42      -5.0392      2.00000
     43      -4.8892      2.00000
     44      -4.8892      2.00000
     45      -4.8813      2.00000
     46      -4.5772      2.00000
     47      -4.5772      2.00000
     48      -4.5492      2.00000
     49      -4.5364      2.00000
     50      -4.5364      2.00000
     51      -4.5188      2.00000
     52      -4.5187      2.00000
     53      -4.4936      2.00000
     54      -4.4596      2.00000
     55      -4.4596      2.00000
     56      -4.4130      2.00000
     57      -4.4051      2.00000
     58      -4.3910      2.00000
     59      -4.3642      2.00000
     60      -3.9917      2.00000
     61      -3.9805      2.00000
     62      -3.9749      2.00000
     63      -3.9748      2.00000
     64      -3.9452      2.00000
     65      -3.9452      2.00000
     66      -3.9345      2.00000
     67      -3.9118      2.00000
     68      -3.9117      2.00000
     69      -3.8584      2.00000
     70      -3.8584      2.00000
     71      -3.8180      2.00000
     72      -3.8180      2.00000
     73      -3.8159      2.00000
     74      -3.7629      2.00000
     75      -3.7629      2.00000
     76      -3.7628      2.00000
     77      -3.7278      2.00000
     78      -3.7278      2.00000
     79      -3.7245      2.00000
     80      -3.7192      2.00000
     81      -3.7192      2.00000
     82      -3.7169      2.00000
     83      -3.7030      2.00000
     84      -3.7030      2.00000
     85      -3.6659      2.00000
     86      -3.6659      2.00000
     87      -3.6349      2.00000
     88      -3.5944      2.00000
     89      -3.5943      2.00000
[...]
  0.000   0.000   0.000   0.000   0.000   0.000   0.000   0.000   0.000   0.000   1.000   0.000   0.000   0.000   0.000   0.000
  0.000   0.000   0.000   0.000   0.000   0.000   0.000   0.000   0.000   0.000   0.000   0.000   0.000   0.000   0.000   0.000
  0.000   0.000   0.000   0.000   0.000   0.000   0.000   0.000   0.000   0.000   0.000   0.000   0.000   0.000   0.000   0.000
  0.000   0.000   0.000   0.000   0.000   0.000   0.000   0.000   0.000   0.000   0.000   0.000   0.000   0.000   0.000   0.000
  0.000   0.000   0.000   0.000   0.000   0.000   0.000   0.000   0.000   0.000   0.000   0.000   0.000   0.000   0.000   0.000
  0.000   0.000   0.000   0.000   0.000   0.000   0.000   0.000   0.000   0.000   0.000   0.000   0.000   0.000   0.000   0.000
  0.000   0.000   0.000   0.000   0.000   0.000   0.000   0.000   0.000   0.000   0.000   0.000   0.000   0.000   0.000   0.000
  0.000   0.000   0.000   0.000   0.000   0.000   0.000   0.000   0.000   0.000   0.000   0.000   0.000   0.000   0.000   0.000


------------------------ aborting loop because EDIFF is reached ----------------------------------------





 total charge

# of ion       s       p       d       tot
------------------------------------------
    1        0.540   0.241   8.763   9.545
    2        0.545   0.241   8.765   9.550
    3        0.545   0.241   8.765   9.550
    4        0.545   0.241   8.765   9.550
    5        0.540   0.240   8.767   9.547
    6        0.545   0.241   8.765   9.550
    7        0.545   0.241   8.765   9.550
    8        0.545   0.241   8.765   9.550
    9        0.541   0.242   8.764   9.548
   10        0.521   0.307   8.773   9.601
   11        0.521   0.308   8.775   9.603
   12        0.521   0.307   8.773   9.601
   13        0.521   0.308   8.775   9.603
   14        0.521   0.308   8.775   9.603
   15        0.516   0.310   8.772   9.599
   16        0.521   0.307   8.773   9.601
   17        0.516   0.310   8.772   9.599
   18        0.516   0.310   8.772   9.599
   19        0.520   0.302   8.775   9.596
   20        0.535   0.329   8.757   9.621
   21        0.535   0.329   8.757   9.621
   22        0.517   0.310   8.773   9.600
   23        0.535   0.329   8.757   9.621
   24        0.517   0.310   8.773   9.600
   25        0.520   0.302   8.775   9.596
   26        0.520   0.302   8.775   9.596
   27        0.517   0.310   8.773   9.600
   28        0.538   0.231   8.764   9.533
   29        0.541   0.238   8.773   9.552
   30        0.541   0.238   8.773   9.552
   31        0.541   0.238   8.773   9.552
   32        0.541   0.238   8.773   9.552
   33        0.541   0.238   8.773   9.552
   34        0.541   0.238   8.773   9.552
   35        0.541   0.229   8.767   9.537
   36        0.444   0.552   8.414   9.410
   37        0.958   1.387   0.000   2.346
   38        1.536   3.753   0.000   5.289
   39        0.550   0.129   0.000   0.679
--------------------------------------------------
tot         22.091  15.474 315.340 352.906
 
    CHARGE:  cpu time    0.4399: real time    0.4400
    FORLOC:  cpu time    0.0141: real time    0.0141
    FORNL :  cpu time    1.7100: real time    1.7102
    STRESS:  cpu time    5.1346: real time    5.1347
    FORCOR:  cpu time    0.0654: real time    0.0655
    FORHAR:  cpu time    0.0223: real time    0.0224
    OFIELD:  cpu time    0.0003: real time    0.0003

  FORCE on cell =-STRESS in cart. coord.  units (eV):
  Direction    XX          YY          ZZ          XY          YZ          ZX
  --------------------------------------------------------------------------------------
  Alpha Z   857.93261   857.93261   857.93261
  Ewald  190042.12752190042.12799************    -0.00031    -0.00008    -0.00011
  Hartree198822.94027198822.94029************     0.00001    -0.00002    -0.00002
  E(xc)   -1830.87358 -1830.87373 -1835.77484     0.00013    -0.00002    -0.00003
  Local  ************************400877.92681     0.00239    -0.00000    -0.00006
  n-local  -112.07697   -70.37622   -69.52136    21.48583    -1.32920     1.20817
  augment  2556.43897  2556.44076  2552.64714    -0.00155     0.00000     0.00005
  Kinetic  5643.98063  5647.62940  5623.81900     3.64200     0.61470     0.08058
  Fock        0.00000     0.00000     0.00000     0.00000     0.00000     0.00000
  -------------------------------------------------------------------------------------
  Total     -18.97260   -18.97260     1.62751    -0.00000     0.00000    -0.00000
  in kB     -16.88900   -16.88900     1.44877    -0.00000     0.00000    -0.00000
  external pressure =      -10.78 kB  Pullay stress =        0.00 kB


 VOLUME and BASIS-vectors are now :
 -----------------------------------------------------------------------------
  energy-cutoff  :      500.00
  volume of cell :     1799.84
      direct lattice vectors                 reciprocal lattice vectors
     8.813512802  0.000000000  0.000000000     0.113462137 -0.065507406  0.000000000
     4.406756909  7.632725690  0.000000000     0.000000000  0.131014796  0.000000000
     0.000000000  0.000000000 26.754991198     0.000000000  0.000000000  0.037376204

  length of vectors
     8.813512802  8.813512802 26.754991198     0.131014796  0.131014796  0.037376204


 FORCES acting on ions
    electron-ion (+dipol)            ewald-force                    non-local-force                 convergence-correction
 -----------------------------------------------------------------------------------------------
   -.201E-04 -.165E-04 0.285E+04   0.519E-04 0.434E-04 -.285E+04   0.596E-18 0.562E-18 -.769E+00   -.261E-03 -.164E-03 -.402E+00
   0.552E+00 0.570E+00 0.285E+04   -.603E+00 -.606E+00 -.285E+04   0.426E-02 -.202E-01 -.251E+00   0.446E-01 0.581E-01 -.411E+00
   -.552E+00 0.570E+00 0.285E+04   0.603E+00 -.606E+00 -.285E+04   -.426E-02 -.202E-01 -.251E+00   -.443E-01 0.601E-01 -.411E+00
   0.770E+00 0.193E+00 0.285E+04   -.826E+00 -.219E+00 -.285E+04   -.153E-01 0.138E-01 -.251E+00   0.727E-01 0.954E-02 -.411E+00
   0.109E-04 -.218E-04 0.286E+04   0.951E-04 0.172E-05 -.286E+04   -.233E-18 -.743E-18 -.472E+00   0.434E-02 0.264E-02 -.434E+00
   -.770E+00 0.193E+00 0.285E+04   0.826E+00 -.219E+00 -.285E+04   0.153E-01 0.138E-01 -.251E+00   -.743E-01 0.105E-01 -.410E+00
   0.218E+00 -.763E+00 0.285E+04   -.223E+00 0.825E+00 -.285E+04   -.196E-01 0.639E-02 -.251E+00   0.300E-01 -.684E-01 -.411E+00
   -.218E+00 -.763E+00 0.285E+04   0.223E+00 0.825E+00 -.285E+04   0.196E-01 0.639E-02 -.251E+00   -.281E-01 -.696E-01 -.410E+00
   0.196E-04 -.415E-04 0.285E+04   0.166E-03 -.201E-04 -.285E+04   0.365E-17 0.425E-17 -.413E+00   -.462E-02 -.239E-02 -.430E+00
   0.509E+01 0.294E+01 0.101E+04   -.484E+01 -.279E+01 -.101E+04   -.188E+00 -.109E+00 -.530E+00   -.224E-01 -.131E-01 -.357E+00
   0.154E-04 0.682E+01 0.102E+04   0.147E-03 -.697E+01 -.102E+04   0.201E-08 0.302E-01 -.442E+00   0.417E-02 0.759E-01 -.479E+00
   -.509E+01 0.294E+01 0.101E+04   0.484E+01 -.279E+01 -.101E+04   0.188E+00 -.109E+00 -.530E+00   0.208E-01 -.115E-01 -.357E+00
   0.591E+01 -.341E+01 0.102E+04   -.604E+01 0.349E+01 -.102E+04   0.261E-01 -.151E-01 -.442E+00   0.681E-01 -.341E-01 -.479E+00
   -.591E+01 -.341E+01 0.102E+04   0.604E+01 0.349E+01 -.102E+04   -.261E-01 -.151E-01 -.442E+00   -.601E-01 -.348E-01 -.478E+00
   0.310E-04 0.174E+01 0.101E+04   0.237E-03 -.169E+01 -.101E+04   -.235E-08 -.353E-01 -.319E+00   -.262E-02 -.412E-01 -.397E+00
   -.214E-04 -.587E+01 0.101E+04   0.163E-03 0.559E+01 -.101E+04   0.145E-07 0.218E+00 -.530E+00   0.190E-03 0.237E-01 -.357E+00
   0.151E+01 -.872E+00 0.101E+04   -.146E+01 0.846E+00 -.101E+04   -.306E-01 0.177E-01 -.319E+00   -.368E-01 0.188E-01 -.397E+00
   -.151E+01 -.871E+00 0.101E+04   0.146E+01 0.846E+00 -.101E+04   0.306E-01 0.177E-01 -.319E+00   0.370E-01 0.211E-01 -.397E+00
   -.403E-04 0.376E+01 -.874E+03   0.525E-04 -.370E+01 0.873E+03   0.275E-08 0.412E-01 0.499E+00   -.461E-02 -.121E+00 -.169E+00
   0.453E+02 0.261E+02 -.808E+03   -.444E+02 -.257E+02 0.809E+03   -.724E+00 -.418E+00 -.822E+00   -.126E+00 -.729E-01 -.253E+00
   -.453E+02 0.261E+02 -.808E+03   0.444E+02 -.257E+02 0.809E+03   0.724E+00 -.418E+00 -.822E+00   0.128E+00 -.716E-01 -.253E+00
   0.173E+02 -.998E+01 -.858E+03   -.175E+02 0.101E+02 0.857E+03   0.258E+00 -.149E+00 0.520E+00   -.346E-01 0.172E-01 -.134E+00
   -.154E-04 -.523E+02 -.808E+03   0.146E-03 0.513E+02 0.809E+03   0.557E-07 0.836E+00 -.822E+00   0.193E-02 0.147E+00 -.253E+00
   -.173E+02 -.998E+01 -.858E+03   0.175E+02 0.101E+02 0.857E+03   -.258E+00 -.149E+00 0.520E+00   0.278E-01 0.161E-01 -.134E+00
   -.326E+01 -.188E+01 -.874E+03   0.321E+01 0.185E+01 0.873E+03   -.357E-01 -.206E-01 0.499E+00   0.102E+00 0.586E-01 -.170E+00
   0.326E+01 -.188E+01 -.874E+03   -.321E+01 0.185E+01 0.873E+03   0.357E-01 -.206E-01 0.499E+00   -.106E+00 0.564E-01 -.169E+00
   0.971E-05 0.200E+02 -.858E+03   0.196E-03 -.202E+02 0.857E+03   0.198E-07 0.298E+00 0.520E+00   -.297E-02 -.386E-01 -.134E+00
   -.140E-04 -.152E-04 -.275E+04   0.307E-04 0.366E-04 0.275E+04   0.483E-17 0.702E-17 0.844E-01   -.233E-03 -.154E-03 0.153E+00
   0.497E+02 0.835E+02 -.272E+04   -.497E+02 -.834E+02 0.272E+04   -.123E+00 -.234E+00 0.472E+00   -.793E-01 -.135E+00 0.191E+00
   -.497E+02 0.835E+02 -.272E+04   0.497E+02 -.834E+02 0.272E+04   0.123E+00 -.234E+00 0.472E+00   0.799E-01 -.133E+00 0.191E+00
   0.972E+02 0.132E+01 -.272E+04   -.971E+02 -.132E+01 0.272E+04   -.265E+00 0.105E-01 0.472E+00   -.156E+00 -.123E-02 0.191E+00
   -.972E+02 0.132E+01 -.272E+04   0.971E+02 -.132E+01 0.272E+04   0.265E+00 0.105E-01 0.472E+00   0.155E+00 -.508E-03 0.190E+00
   0.474E+02 -.848E+02 -.272E+04   -.474E+02 0.847E+02 0.272E+04   -.141E+00 0.224E+00 0.472E+00   -.750E-01 0.136E+00 0.191E+00
   -.474E+02 -.848E+02 -.272E+04   0.474E+02 0.847E+02 0.272E+04   0.141E+00 0.224E+00 0.472E+00   0.769E-01 0.134E+00 0.190E+00
   0.344E-04 -.254E-04 -.276E+04   0.142E-03 -.520E-04 0.276E+04   0.209E-17 0.100E-16 0.391E-01   -.464E-02 -.239E-02 0.205E+00
   -.424E-04 -.211E-04 -.211E+04   0.105E-03 0.985E-05 0.211E+04   -.495E-18 -.113E-17 0.263E+01   0.104E-01 0.638E-02 0.124E+00
   -.739E-05 -.789E-04 -.112E+04   0.177E-04 0.115E-05 0.110E+04   -.227E-17 -.934E-18 0.218E+02   0.140E-02 0.855E-03 0.131E+00
   0.245E-03 -.895E-04 -.182E+04   0.654E-05 0.615E-06 0.182E+04   0.310E-18 0.358E-18 -.712E+01   0.393E-02 0.241E-02 0.146E+00
   0.630E-05 -.142E-04 -.342E+03   0.301E-06 0.457E-07 0.351E+03   -.541E-19 -.178E-20 -.840E+01   0.205E-03 0.125E-03 0.188E-01
 -----------------------------------------------------------------------------------------------
   -.496E-03 -.945E-03 0.212E+01   -.427E-14 -.142E-12 -.762E-11   -.250E-15 0.834E-17 0.540E+01   0.535E-02 0.413E-02 -.718E+01
 
 
 POSITION                                       TOTAL-FORCE (eV/Angst)
 -----------------------------------------------------------------------------------
      0.00000      0.00000      5.28038         0.000000      0.000000     -0.005205
      2.93784      0.00000      5.28038        -0.001347      0.003227     -0.047773
      5.87568      0.00000      5.28038         0.001347      0.003227     -0.047773
      1.46892      2.54424      5.28038         0.002121     -0.002780     -0.047773
      4.40676      2.54424      5.28038         0.000000      0.000000     -0.077624
      7.34459      2.54424      5.28038        -0.002121     -0.002780     -0.047773
      2.93784      5.08848      5.28038         0.003469     -0.000447     -0.047773
      5.87568      5.08848      5.28038        -0.003469     -0.000447     -0.047773
      8.81351      5.08848      5.28038         0.000000     -0.000000     -0.035041
      1.46892      0.84808      7.67911         0.040051      0.023124      0.138179
      4.40676      0.84808      7.67911        -0.000000     -0.044140      0.057438
      7.34459      0.84808      7.67911        -0.040051      0.023124      0.138179
      2.93784      3.39232      7.67911        -0.038227      0.022070      0.057438
      5.87568      3.39232      7.67911         0.038227      0.022070      0.057438
      8.81351      3.39232      7.67911        -0.000000     -0.025614      0.130495
      4.40676      5.93656      7.67911        -0.000000     -0.046247      0.138179
      7.34459      5.93656      7.67911        -0.022182      0.012807      0.130495
     10.28243      5.93656      7.67911         0.022182      0.012807      0.130495
      8.81351      1.69394     10.07055        -0.000000     -0.020148     -0.035509
      2.94670      1.70128     10.05847         0.008048      0.004646     -0.106167
      5.86681      1.70128     10.05847        -0.008048      0.004646     -0.106167
     10.27376      4.24541     10.05945         0.020098     -0.011604     -0.021438
      4.40676      4.23017     10.05847        -0.000000     -0.009293     -0.106167
      7.35327      4.24541     10.05945        -0.020098     -0.011604     -0.021438
     11.75328      6.78576     10.07055         0.017449      0.010074     -0.035509
      5.87375      6.78576     10.07055        -0.017449      0.010074     -0.035509
      8.81351      6.77463     10.05945         0.000000      0.023207     -0.021438
      0.00000      0.00000     12.48855         0.000000      0.000000     -0.092473
      2.97006      0.05170     12.45862        -0.151062     -0.291519     -0.054353
      5.84345      0.05170     12.45862         0.151062     -0.291519     -0.054353
      1.52981      2.54630     12.45862        -0.327993      0.014936     -0.054353
      7.28371      2.54630     12.45862         0.327993      0.014936     -0.054353
      2.96650      5.03473     12.45862        -0.176932      0.276582     -0.054353
      5.84701      5.03473     12.45862         0.176932      0.276582     -0.054353
      8.81351      5.08848     12.49203         0.000000     -0.000000     -0.086526
      4.40676      2.54424     12.16149         0.000000     -0.000000      0.415052
      4.40676      2.54424     13.83741         0.000000      0.000000     -0.006322
      4.40676      2.54424     15.08094         0.000000      0.000000     -0.001875
      4.40676      2.54424     16.04736         0.000000      0.000000      0.013773
 -----------------------------------------------------------------------------------
    total drift:                                0.004852      0.003184      0.346853


--------------------------------------------------------------------------------------------------------



  FREE ENERGIE OF THE ION-ELECTRON SYSTEM (eV)
  ---------------------------------------------------
  free  energy   TOTEN  =      -128.65121731 eV

  energy  without entropy=     -128.65121731  energy(sigma->0) =     -128.65121731
 


--------------------------------------------------------------------------------------------------------


    POTLOK:  cpu time    0.0637: real time    0.0637


--------------------------------------------------------------------------------------------------------


 stress matrix after NEB project (eV)
    -18.97260     -0.00000     -0.00000
     -0.00000    -18.97260      0.00000
      0.00000      0.00000      1.62751
  FORCES: max atom, RMS     0.013773    0.002445
  FORCE total and by dimension    0.015270    0.013773
  Stress total and by dimension   26.880618   18.972597
     LOOP+:  cpu time   89.0040: real time   89.0163
 -----------------------------------------------------------------------------
|                                                                             |
|           W    W    AA    RRRRR   N    N  II  N    N   GGGG   !!!           |
|           W    W   A  A   R    R  NN   N  II  NN   N  G    G  !!!           |
|           W    W  A    A  R    R  N N  N  II  N N  N  G       !!!           |
|           W WW W  AAAAAA  RRRRR   N  N N  II  N  N N  G  GGG   !            |
|           WW  WW  A    A  R   R   N   NN  II  N   NN  G    G                |
|           W    W  A    A  R    R  N    N  II  N    N   GGGG   !!!           |
|                                                                             |
|     Tetrahedron method does not include variations of the Fermi             |
|     occupations, so forces and stress will be inaccurate. We suggest        |
|     using a different smearing scheme ISMEAR = 1 or 2 for metals in         |
|     relaxations.                                                            |
|                                                                             |
 -----------------------------------------------------------------------------

    4ORBIT:  cpu time    0.0000: real time    0.0000



 total charge

# of ion       s       p       d       tot
------------------------------------------
    1        0.540   0.241   8.763   9.545
    2        0.545   0.241   8.765   9.550
    3        0.545   0.241   8.765   9.550
    4        0.545   0.241   8.765   9.550
    5        0.540   0.240   8.767   9.547
    6        0.545   0.241   8.765   9.550
    7        0.545   0.241   8.765   9.550
    8        0.545   0.241   8.765   9.550
    9        0.541   0.242   8.764   9.548
   10        0.521   0.307   8.773   9.601
   11        0.521   0.308   8.775   9.603
   12        0.521   0.307   8.773   9.601
   13        0.521   0.308   8.775   9.603
   14        0.521   0.308   8.775   9.603
   15        0.516   0.310   8.772   9.599
   16        0.521   0.307   8.773   9.601
   17        0.516   0.310   8.772   9.599
   18        0.516   0.310   8.772   9.599
   19        0.520   0.302   8.775   9.596
   20        0.535   0.329   8.757   9.621
   21        0.535   0.329   8.757   9.621
   22        0.517   0.310   8.773   9.600
   23        0.535   0.329   8.757   9.621
   24        0.517   0.310   8.773   9.600
   25        0.520   0.302   8.775   9.596
   26        0.520   0.302   8.775   9.596
   27        0.517   0.310   8.773   9.600
   28        0.538   0.231   8.764   9.533
   29        0.541   0.238   8.773   9.552
   30        0.541   0.238   8.773   9.552
   31        0.541   0.238   8.773   9.552
   32        0.541   0.238   8.773   9.552
   33        0.541   0.238   8.773   9.552
   34        0.541   0.238   8.773   9.552
   35        0.541   0.229   8.767   9.537
   36        0.444   0.552   8.414   9.410
   37        0.958   1.387   0.000   2.346
   38        1.536   3.753   0.000   5.289
   39        0.550   0.129   0.000   0.679
--------------------------------------------------
tot         22.091  15.474 315.340 352.906
 
 BZINTS: Fermi energy:    0.352213;  406.000000 electrons
         Band energy:-0.144216E+04;  BLOECHL correction:   -0.059918

 total amount of memory used by VASP MPI-rank0   139247. kBytes
=======================================================================

   base      :      30000. kBytes
   nonlr-proj:      13555. kBytes
   fftplans  :       5150. kBytes
   grid      :      23126. kBytes
   one-center:        606. kBytes
   wavefun   :      66810. kBytes
 
  
  
 General timing and accounting informations for this job:
 ========================================================
  
                  Total CPU time used (sec):       97.491
                            User time (sec):       94.104
                          System time (sec):        3.387
                         Elapsed time (sec):       97.836
  
                   Maximum memory used (kb):      415156.
                   Average memory used (kb):          N/A
  
                          Minor page faults:        82444
                          Major page faults:            0
                 Voluntary context switches:         5132
