PROCAR new format
# of k-points:   10         # of bands:  252         # of ions:   39

 k-point     1 :    0.00000000 0.00000000 0.00000000     weight = 0.01562500

band     1 # energy  -25.00111604 # occ.  2.00000000
 
ion      s      p      d    tot
    1  0.000  0.000  0.000  0.000
    2  0.000  0.000  0.000  0.000
    3  0.000  0.000  0.000  0.000
    4  0.000  0.000  0.000  0.000
    5  0.000  0.000  0.000  0.000
    6  0.000  0.000  0.000  0.000
    7  0.000  0.000  0.000  0.000
    8  0.000  0.000  0.000  0.000
    9  0.000  0.000  0.000  0.000
   10  0.000  0.000  0.000  0.000
   11  0.000  0.000  0.000  0.000
   12  0.000  0.000  0.000  0.000
   13  0.000  0.000  0.000  0.000
   14  0.000  0.000  0.000  0.000
   15  0.000  0.000  0.000  0.000
   16  0.000  0.000  0.000  0.000
   17  0.000  0.000  0.000  0.000
   18  0.000  0.000  0.000  0.000
   19  0.000  0.000  0.000  0.000
   20  0.000  0.000  0.000  0.000
   21  0.000  0.000  0.000  0.000
   22  0.000  0.000  0.000  0.000
   23  0.000  0.000  0.000  0.000
   24  0.000  0.000  0.000  0.000
   25  0.000  0.000  0.000  0.000
   26  0.000  0.000  0.000  0.000
   27  0.000  0.000  0.000  0.000
   28  0.000  0.000  0.000  0.000
   29  0.000  0.000  0.000  0.000
   30  0.000  0.000  0.000  0.000
   31  0.000  0.000  0.000  0.000
   32  0.000  0.000  0.000  0.000
   33  0.000  0.000  0.000  0.000
   34  0.000  0.000  0.000  0.000
   35  0.000  0.000  0.000  0.000
   36  0.000  0.000  0.000  0.000
   37  0.085  0.064  0.000  0.149
   38  0.724  0.011  0.000  0.734
   39  0.055  0.012  0.000  0.066
tot    0.864  0.086  0.000  0.950
 
band     2 # energy  -15.54529769 # occ.  2.00000000
 
ion      s      p      d    tot
    1  0.000  0.000  0.000  0.000
    2  0.000  0.000  0.000  0.000
    3  0.000  0.000  0.000  0.000
    4  0.000  0.000  0.000  0.000
    5  0.000  0.000  0.000  0.000
    6  0.000  0.000  0.000  0.000
    7  0.000  0.000  0.000  0.000
    8  0.000  0.000  0.000  0.000
    9  0.000  0.000  0.000  0.000
   10  0.000  0.000  0.000  0.000
   11  0.000  0.000  0.000  0.000
   12  0.000  0.000  0.000  0.000
   13  0.000  0.000  0.000  0.000
   14  0.000  0.000  0.000  0.000
   15  0.000  0.000  0.000  0.000
   16  0.000  0.000  0.000  0.000
   17  0.000  0.000  0.000  0.000
   18  0.000  0.000  0.000  0.000
   19  0.000  0.000  0.000  0.000
   20  0.000  0.000  0.000  0.000
   21  0.000  0.000  0.000  0.000
   22  0.000  0.000  0.000  0.000
   23  0.000  0.000  0.000  0.000
   24  0.000  0.000  0.000  0.000
   25  0.000  0.000  0.000  0.000
   26  0.000  0.000  0.000  0.000
   27  0.000  0.000  0.000  0.000
   28  0.000  0.000  0.000  0.000
   29  0.000  0.000  0.000  0.000
   30  0.000  0.000  0.000  0.000
   31  0.000  0.000  0.000  0.000
   32  0.000  0.000  0.000  0.000
   33  0.000  0.000  0.000  0.000
   34  0.000  0.000  0.000  0.000
   35  0.000  0.000  0.000  0.000
   36  0.002  0.002  0.002  0.006
   37  0.156  0.050  0.000  0.206
   38  0.023  0.528  0.000  0.551
   39  0.201  0.033  0.000  0.234
tot    0.382  0.614  0.002  0.997
 
band     3 # energy   -8.63713443 # occ.  2.00000000
 
ion      s      p      d    tot
    1  0.002  0.000  0.000  0.002
    2  0.002  0.000  0.000  0.002
    3  0.002  0.000  0.000  0.002
    4  0.002  0.000  0.000  0.002
    5  0.002  0.000  0.000  0.002
    6  0.002  0.000  0.000  0.002
    7  0.002  0.000  0.000  0.002
    8  0.002  0.000  0.000  0.002
    9  0.002  0.000  0.000  0.002
   10  0.010  0.000  0.000  0.011
   11  0.011  0.000  0.000  0.011
   12  0.010  0.000  0.000  0.011
   13  0.011  0.000  0.000  0.011
   14  0.011  0.000  0.000  0.011
   15  0.010  0.000  0.000  0.010
   16  0.010  0.000  0.000  0.011
   17  0.010  0.000  0.000  0.010
   18  0.010  0.000  0.000  0.010
   19  0.013  0.000  0.000  0.013
   20  0.020  0.000  0.001  0.021
   21  0.020  0.000  0.001  0.021
   22  0.013  0.000  0.000  0.013
   23  0.020  0.000  0.001  0.021
   24  0.013  0.000  0.000  0.013
   25  0.013  0.000  0.000  0.013
   26  0.013  0.000  0.000  0.013
   27  0.013  0.000  0.000  0.013
   28  0.004  0.000  0.000  0.004
   29  0.008  0.000  0.001  0.010
   30  0.008  0.000  0.001  0.010
   31  0.008  0.000  0.001  0.010
   32  0.008  0.000  0.001  0.010
   33  0.008  0.000  0.001  0.010
   34  0.008  0.000  0.001  0.010
   35  0.004  0.000  0.000  0.004
   36  0.087  0.024  0.064  0.175
   37  0.083  0.082  0.000  0.165
   38  0.006  0.024  0.000  0.029
   39  0.006  0.000  0.000  0.007
tot    0.490  0.137  0.072  0.698
 
band     4 # energy   -8.25468340 # occ.  2.00000000
 
ion      s      p      d    tot
    1  0.006  0.000  0.000  0.006
    2  0.006  0.000  0.000  0.006
    3  0.006  0.000  0.000  0.006
    4  0.006  0.000  0.000  0.006
    5  0.006  0.000  0.000  0.006
    6  0.006  0.000  0.000  0.006
    7  0.006  0.000  0.000  0.006
    8  0.006  0.000  0.000  0.006
    9  0.006  0.000  0.000  0.006
   10  0.018  0.000  0.000  0.018
   11  0.018  0.000  0.000  0.018
   12  0.018  0.000  0.000  0.018
   13  0.018  0.000  0.000  0.018
   14  0.018  0.000  0.000  0.018
   15  0.019  0.000  0.000  0.020
   16  0.018  0.000  0.000  0.018
   17  0.019  0.000  0.000  0.020
   18  0.019  0.000  0.000  0.020
   19  0.010  0.000  0.000  0.011
   20  0.006  0.001  0.001  0.008
   21  0.006  0.001  0.001  0.008
   22  0.011  0.000  0.000  0.011
   23  0.006  0.001  0.001  0.008
   24  0.011  0.000  0.000  0.011
   25  0.010  0.000  0.000  0.011
   26  0.010  0.000  0.000  0.011
   27  0.011  0.000  0.000  0.011
   28  0.001  0.000  0.000  0.001
   29  0.000  0.001  0.002  0.002
   30  0.000  0.001  0.002  0.002
   31  0.000  0.001  0.002  0.002
   32  0.000  0.001  0.002  0.002
   33  0.000  0.001  0.002  0.002
   34  0.000  0.001  0.002  0.002
   35  0.001  0.000  0.000  0.001
   36  0.054  0.041  0.073  0.168
   37  0.093  0.087  0.000  0.179
   38  0.006  0.023  0.000  0.030
   39  0.007  0.000  0.000  0.007
tot    0.459  0.164  0.090  0.713
 
band     5 # energy   -7.67670910 # occ.  2.00000000
 
ion      s      p      d    tot
    1  0.000  0.000  0.000  0.000
    2  0.000  0.000  0.000  0.000
    3  0.000  0.000  0.000  0.000
    4  0.000  0.000  0.000  0.000
    5  0.000  0.000  0.000  0.000
    6  0.000  0.000  0.000  0.000
    7  0.000  0.000  0.000  0.000
    8  0.000  0.000  0.000  0.000
    9  0.000  0.000  0.000  0.000
   10  0.000  0.000  0.000  0.000
   11  0.000  0.000  0.000  0.000
   12  0.000  0.000  0.000  0.000
   13  0.000  0.000  0.000  0.000
   14  0.000  0.000  0.000  0.000
   15  0.000  0.000  0.000  0.000
   16  0.000  0.000  0.000  0.000
   17  0.000  0.000  0.000  0.000
   18  0.000  0.000  0.000  0.000
   19  0.000  0.000  0.000  0.000
   20  0.000  0.000  0.000  0.000
   21  0.000  0.000  0.000  0.000
   22  0.000  0.000  0.000  0.000
   23  0.000  0.000  0.000  0.000
   24  0.000  0.000  0.000  0.000
   25  0.000  0.000  0.000  0.000
   26  0.000  0.000  0.000  0.000
   27  0.000  0.000  0.000  0.000
   28  0.000  0.000  0.000  0.000
   29  0.001  0.000  0.001  0.002
   30  0.000  0.000  0.000  0.000
   31  0.001  0.000  0.001  0.002
   32  0.001  0.000  0.001  0.002
   33  0.000  0.000  0.000  0.000
   34  0.001  0.000  0.001  0.002
   35  0.000  0.000  0.000  0.000
   36  0.000  0.003  0.010  0.013
   37  0.000  0.117  0.000  0.117
   38  0.000  0.542  0.000  0.542
   39  0.000  0.007  0.000  0.007
tot    0.003  0.669  0.014  0.686
 
band     6 # energy   -7.67649427 # occ.  2.00000000
 
ion      s      p      d    tot
    1  0.000  0.000  0.000  0.000
    2  0.000  0.000  0.000  0.000
    3  0.000  0.000  0.000  0.000
    4  0.000  0.000  0.000  0.000
    5  0.000  0.000  0.000  0.000
    6  0.000  0.000  0.000  0.000
    7  0.000  0.000  0.000  0.000
    8  0.000  0.000  0.000  0.000
    9  0.000  0.000  0.000  0.000
   10  0.000  0.000  0.000  0.000
   11  0.000  0.000  0.000  0.000
   12  0.000  0.000  0.000  0.000
   13  0.000  0.000  0.000  0.000
   14  0.000  0.000  0.000  0.000
   15  0.000  0.000  0.000  0.000
   16  0.000  0.000  0.000  0.000
   17  0.000  0.000  0.000  0.000
   18  0.000  0.000  0.000  0.000
   19  0.000  0.000  0.000  0.000
   20  0.000  0.000  0.000  0.000
   21  0.000  0.000  0.000  0.000
   22  0.000  0.000  0.000  0.000
   23  0.000  0.000  0.000  0.000
   24  0.000  0.000  0.000  0.000
   25  0.000  0.000  0.000  0.000
   26  0.000  0.000  0.000  0.000
   27  0.000  0.000  0.000  0.000
   28  0.000  0.000  0.000  0.000
   29  0.000  0.000  0.000  0.001
   30  0.001  0.000  0.001  0.002
   31  0.000  0.000  0.000  0.001
   32  0.000  0.000  0.000  0.001
   33  0.001  0.000  0.001  0.002
   34  0.000  0.000  0.000  0.001
   35  0.000  0.000  0.000  0.000
   36  0.000  0.003  0.010  0.013
   37  0.000  0.117  0.000  0.117
   38  0.000  0.542  0.000  0.542
   39  0.000  0.007  0.000  0.007
tot    0.003  0.669  0.014  0.686
 
band     7 # energy   -7.19630915 # occ.  2.00000000
 
ion      s      p      d    tot
    1  0.017  0.000  0.001  0.019
    2  0.016  0.000  0.001  0.018
    3  0.016  0.000  0.001  0.018
    4  0.016  0.000  0.001  0.018
    5  0.016  0.000  0.001  0.018
    6  0.016  0.000  0.001  0.018
    7  0.016  0.000  0.001  0.018
    8  0.016  0.000  0.001  0.018
    9  0.016  0.000  0.001  0.018
   10  0.009  0.002  0.002  0.013
   11  0.008  0.002  0.002  0.012
   12  0.009  0.002  0.002  0.013
   13  0.008  0.002  0.002  0.012
   14  0.008  0.002  0.002  0.012
   15  0.007  0.002  0.003  0.011
   16  0.009  0.002  0.002  0.013
   17  0.007  0.002  0.003  0.011
   18  0.007  0.002  0.003  0.011
   19  0.018  0.001  0.005  0.023
   20  0.014  0.001  0.006  0.020
   21  0.014  0.001  0.006  0.020
   22  0.019  0.001  0.004  0.024
   23  0.014  0.001  0.006  0.020
   24  0.019  0.001  0.004  0.024
   25  0.018  0.001  0.005  0.023
   26  0.018  0.001  0.005  0.023
   27  0.019  0.001  0.004  0.024
   28  0.013  0.001  0.000  0.014
   29  0.010  0.001  0.001  0.011
   30  0.010  0.001  0.001  0.011
   31  0.010  0.001  0.001  0.011
   32  0.010  0.001  0.001  0.011
   33  0.010  0.001  0.001  0.011
   34  0.010  0.001  0.001  0.011
   35  0.013  0.001  0.000  0.014
   36  0.001  0.009  0.014  0.024
   37  0.013  0.010  0.000  0.023
   38  0.001  0.002  0.000  0.003
   39  0.001  0.000  0.000  0.001
tot    0.470  0.053  0.097  0.620
 
band     8 # energy   -6.32318357 # occ.  2.00000000
 
ion      s      p      d    tot
    1  0.009  0.000  0.021  0.030
    2  0.016  0.000  0.016  0.032
    3  0.016  0.000  0.016  0.032
    4  0.016  0.000  0.016  0.032
    5  0.009  0.000  0.015  0.024
    6  0.016  0.000  0.016  0.032
    7  0.016  0.000  0.016  0.032
    8  0.016  0.000  0.016  0.032
    9  0.035  0.000  0.011  0.046
   10  0.012  0.001  0.021  0.033
   11  0.017  0.002  0.016  0.035
   12  0.012  0.001  0.021  0.033
   13  0.017  0.002  0.016  0.035
   14  0.017  0.002  0.016  0.035
   15  0.000  0.001  0.025  0.025
   16  0.012  0.001  0.021  0.033
   17  0.000  0.001  0.025  0.025
   18  0.000  0.001  0.025  0.025
   19  0.001  0.001  0.007  0.008
   20  0.007  0.001  0.006  0.015
   21  0.007  0.001  0.006  0.015
   22  0.005  0.001  0.002  0.007
   23  0.007  0.001  0.006  0.015
   24  0.005  0.001  0.002  0.007
   25  0.001  0.001  0.007  0.008
   26  0.001  0.001  0.007  0.008
   27  0.005  0.001  0.002  0.007
   28  0.005  0.000  0.000  0.005
   29  0.002  0.000  0.002  0.005
   30  0.002  0.000  0.002  0.005
   31  0.002  0.000  0.002  0.005
   32  0.002  0.000  0.002  0.005
   33  0.002  0.000  0.002  0.005
   34  0.002  0.000  0.002  0.005
   35  0.007  0.000  0.001  0.008
   36  0.000  0.001  0.001  0.002
   37  0.000  0.000  0.000  0.000
   38  0.000  0.000  0.000  0.000
   39  0.000  0.000  0.000  0.000
tot    0.299  0.021  0.387  0.707
 
band     9 # energy   -6.29881935 # occ.  2.00000000
 
ion      s      p      d    tot
    1  0.000  0.000  0.005  0.006
    2  0.006  0.001  0.004  0.011
    3  0.004  0.001  0.003  0.008
    4  0.006  0.001  0.004  0.011
    5  0.000  0.001  0.009  0.010
    6  0.000  0.000  0.003  0.004
    7  0.005  0.001  0.003  0.008
    8  0.000  0.000  0.003  0.004
    9  0.000  0.001  0.002  0.002
   10  0.000  0.001  0.027  0.028
   11  0.044  0.002  0.014  0.060
   12  0.011  0.001  0.011  0.024
   13  0.045  0.002  0.014  0.060
   14  0.000  0.002  0.036  0.038
   15  0.011  0.001  0.012  0.024
   16  0.011  0.001  0.012  0.024
   17  0.011  0.001  0.012  0.024
   18  0.000  0.004  0.003  0.007
   19  0.000  0.001  0.010  0.012
   20  0.000  0.004  0.022  0.025
   21  0.037  0.001  0.014  0.053
   22  0.028  0.002  0.012  0.041
   23  0.037  0.001  0.014  0.052
   24  0.000  0.000  0.038  0.038
   25  0.000  0.003  0.005  0.008
   26  0.001  0.001  0.011  0.012
   27  0.027  0.002  0.012  0.041
   28  0.000  0.000  0.001  0.001
   29  0.001  0.000  0.002  0.003
   30  0.007  0.001  0.003  0.011
   31  0.001  0.000  0.002  0.003
   32  0.004  0.001  0.004  0.008
   33  0.007  0.001  0.003  0.011
   34  0.003  0.001  0.004  0.008
   35  0.000  0.000  0.007  0.007
   36  0.000  0.002  0.002  0.003
   37  0.000  0.000  0.000  0.000
   38  0.000  0.000  0.000  0.000
   39  0.000  0.000  0.000  0.000
tot    0.307  0.043  0.343  0.693
 
band    10 # energy   -6.29878777 # occ.  2.00000000
 
ion      s      p      d    tot
    1  0.000  0.000  0.005  0.006
    2  0.001  0.000  0.003  0.004
    3  0.003  0.001  0.004  0.007
    4  0.001  0.000  0.003  0.004
    5  0.000  0.001  0.009  0.010
    6  0.007  0.001  0.003  0.012
    7  0.003  0.001  0.004  0.007
    8  0.007  0.001  0.003  0.012
    9  0.000  0.001  0.002  0.002
   10  0.015  0.002  0.006  0.023
   11  0.015  0.002  0.029  0.046
   12  0.004  0.001  0.022  0.026
   13  0.015  0.002  0.029  0.045
   14  0.059  0.001  0.007  0.067
   15  0.004  0.003  0.006  0.013
   16  0.004  0.001  0.022  0.026
   17  0.004  0.003  0.006  0.013
   18  0.014  0.000  0.016  0.030
   19  0.000  0.002  0.007  0.010
   20  0.050  0.001  0.012  0.062
   21  0.012  0.003  0.019  0.034
   22  0.009  0.001  0.030  0.039
   23  0.012  0.003  0.019  0.034
   24  0.037  0.002  0.003  0.042
   25  0.001  0.000  0.012  0.013
   26  0.000  0.003  0.007  0.010
   27  0.009  0.001  0.029  0.039
   28  0.000  0.000  0.001  0.001
   29  0.007  0.001  0.004  0.012
   30  0.000  0.000  0.003  0.004
   31  0.007  0.001  0.004  0.011
   32  0.004  0.001  0.002  0.007
   33  0.000  0.000  0.003  0.004
   34  0.004  0.001  0.002  0.007
   35  0.000  0.000  0.007  0.007
   36  0.000  0.002  0.002  0.003
   37  0.000  0.000  0.000  0.000
   38  0.000  0.000  0.000  0.000
   39  0.000  0.000  0.000  0.000
tot    0.307  0.043  0.343  0.693
 
band    11 # energy   -6.29720650 # occ.  2.00000000
 
ion      s      p      d    tot
    1  0.019  0.000  0.001  0.021
    2  0.004  0.000  0.008  0.013
    3  0.004  0.000  0.009  0.013
    4  0.004  0.000  0.008  0.013
    5  0.007  0.000  0.006  0.013
    6  0.004  0.000  0.009  0.013
    7  0.004  0.000  0.009  0.013
    8  0.004  0.000  0.009  0.013
    9  0.001  0.001  0.009  0.011
   10  0.001  0.000  0.032  0.034
   11  0.000  0.001  0.020  0.022
   12  0.002  0.000  0.032  0.034
   13  0.000  0.001  0.020  0.022
   14  0.000  0.001  0.020  0.022
   15  0.035  0.002  0.006  0.043
   16  0.002  0.000  0.032  0.034
   17  0.035  0.002  0.006  0.043
   18  0.036  0.002  0.006  0.044
   19  0.002  0.001  0.019  0.022
   20  0.021  0.000  0.016  0.037
   21  0.022  0.000  0.015  0.037
   22  0.008  0.002  0.012  0.023
   23  0.022  0.000  0.015  0.037
   24  0.008  0.002  0.012  0.022
   25  0.002  0.001  0.019  0.023
   26  0.002  0.001  0.019  0.022
   27  0.008  0.002  0.012  0.023
   28  0.001  0.000  0.000  0.001
   29  0.001  0.000  0.004  0.006
   30  0.001  0.000  0.005  0.006
   31  0.001  0.000  0.004  0.006
   32  0.001  0.000  0.004  0.006
   33  0.001  0.000  0.005  0.006
   34  0.001  0.000  0.004  0.006
   35  0.009  0.001  0.000  0.010
   36  0.001  0.004  0.000  0.005
   37  0.001  0.001  0.000  0.002
   38  0.000  0.000  0.000  0.000
   39  0.000  0.000  0.000  0.000
tot    0.275  0.032  0.411  0.718
 
band    12 # energy   -6.28431371 # occ.  2.00000000
 
ion      s      p      d    tot
    1  0.005  0.001  0.001  0.008
    2  0.000  0.001  0.006  0.007
    3  0.000  0.001  0.006  0.007
    4  0.000  0.001  0.006  0.007
    5  0.018  0.002  0.001  0.021
    6  0.000  0.001  0.006  0.007
    7  0.000  0.001  0.006  0.007
    8  0.000  0.001  0.006  0.007
    9  0.000  0.000  0.002  0.003
   10  0.025  0.003  0.002  0.030
   11  0.020  0.001  0.021  0.042
   12  0.024  0.003  0.002  0.030
   13  0.020  0.001  0.021  0.042
   14  0.021  0.001  0.021  0.043
   15  0.001  0.001  0.025  0.026
   16  0.024  0.003  0.002  0.030
   17  0.001  0.001  0.025  0.026
   18  0.001  0.001  0.024  0.026
   19  0.025  0.002  0.007  0.035
   20  0.007  0.003  0.013  0.023
   21  0.008  0.003  0.013  0.023
   22  0.008  0.000  0.026  0.034
   23  0.008  0.003  0.013  0.023
   24  0.008  0.000  0.026  0.034
   25  0.025  0.002  0.007  0.035
   26  0.025  0.002  0.007  0.035
   27  0.008  0.000  0.026  0.034
   28  0.012  0.001  0.001  0.014
   29  0.000  0.000  0.004  0.005
   30  0.000  0.000  0.004  0.005
   31  0.000  0.000  0.004  0.005
   32  0.000  0.000  0.004  0.005
   33  0.000  0.000  0.004  0.005
   34  0.000  0.000  0.004  0.005
   35  0.004  0.001  0.002  0.007
   36  0.001  0.000  0.000  0.001
   37  0.000  0.000  0.000  0.000
   38  0.000  0.000  0.000  0.000
   39  0.000  0.000  0.000  0.000
tot    0.301  0.041  0.353  0.695
 
band    13 # energy   -6.26930053 # occ.  2.00000000
 
ion      s      p      d    tot
    1  0.000  0.001  0.006  0.008
    2  0.007  0.001  0.004  0.012
    3  0.005  0.001  0.003  0.009
    4  0.007  0.001  0.004  0.012
    5  0.000  0.000  0.002  0.002
    6  0.000  0.000  0.003  0.004
    7  0.005  0.001  0.003  0.009
    8  0.000  0.000  0.003  0.004
    9  0.000  0.001  0.010  0.011
   10  0.046  0.001  0.014  0.061
   11  0.000  0.002  0.010  0.013
   12  0.011  0.003  0.015  0.030
   13  0.000  0.002  0.010  0.013
   14  0.000  0.001  0.013  0.013
   15  0.012  0.001  0.034  0.047
   16  0.012  0.003  0.015  0.030
   17  0.012  0.001  0.035  0.047
   18  0.048  0.002  0.003  0.053
   19  0.013  0.001  0.028  0.042
   20  0.010  0.001  0.007  0.018
   21  0.002  0.001  0.019  0.023
   22  0.005  0.003  0.008  0.016
   23  0.003  0.001  0.019  0.023
   24  0.019  0.000  0.015  0.034
   25  0.052  0.002  0.005  0.059
   26  0.013  0.001  0.028  0.042
   27  0.005  0.003  0.008  0.016
   28  0.000  0.001  0.007  0.008
   29  0.000  0.000  0.002  0.002
   30  0.004  0.001  0.002  0.007
   31  0.000  0.000  0.002  0.003
   32  0.003  0.001  0.003  0.006
   33  0.004  0.001  0.002  0.007
   34  0.003  0.001  0.003  0.006
   35  0.000  0.000  0.002  0.002
   36  0.000  0.000  0.001  0.001
   37  0.000  0.000  0.000  0.000
   38  0.000  0.000  0.000  0.000
   39  0.000  0.000  0.000  0.000
tot    0.301  0.042  0.350  0.693
 
band    14 # energy   -6.26925700 # occ.  2.00000000
 
ion      s      p      d    tot
    1  0.000  0.001  0.006  0.008
    2  0.001  0.000  0.003  0.005
    3  0.003  0.001  0.004  0.008
    4  0.001  0.000  0.003  0.005
    5  0.000  0.000  0.002  0.002
    6  0.008  0.001  0.004  0.013
    7  0.003  0.001  0.004  0.007
    8  0.008  0.001  0.004  0.013
    9  0.000  0.001  0.010  0.011
   10  0.000  0.004  0.016  0.020
   11  0.000  0.001  0.012  0.013
   12  0.035  0.001  0.014  0.051
   13  0.000  0.001  0.012  0.013
   14  0.000  0.003  0.009  0.012
   15  0.035  0.001  0.014  0.051
   16  0.035  0.001  0.014  0.050
   17  0.036  0.001  0.013  0.051
   18  0.000  0.000  0.045  0.045
   19  0.039  0.002  0.013  0.053
   20  0.000  0.001  0.023  0.024
   21  0.007  0.001  0.011  0.020
   22  0.014  0.001  0.013  0.028
   23  0.007  0.001  0.011  0.020
   24  0.000  0.004  0.006  0.010
   25  0.000  0.001  0.036  0.037
   26  0.039  0.002  0.012  0.053
   27  0.014  0.001  0.013  0.028
   28  0.000  0.001  0.007  0.008
   29  0.005  0.001  0.003  0.008
   30  0.000  0.000  0.003  0.003
   31  0.005  0.001  0.003  0.008
   32  0.002  0.001  0.002  0.005
   33  0.000  0.000  0.003  0.003
   34  0.002  0.001  0.002  0.005
   35  0.000  0.000  0.002  0.002
   36  0.000  0.000  0.001  0.001
   37  0.000  0.000  0.000  0.000
   38  0.000  0.000  0.000  0.000
   39  0.000  0.000  0.000  0.000
tot    0.301  0.042  0.350  0.693
 
band    15 # energy   -6.11235556 # occ.  2.00000000
 
ion      s      p      d    tot
    1  0.002  0.000  0.000  0.002
    2  0.001  0.000  0.001  0.002
    3  0.001  0.000  0.001  0.002
    4  0.001  0.000  0.001  0.002
    5  0.004  0.000  0.000  0.004
    6  0.001  0.000  0.001  0.002
    7  0.001  0.000  0.001  0.002
    8  0.001  0.000  0.001  0.002
    9  0.001  0.000  0.001  0.003
   10  0.000  0.000  0.006  0.007
   11  0.002  0.001  0.001  0.004
   12  0.000  0.000  0.006  0.007
   13  0.002  0.001  0.001  0.004
   14  0.002  0.001  0.001  0.004
   15  0.006  0.001  0.005  0.011
   16  0.000  0.000  0.006  0.007
   17  0.006  0.001  0.005  0.011
   18  0.006  0.001  0.005  0.011
   19  0.002  0.001  0.016  0.019
   20  0.001  0.000  0.026  0.027
   21  0.001  0.000  0.026  0.027
   22  0.010  0.002  0.022  0.034
   23  0.001  0.000  0.026  0.027
   24  0.010  0.002  0.022  0.034
   25  0.002  0.001  0.016  0.019
   26  0.002  0.001  0.016  0.019
   27  0.010  0.002  0.022  0.034
   28  0.032  0.000  0.021  0.053
   29  0.022  0.000  0.021  0.043
   30  0.022  0.000  0.021  0.043
   31  0.022  0.000  0.021  0.043
   32  0.022  0.000  0.021  0.043
   33  0.022  0.000  0.021  0.043
   34  0.022  0.000  0.021  0.043
   35  0.028  0.000  0.022  0.050
   36  0.000  0.001  0.024  0.026
   37  0.005  0.004  0.000  0.009
   38  0.000  0.000  0.000  0.001
   39  0.000  0.000  0.000  0.000
tot    0.272  0.022  0.430  0.724
 
band    16 # energy   -5.81682754 # occ.  2.00000000
 
ion      s      p      d    tot
    1  0.015  0.002  0.002  0.019
    2  0.000  0.001  0.009  0.009
    3  0.000  0.001  0.009  0.009
    4  0.000  0.001  0.009  0.009
    5  0.000  0.000  0.002  0.002
    6  0.000  0.001  0.009  0.009
    7  0.000  0.001  0.009  0.009
    8  0.000  0.001  0.009  0.009
    9  0.017  0.001  0.000  0.019
   10  0.011  0.002  0.013  0.025
   11  0.003  0.000  0.042  0.045
   12  0.011  0.002  0.013  0.025
   13  0.003  0.000  0.042  0.045
   14  0.003  0.000  0.042  0.045
   15  0.003  0.001  0.025  0.029
   16  0.011  0.002  0.013  0.025
   17  0.003  0.001  0.025  0.029
   18  0.003  0.001  0.025  0.029
   19  0.005  0.001  0.014  0.019
   20  0.001  0.000  0.047  0.048
   21  0.001  0.000  0.047  0.048
   22  0.011  0.001  0.017  0.029
   23  0.001  0.000  0.047  0.048
   24  0.011  0.001  0.017  0.029
   25  0.005  0.001  0.014  0.020
   26  0.005  0.001  0.014  0.019
   27  0.011  0.001  0.017  0.029
   28  0.010  0.001  0.001  0.012
   29  0.000  0.001  0.006  0.007
   30  0.000  0.001  0.006  0.007
   31  0.000  0.001  0.006  0.007
   32  0.000  0.001  0.006  0.007
   33  0.000  0.001  0.006  0.007
   34  0.000  0.001  0.006  0.007
   35  0.010  0.001  0.002  0.013
   36  0.000  0.000  0.001  0.002
   37  0.000  0.000  0.000  0.000
   38  0.000  0.000  0.000  0.000
   39  0.000  0.000  0.000  0.000
tot    0.154  0.029  0.567  0.750
 
band    17 # energy   -5.81377580 # occ.  2.00000000
 
ion      s      p      d    tot
    1  0.000  0.001  0.004  0.005
    2  0.000  0.001  0.005  0.006
    3  0.009  0.001  0.005  0.015
    4  0.000  0.001  0.005  0.006
    5  0.000  0.001  0.011  0.012
    6  0.005  0.001  0.004  0.010
    7  0.009  0.001  0.005  0.015
    8  0.005  0.001  0.004  0.010
    9  0.000  0.000  0.009  0.009
   10  0.000  0.001  0.051  0.052
   11  0.016  0.001  0.020  0.037
   12  0.008  0.002  0.019  0.028
   13  0.016  0.001  0.021  0.038
   14  0.000  0.000  0.049  0.049
   15  0.001  0.001  0.020  0.022
   16  0.008  0.002  0.018  0.028
   17  0.001  0.001  0.020  0.022
   18  0.000  0.002  0.010  0.012
   19  0.007  0.000  0.019  0.027
   20  0.000  0.000  0.066  0.066
   21  0.017  0.001  0.021  0.039
   22  0.002  0.001  0.019  0.022
   23  0.017  0.001  0.021  0.039
   24  0.000  0.001  0.031  0.032
   25  0.000  0.001  0.016  0.017
   26  0.007  0.000  0.019  0.027
   27  0.002  0.001  0.019  0.022
   28  0.000  0.001  0.009  0.010
   29  0.002  0.000  0.004  0.006
   30  0.010  0.001  0.004  0.015
   31  0.001  0.000  0.004  0.006
   32  0.004  0.001  0.004  0.009
   33  0.010  0.001  0.004  0.015
   34  0.004  0.001  0.004  0.009
   35  0.000  0.000  0.004  0.004
   36  0.000  0.002  0.002  0.004
   37  0.000  0.000  0.000  0.000
   38  0.000  0.000  0.000  0.000
   39  0.000  0.000  0.000  0.000
tot    0.163  0.033  0.550  0.745
 
band    18 # energy   -5.81376837 # occ.  2.00000000
 
ion      s      p      d    tot
    1  0.000  0.001  0.004  0.005
    2  0.009  0.001  0.004  0.015
    3  0.001  0.000  0.004  0.006
    4  0.009  0.001  0.004  0.015
    5  0.000  0.001  0.011  0.012
    6  0.004  0.001  0.005  0.011
    7  0.001  0.000  0.004  0.006
    8  0.004  0.001  0.005  0.010
    9  0.000  0.000  0.009  0.009
   10  0.010  0.002  0.008  0.020
   11  0.005  0.000  0.040  0.045
   12  0.003  0.001  0.040  0.044
   13  0.005  0.000  0.039  0.045
   14  0.021  0.001  0.011  0.034
   15  0.000  0.001  0.013  0.015
   16  0.003  0.001  0.041  0.044
   17  0.001  0.001  0.013  0.015
   18  0.002  0.000  0.023  0.025
   19  0.002  0.001  0.017  0.020
   20  0.022  0.002  0.006  0.030
   21  0.006  0.000  0.051  0.057
   22  0.001  0.001  0.027  0.029
   23  0.005  0.000  0.052  0.057
   24  0.003  0.001  0.015  0.018
   25  0.010  0.000  0.020  0.030
   26  0.003  0.001  0.017  0.020
   27  0.001  0.001  0.027  0.029
   28  0.000  0.001  0.009  0.010
   29  0.009  0.001  0.004  0.014
   30  0.000  0.001  0.004  0.005
   31  0.009  0.001  0.004  0.014
   32  0.007  0.001  0.004  0.011
   33  0.000  0.001  0.004  0.005
   34  0.006  0.001  0.004  0.011
   35  0.000  0.000  0.004  0.004
   36  0.000  0.002  0.002  0.004
   37  0.000  0.000  0.000  0.000
   38  0.000  0.000  0.000  0.000
   39  0.000  0.000  0.000  0.000
tot    0.163  0.033  0.550  0.745
 
band    19 # energy   -5.78082581 # occ.  2.00000000
 
ion      s      p      d    tot
    1  0.000  0.001  0.015  0.015
    2  0.010  0.001  0.005  0.016
    3  0.002  0.000  0.005  0.007
    4  0.010  0.001  0.005  0.016
    5  0.000  0.000  0.005  0.005
    6  0.003  0.001  0.006  0.010
    7  0.002  0.000  0.005  0.007
    8  0.003  0.001  0.006  0.010
    9  0.000  0.001  0.008  0.009
   10  0.000  0.001  0.026  0.027
   11  0.001  0.001  0.019  0.022
   12  0.007  0.000  0.022  0.029
   13  0.001  0.001  0.019  0.022
   14  0.000  0.001  0.022  0.024
   15  0.013  0.002  0.021  0.035
   16  0.007  0.000  0.022  0.029
   17  0.013  0.002  0.020  0.035
   18  0.000  0.000  0.065  0.065
   19  0.012  0.001  0.020  0.032
   20  0.000  0.002  0.016  0.018
   21  0.001  0.001  0.021  0.022
   22  0.018  0.001  0.021  0.039
   23  0.001  0.001  0.021  0.022
   24  0.000  0.000  0.037  0.038
   25  0.000  0.000  0.062  0.063
   26  0.012  0.001  0.019  0.032
   27  0.018  0.001  0.021  0.039
   28  0.000  0.001  0.004  0.005
   29  0.006  0.001  0.004  0.011
   30  0.000  0.000  0.004  0.005
   31  0.006  0.001  0.004  0.011
   32  0.003  0.001  0.002  0.006
   33  0.000  0.000  0.004  0.005
   34  0.003  0.001  0.002  0.007
   35  0.000  0.001  0.008  0.009
   36  0.000  0.000  0.001  0.001
   37  0.000  0.000  0.000  0.000
   38  0.000  0.000  0.000  0.000
   39  0.000  0.000  0.000  0.000
tot    0.153  0.030  0.567  0.750
 
band    20 # energy   -5.78080469 # occ.  2.00000000
 
ion      s      p      d    tot
    1  0.000  0.001  0.015  0.015
    2  0.000  0.000  0.006  0.006
    3  0.009  0.001  0.005  0.015
    4  0.000  0.000  0.006  0.006
    5  0.000  0.000  0.005  0.005
    6  0.007  0.001  0.005  0.012
    7  0.009  0.001  0.005  0.015
    8  0.007  0.001  0.005  0.012
    9  0.000  0.001  0.008  0.009
   10  0.009  0.000  0.021  0.030
   11  0.000  0.001  0.021  0.023
   12  0.002  0.001  0.025  0.028
   13  0.000  0.001  0.021  0.023
   14  0.001  0.001  0.018  0.021
   15  0.004  0.001  0.050  0.055
   16  0.002  0.001  0.025  0.028
   17  0.004  0.001  0.050  0.055
   18  0.017  0.002  0.006  0.025
   19  0.004  0.001  0.048  0.053
   20  0.001  0.000  0.022  0.023
   21  0.000  0.001  0.018  0.019
   22  0.006  0.000  0.032  0.038
   23  0.000  0.001  0.018  0.019
   24  0.023  0.001  0.015  0.040
   25  0.015  0.001  0.005  0.022
   26  0.004  0.001  0.048  0.053
   27  0.006  0.000  0.032  0.038
   28  0.000  0.001  0.004  0.005
   29  0.001  0.000  0.003  0.004
   30  0.006  0.001  0.003  0.010
   31  0.001  0.000  0.003  0.004
   32  0.003  0.001  0.005  0.009
   33  0.006  0.001  0.003  0.010
   34  0.003  0.001  0.005  0.009
   35  0.000  0.001  0.008  0.009
   36  0.000  0.000  0.001  0.001
   37  0.000  0.000  0.000  0.000
   38  0.000  0.000  0.000  0.000
   39  0.000  0.000  0.000  0.000