PROCAR new format
# of k-points:   10         # of bands:  252         # of ions:   37

 k-point     1 :    0.00000000 0.00000000 0.00000000     weight = 0.01562500

band     1 # energy  -10.73712106 # occ.  2.00000000
 
ion      s      p      d    tot
    1  0.000  0.000  0.000  0.000
    2  0.000  0.000  0.000  0.000
    3  0.000  0.000  0.000  0.000
    4  0.000  0.000  0.000  0.000
    5  0.000  0.000  0.000  0.000
    6  0.000  0.000  0.000  0.000
    7  0.000  0.000  0.000  0.000
    8  0.000  0.000  0.000  0.000
    9  0.000  0.000  0.000  0.000
   10  0.000  0.000  0.000  0.000
   11  0.000  0.000  0.000  0.000
   12  0.000  0.000  0.000  0.000
   13  0.000  0.000  0.000  0.000
   14  0.000  0.000  0.000  0.000
   15  0.000  0.000  0.000  0.000
   16  0.000  0.000  0.000  0.000
   17  0.000  0.000  0.000  0.000
   18  0.000  0.000  0.000  0.000
   19  0.000  0.000  0.000  0.000
   20  0.000  0.000  0.001  0.001
   21  0.000  0.000  0.001  0.001
   22  0.000  0.000  0.000  0.000
   23  0.000  0.000  0.001  0.001
   24  0.000  0.000  0.000  0.000
   25  0.000  0.000  0.000  0.000
   26  0.000  0.000  0.000  0.000
   27  0.000  0.000  0.000  0.000
   28  0.000  0.000  0.000  0.000
   29  0.000  0.000  0.000  0.000
   30  0.000  0.000  0.000  0.000
   31  0.000  0.000  0.000  0.000
   32  0.000  0.000  0.000  0.000
   33  0.000  0.000  0.000  0.000
   34  0.000  0.000  0.000  0.000
   35  0.000  0.000  0.000  0.000
   36  0.071  0.060  0.130  0.262
   37  0.631  0.008  0.000  0.640
tot    0.705  0.069  0.133  0.907
 
band     2 # energy   -6.50105666 # occ.  2.00000000
 
ion      s      p      d    tot
    1  0.006  0.001  0.000  0.006
    2  0.006  0.001  0.000  0.006
    3  0.006  0.001  0.000  0.006
    4  0.006  0.001  0.000  0.006
    5  0.006  0.001  0.000  0.006
    6  0.006  0.001  0.000  0.006
    7  0.006  0.001  0.000  0.006
    8  0.006  0.001  0.000  0.006
    9  0.006  0.001  0.000  0.006
   10  0.023  0.000  0.000  0.023
   11  0.024  0.000  0.000  0.024
   12  0.023  0.000  0.000  0.023
   13  0.024  0.000  0.000  0.024
   14  0.024  0.000  0.000  0.024
   15  0.022  0.000  0.000  0.022
   16  0.023  0.000  0.000  0.023
   17  0.022  0.000  0.000  0.022
   18  0.022  0.000  0.000  0.022
   19  0.022  0.000  0.000  0.023
   20  0.026  0.000  0.000  0.026
   21  0.026  0.000  0.000  0.026
   22  0.022  0.000  0.000  0.023
   23  0.026  0.000  0.000  0.026
   24  0.022  0.000  0.000  0.023
   25  0.022  0.000  0.000  0.023
   26  0.022  0.000  0.000  0.023
   27  0.022  0.000  0.000  0.023
   28  0.006  0.001  0.000  0.006
   29  0.006  0.001  0.000  0.006
   30  0.006  0.001  0.000  0.006
   31  0.006  0.001  0.000  0.006
   32  0.006  0.001  0.000  0.006
   33  0.006  0.001  0.000  0.006
   34  0.006  0.001  0.000  0.006
   35  0.005  0.001  0.000  0.006
   36  0.008  0.003  0.001  0.011
   37  0.002  0.000  0.000  0.002
tot    0.524  0.015  0.007  0.546
 
band     3 # energy   -5.64194363 # occ.  2.00000000
 
ion      s      p      d    tot
    1  0.008  0.000  0.000  0.009
    2  0.008  0.000  0.000  0.009
    3  0.008  0.000  0.000  0.009
    4  0.008  0.000  0.000  0.009
    5  0.008  0.000  0.000  0.009
    6  0.008  0.000  0.000  0.009
    7  0.008  0.000  0.000  0.009
    8  0.008  0.000  0.000  0.009
    9  0.008  0.000  0.000  0.009
   10  0.012  0.001  0.015  0.028
   11  0.012  0.001  0.015  0.028
   12  0.012  0.001  0.015  0.028
   13  0.012  0.001  0.015  0.028
   14  0.012  0.001  0.015  0.028
   15  0.011  0.001  0.012  0.025
   16  0.012  0.001  0.015  0.028
   17  0.011  0.001  0.012  0.025
   18  0.011  0.001  0.012  0.025
   19  0.010  0.001  0.014  0.025
   20  0.013  0.001  0.020  0.034
   21  0.013  0.001  0.020  0.034
   22  0.010  0.001  0.014  0.025
   23  0.013  0.001  0.020  0.034
   24  0.010  0.001  0.014  0.025
   25  0.010  0.001  0.014  0.025
   26  0.010  0.001  0.014  0.025
   27  0.010  0.001  0.014  0.025
   28  0.007  0.000  0.001  0.008
   29  0.007  0.000  0.001  0.009
   30  0.007  0.000  0.001  0.009
   31  0.007  0.000  0.001  0.009
   32  0.007  0.000  0.001  0.009
   33  0.007  0.000  0.001  0.009
   34  0.007  0.000  0.001  0.009
   35  0.007  0.000  0.000  0.007
   36  0.010  0.002  0.001  0.013
   37  0.002  0.000  0.000  0.002
tot    0.347  0.027  0.281  0.654
 
band     4 # energy   -5.38646146 # occ.  2.00000000
 
ion      s      p      d    tot
    1  0.006  0.000  0.014  0.021
    2  0.007  0.000  0.010  0.017
    3  0.007  0.000  0.010  0.017
    4  0.007  0.000  0.010  0.017
    5  0.007  0.000  0.008  0.015
    6  0.007  0.000  0.010  0.017
    7  0.007  0.000  0.010  0.017
    8  0.007  0.000  0.010  0.017
    9  0.009  0.000  0.008  0.017
   10  0.000  0.000  0.018  0.018
   11  0.000  0.000  0.014  0.014
   12  0.000  0.000  0.018  0.018
   13  0.000  0.000  0.014  0.014
   14  0.000  0.000  0.014  0.014
   15  0.000  0.000  0.009  0.009
   16  0.000  0.000  0.018  0.018
   17  0.000  0.000  0.009  0.009
   18  0.000  0.000  0.009  0.009
   19  0.001  0.000  0.014  0.015
   20  0.000  0.000  0.043  0.044
   21  0.000  0.000  0.043  0.044
   22  0.000  0.000  0.012  0.013
   23  0.000  0.000  0.043  0.044
   24  0.000  0.000  0.012  0.013
   25  0.001  0.000  0.014  0.015
   26  0.001  0.000  0.014  0.015
   27  0.000  0.000  0.012  0.013
   28  0.008  0.000  0.015  0.023
   29  0.012  0.000  0.021  0.034
   30  0.012  0.000  0.021  0.034
   31  0.012  0.000  0.021  0.034
   32  0.012  0.000  0.021  0.034
   33  0.012  0.000  0.021  0.034
   34  0.012  0.000  0.021  0.034
   35  0.010  0.000  0.016  0.026
   36  0.021  0.001  0.011  0.033
   37  0.001  0.000  0.000  0.001
tot    0.187  0.006  0.590  0.784
 
band     5 # energy   -5.26671959 # occ.  2.00000000
 
ion      s      p      d    tot
    1  0.004  0.001  0.001  0.006
    2  0.000  0.000  0.004  0.004
    3  0.000  0.000  0.004  0.004
    4  0.000  0.000  0.004  0.004
    5  0.002  0.000  0.000  0.002
    6  0.000  0.000  0.004  0.004
    7  0.000  0.000  0.004  0.004
    8  0.000  0.000  0.004  0.004
    9  0.001  0.000  0.000  0.001
   10  0.004  0.000  0.024  0.028
   11  0.000  0.000  0.019  0.019
   12  0.004  0.000  0.024  0.028
   13  0.000  0.000  0.019  0.019
   14  0.000  0.000  0.019  0.019
   15  0.004  0.001  0.006  0.010
   16  0.004  0.000  0.024  0.028
   17  0.004  0.001  0.006  0.010
   18  0.004  0.001  0.006  0.010
   19  0.001  0.001  0.035  0.037
   20  0.006  0.000  0.119  0.126
   21  0.006  0.000  0.119  0.126
   22  0.016  0.001  0.012  0.028
   23  0.006  0.000  0.119  0.126
   24  0.016  0.001  0.012  0.028
   25  0.001  0.001  0.035  0.037
   26  0.001  0.001  0.035  0.037
   27  0.016  0.001  0.012  0.028
   28  0.000  0.000  0.001  0.001
   29  0.000  0.000  0.004  0.004
   30  0.000  0.000  0.004  0.004
   31  0.000  0.000  0.004  0.004
   32  0.000  0.000  0.004  0.004
   33  0.000  0.000  0.004  0.004
   34  0.000  0.000  0.004  0.004
   35  0.004  0.001  0.003  0.008
   36  0.004  0.004  0.003  0.011
   37  0.001  0.001  0.000  0.002
tot    0.110  0.016  0.698  0.824
 
band     6 # energy   -5.25112852 # occ.  2.00000000
 
ion      s      p      d    tot
    1  0.000  0.000  0.007  0.007
    2  0.000  0.000  0.002  0.003
    3  0.000  0.000  0.002  0.003
    4  0.000  0.000  0.002  0.002
    5  0.000  0.000  0.004  0.004
    6  0.001  0.000  0.002  0.003
    7  0.000  0.000  0.002  0.002
    8  0.001  0.000  0.002  0.003
    9  0.000  0.000  0.001  0.001
   10  0.007  0.001  0.016  0.023
   11  0.000  0.000  0.025  0.025
   12  0.001  0.001  0.018  0.020
   13  0.000  0.000  0.025  0.025
   14  0.000  0.000  0.025  0.026
   15  0.002  0.000  0.011  0.012
   16  0.003  0.001  0.017  0.021
   17  0.001  0.000  0.011  0.012
   18  0.004  0.001  0.009  0.013
   19  0.008  0.001  0.030  0.039
   20  0.023  0.000  0.013  0.037
   21  0.003  0.000  0.160  0.163
   22  0.000  0.001  0.043  0.044
   23  0.009  0.000  0.114  0.124
   24  0.000  0.000  0.034  0.034
   25  0.021  0.000  0.041  0.062
   26  0.003  0.001  0.026  0.029
   27  0.000  0.001  0.040  0.041
   28  0.000  0.000  0.005  0.005
   29  0.001  0.000  0.003  0.004
   30  0.000  0.000  0.008  0.008
   31  0.001  0.000  0.004  0.005
   32  0.000  0.000  0.006  0.006
   33  0.001  0.000  0.007  0.008
   34  0.000  0.000  0.004  0.004
   35  0.000  0.000  0.000  0.000
   36  0.000  0.001  0.003  0.004
   37  0.000  0.000  0.000  0.000
tot    0.089  0.013  0.721  0.824
 
band     7 # energy   -5.25112577 # occ.  2.00000000
 
ion      s      p      d    tot
    1  0.000  0.000  0.007  0.007
    2  0.000  0.000  0.002  0.003
    3  0.001  0.000  0.002  0.003
    4  0.001  0.000  0.002  0.003
    5  0.000  0.000  0.004  0.004
    6  0.000  0.000  0.002  0.002
    7  0.001  0.000  0.002  0.003
    8  0.000  0.000  0.002  0.002
    9  0.000  0.000  0.001  0.001
   10  0.000  0.001  0.018  0.019
   11  0.000  0.000  0.025  0.026
   12  0.006  0.001  0.016  0.023
   13  0.000  0.000  0.025  0.026
   14  0.000  0.000  0.024  0.025
   15  0.002  0.000  0.010  0.013
   16  0.004  0.001  0.017  0.022
   17  0.003  0.000  0.009  0.013
   18  0.000  0.000  0.012  0.012
   19  0.013  0.001  0.034  0.047
   20  0.001  0.000  0.179  0.179
   21  0.021  0.000  0.032  0.053
   22  0.000  0.000  0.035  0.035
   23  0.014  0.000  0.077  0.092
   24  0.000  0.001  0.044  0.045
   25  0.001  0.001  0.024  0.025
   26  0.018  0.000  0.039  0.057
   27  0.000  0.001  0.038  0.038
   28  0.000  0.000  0.005  0.005
   29  0.000  0.000  0.007  0.008
   30  0.000  0.000  0.003  0.003
   31  0.000  0.000  0.007  0.007
   32  0.001  0.000  0.005  0.006
   33  0.000  0.000  0.003  0.004
   34  0.001  0.001  0.006  0.007
   35  0.000  0.000  0.000  0.000
   36  0.000  0.001  0.003  0.004
   37  0.000  0.000  0.000  0.000
tot    0.089  0.013  0.721  0.824
 
band     8 # energy   -5.23294312 # occ.  2.00000000
 
ion      s      p      d    tot
    1  0.014  0.001  0.001  0.016
    2  0.006  0.000  0.016  0.022
    3  0.006  0.000  0.016  0.022
    4  0.006  0.000  0.016  0.022
    5  0.007  0.000  0.032  0.038
    6  0.006  0.000  0.016  0.022
    7  0.006  0.000  0.016  0.022
    8  0.006  0.000  0.016  0.022
    9  0.001  0.000  0.015  0.017
   10  0.001  0.000  0.028  0.029
   11  0.002  0.000  0.057  0.060
   12  0.001  0.000  0.028  0.029
   13  0.002  0.000  0.057  0.060
   14  0.002  0.000  0.057  0.060
   15  0.007  0.000  0.020  0.027
   16  0.001  0.000  0.028  0.029
   17  0.007  0.000  0.020  0.027
   18  0.007  0.000  0.020  0.027
   19  0.001  0.000  0.005  0.006
   20  0.000  0.000  0.044  0.044
   21  0.000  0.000  0.044  0.044
   22  0.000  0.000  0.005  0.006
   23  0.000  0.000  0.044  0.044
   24  0.000  0.000  0.005  0.006
   25  0.001  0.000  0.005  0.006
   26  0.001  0.000  0.005  0.006
   27  0.000  0.000  0.005  0.006
   28  0.000  0.000  0.001  0.002
   29  0.001  0.000  0.012  0.013
   30  0.001  0.000  0.012  0.013
   31  0.001  0.000  0.012  0.013
   32  0.001  0.000  0.012  0.013
   33  0.001  0.000  0.012  0.013
   34  0.001  0.000  0.012  0.013
   35  0.000  0.000  0.000  0.001
   36  0.012  0.001  0.003  0.017
   37  0.001  0.000  0.000  0.001
tot    0.111  0.008  0.703  0.823
 
band     9 # energy   -5.22941836 # occ.  2.00000000
 
ion      s      p      d    tot
    1  0.000  0.000  0.004  0.004
    2  0.000  0.000  0.002  0.002
    3  0.001  0.000  0.006  0.008
    4  0.000  0.000  0.002  0.002
    5  0.000  0.000  0.009  0.010
    6  0.001  0.001  0.005  0.007
    7  0.001  0.000  0.006  0.007
    8  0.001  0.001  0.005  0.007
    9  0.000  0.000  0.001  0.001
   10  0.007  0.001  0.016  0.024
   11  0.009  0.001  0.070  0.079
   12  0.002  0.000  0.073  0.075
   13  0.007  0.001  0.073  0.081
   14  0.033  0.001  0.014  0.048
   15  0.002  0.001  0.014  0.017
   16  0.002  0.000  0.070  0.072
   17  0.002  0.001  0.012  0.015
   18  0.008  0.000  0.037  0.044
   19  0.000  0.000  0.022  0.023
   20  0.012  0.001  0.041  0.054
   21  0.003  0.001  0.032  0.036
   22  0.003  0.000  0.026  0.029
   23  0.003  0.001  0.032  0.037
   24  0.012  0.001  0.007  0.021
   25  0.000  0.000  0.014  0.015
   26  0.000  0.000  0.023  0.023
   27  0.003  0.000  0.025  0.029
   28  0.000  0.000  0.000  0.000
   29  0.002  0.000  0.004  0.006
   30  0.001  0.000  0.003  0.004
   31  0.002  0.000  0.005  0.006
   32  0.000  0.000  0.002  0.003
   33  0.001  0.000  0.003  0.004
   34  0.000  0.000  0.002  0.003
   35  0.000  0.000  0.006  0.006
   36  0.000  0.000  0.003  0.003
   37  0.000  0.000  0.000  0.000
tot    0.118  0.016  0.673  0.807
 
band    10 # energy   -5.22941340 # occ.  2.00000000
 
ion      s      p      d    tot
    1  0.000  0.000  0.004  0.004
    2  0.002  0.001  0.007  0.009
    3  0.001  0.000  0.003  0.004
    4  0.002  0.001  0.007  0.009
    5  0.000  0.000  0.009  0.010
    6  0.000  0.000  0.004  0.004
    7  0.001  0.000  0.003  0.004
    8  0.000  0.000  0.004  0.004
    9  0.000  0.000  0.001  0.001
   10  0.000  0.000  0.090  0.091
   11  0.024  0.001  0.035  0.059
   12  0.005  0.001  0.033  0.039
   13  0.025  0.001  0.032  0.058
   14  0.000  0.001  0.090  0.091
   15  0.006  0.001  0.028  0.034
   16  0.005  0.001  0.036  0.042
   17  0.006  0.000  0.029  0.036
   18  0.000  0.002  0.005  0.007
   19  0.000  0.000  0.017  0.018
   20  0.000  0.001  0.029  0.030
   21  0.009  0.001  0.038  0.049
   22  0.010  0.001  0.013  0.023
   23  0.009  0.001  0.038  0.047
   24  0.000  0.000  0.032  0.032
   25  0.000  0.000  0.026  0.026
   26  0.000  0.000  0.017  0.017
   27  0.009  0.001  0.014  0.024
   28  0.000  0.000  0.000  0.000
   29  0.000  0.000  0.002  0.003
   30  0.001  0.000  0.004  0.005
   31  0.000  0.000  0.002  0.002
   32  0.001  0.000  0.005  0.006
   33  0.001  0.000  0.003  0.005
   34  0.001  0.000  0.004  0.006
   35  0.000  0.000  0.006  0.006
   36  0.000  0.000  0.003  0.003
   37  0.000  0.000  0.000  0.000
tot    0.118  0.016  0.673  0.807
 
band    11 # energy   -5.21414550 # occ.  2.00000000
 
ion      s      p      d    tot
    1  0.000  0.000  0.001  0.002
    2  0.001  0.000  0.008  0.009
    3  0.001  0.000  0.008  0.009
    4  0.001  0.000  0.008  0.009
    5  0.008  0.001  0.000  0.009
    6  0.001  0.000  0.008  0.009
    7  0.001  0.000  0.008  0.009
    8  0.001  0.000  0.008  0.009
    9  0.000  0.000  0.011  0.011
   10  0.008  0.001  0.010  0.019
   11  0.012  0.001  0.032  0.045
   12  0.008  0.001  0.010  0.019
   13  0.012  0.001  0.032  0.045
   14  0.012  0.001  0.032  0.045
   15  0.003  0.000  0.049  0.052
   16  0.008  0.001  0.010  0.019
   17  0.003  0.000  0.049  0.052
   18  0.003  0.000  0.049  0.052
   19  0.014  0.001  0.023  0.037
   20  0.005  0.001  0.020  0.026
   21  0.005  0.001  0.020  0.026
   22  0.000  0.000  0.040  0.040
   23  0.005  0.001  0.020  0.026
   24  0.000  0.000  0.040  0.040
   25  0.014  0.001  0.023  0.037
   26  0.014  0.001  0.023  0.037
   27  0.000  0.000  0.040  0.040
   28  0.003  0.001  0.004  0.008
   29  0.000  0.000  0.008  0.008
   30  0.000  0.000  0.008  0.008
   31  0.000  0.000  0.008  0.008
   32  0.000  0.000  0.008  0.008
   33  0.000  0.000  0.008  0.008
   34  0.000  0.000  0.008  0.008
   35  0.002  0.000  0.000  0.003
   36  0.001  0.000  0.001  0.002
   37  0.000  0.000  0.000  0.000
tot    0.144  0.018  0.628  0.790
 
band    12 # energy   -5.19463930 # occ.  2.00000000
 
ion      s      p      d    tot
    1  0.002  0.000  0.030  0.033
    2  0.005  0.000  0.014  0.019
    3  0.005  0.000  0.014  0.019
    4  0.005  0.000  0.014  0.019
    5  0.001  0.000  0.005  0.006
    6  0.005  0.000  0.014  0.019
    7  0.005  0.000  0.014  0.019
    8  0.005  0.000  0.014  0.019
    9  0.014  0.000  0.006  0.021
   10  0.004  0.000  0.039  0.043
   11  0.003  0.000  0.019  0.023
   12  0.004  0.000  0.039  0.043
   13  0.003  0.000  0.019  0.023
   14  0.003  0.000  0.019  0.023
   15  0.001  0.000  0.007  0.009
   16  0.004  0.000  0.039  0.043
   17  0.001  0.000  0.007  0.009
   18  0.001  0.000  0.007  0.009
   19  0.000  0.000  0.013  0.014
   20  0.004  0.000  0.011  0.015
   21  0.004  0.000  0.011  0.016
   22  0.002  0.000  0.027  0.028
   23  0.004  0.000  0.011  0.016
   24  0.002  0.000  0.027  0.028
   25  0.000  0.000  0.013  0.014
   26  0.000  0.000  0.013  0.014
   27  0.002  0.000  0.027  0.028
   28  0.017  0.000  0.012  0.029
   29  0.006  0.000  0.020  0.027
   30  0.006  0.000  0.021  0.027
   31  0.006  0.000  0.020  0.027
   32  0.006  0.000  0.020  0.027
   33  0.006  0.000  0.021  0.027
   34  0.006  0.000  0.020  0.027
   35  0.005  0.000  0.026  0.031
   36  0.000  0.000  0.002  0.003
   37  0.000  0.000  0.000  0.000
tot    0.147  0.008  0.638  0.794
 
band    13 # energy   -5.18075090 # occ.  2.00000000
 
ion      s      p      d    tot
    1  0.000  0.001  0.010  0.010
    2  0.004  0.001  0.006  0.012
    3  0.004  0.001  0.005  0.010
    4  0.002  0.001  0.009  0.012
    5  0.000  0.000  0.008  0.008
    6  0.000  0.000  0.009  0.010
    7  0.002  0.000  0.005  0.007
    8  0.000  0.000  0.007  0.007
    9  0.000  0.000  0.009  0.010
   10  0.020  0.000  0.020  0.041
   11  0.000  0.001  0.017  0.017
   12  0.012  0.000  0.034  0.046
   13  0.000  0.000  0.026  0.027
   14  0.000  0.000  0.034  0.035
   15  0.001  0.000  0.088  0.089
   16  0.001  0.001  0.052  0.054
   17  0.008  0.000  0.047  0.055
   18  0.014  0.000  0.014  0.028
   19  0.000  0.000  0.046  0.046
   20  0.001  0.001  0.026  0.028
   21  0.001  0.000  0.023  0.024
   22  0.006  0.000  0.023  0.030
   23  0.000  0.000  0.019  0.019
   24  0.011  0.000  0.014  0.025
   25  0.004  0.000  0.018  0.023
   26  0.002  0.000  0.030  0.033
   27  0.001  0.000  0.035  0.036
   28  0.000  0.000  0.014  0.014
   29  0.000  0.000  0.006  0.007
   30  0.000  0.000  0.005  0.006
   31  0.002  0.001  0.007  0.010
   32  0.004  0.001  0.006  0.011
   33  0.002  0.000  0.005  0.007
   34  0.004  0.001  0.005  0.010
   35  0.000  0.000  0.005  0.005
   36  0.000  0.000  0.002  0.002
   37  0.000  0.000  0.000  0.000
tot    0.111  0.013  0.690  0.814
 
band    14 # energy   -5.18074946 # occ.  2.00000000
 
ion      s      p      d    tot
    1  0.000  0.001  0.010  0.010
    2  0.000  0.000  0.007  0.007
    3  0.000  0.000  0.009  0.010
    4  0.002  0.000  0.005  0.007
    5  0.000  0.000  0.008  0.008
    6  0.004  0.001  0.004  0.009
    7  0.002  0.001  0.009  0.012
    8  0.004  0.001  0.007  0.012
    9  0.000  0.000  0.009  0.010
   10  0.002  0.001  0.051  0.053
   11  0.000  0.000  0.035  0.035
   12  0.010  0.000  0.037  0.047
   13  0.000  0.000  0.025  0.026
   14  0.000  0.001  0.017  0.018
   15  0.015  0.000  0.011  0.026
   16  0.021  0.000  0.019  0.040
   17  0.007  0.000  0.052  0.060
   18  0.001  0.000  0.086  0.087
   19  0.004  0.000  0.017  0.022
   20  0.000  0.000  0.019  0.020
   21  0.001  0.000  0.022  0.024
   22  0.006  0.000  0.025  0.031
   23  0.002  0.001  0.026  0.028
   24  0.001  0.000  0.034  0.036
   25  0.000  0.000  0.045  0.045
   26  0.002  0.000  0.032  0.035
   27  0.011  0.000  0.013  0.025
   28  0.000  0.000  0.014  0.014
   29  0.004  0.001  0.005  0.010
   30  0.004  0.001  0.006  0.011
   31  0.002  0.000  0.005  0.007
   32  0.000  0.000  0.005  0.006
   33  0.002  0.001  0.007  0.009
   34  0.000  0.000  0.006  0.007
   35  0.000  0.000  0.005  0.005
   36  0.000  0.000  0.002  0.002
   37  0.000  0.000  0.000  0.000
tot    0.111  0.013  0.690  0.814
 
band    15 # energy   -5.17530456 # occ.  2.00000000
 
ion      s      p      d    tot
    1  0.002  0.000  0.001  0.004
    2  0.000  0.000  0.007  0.007
    3  0.000  0.000  0.007  0.007
    4  0.000  0.000  0.007  0.007
    5  0.001  0.000  0.000  0.001
    6  0.000  0.000  0.007  0.007
    7  0.000  0.000  0.007  0.007
    8  0.000  0.000  0.007  0.007
    9  0.000  0.000  0.008  0.008
   10  0.000  0.000  0.042  0.043
   11  0.002  0.000  0.004  0.006
   12  0.000  0.000  0.042  0.042
   13  0.002  0.000  0.004  0.006
   14  0.002  0.000  0.004  0.006
   15  0.002  0.000  0.053  0.055
   16  0.000  0.000  0.042  0.042
   17  0.002  0.000  0.053  0.055
   18  0.002  0.000  0.053  0.055
   19  0.004  0.000  0.054  0.058
   20  0.002  0.000  0.015  0.018
   21  0.002  0.000  0.015  0.018
   22  0.000  0.000  0.053  0.053
   23  0.002  0.000  0.015  0.018
   24  0.000  0.000  0.053  0.053
   25  0.004  0.000  0.054  0.058
   26  0.004  0.000  0.054  0.058
   27  0.000  0.000  0.053  0.053
   28  0.000  0.000  0.009  0.010
   29  0.000  0.000  0.012  0.012
   30  0.000  0.000  0.012  0.012
   31  0.000  0.000  0.012  0.012
   32  0.000  0.000  0.012  0.012
   33  0.000  0.000  0.012  0.012
   34  0.000  0.000  0.012  0.012
   35  0.003  0.000  0.006  0.009
   36  0.003  0.001  0.000  0.004
   37  0.000  0.000  0.000  0.000
tot    0.042  0.008  0.801  0.851
 
band    16 # energy   -5.17065688 # occ.  2.00000000
 
ion      s      p      d    tot
    1  0.000  0.000  0.007  0.007
    2  0.001  0.000  0.007  0.008
    3  0.000  0.000  0.007  0.007
    4  0.001  0.000  0.007  0.008
    5  0.000  0.000  0.003  0.003
    6  0.002  0.000  0.004  0.006
    7  0.000  0.000  0.007  0.007
    8  0.002  0.000  0.004  0.006
    9  0.000  0.000  0.015  0.016
   10  0.000  0.000  0.040  0.041
   11  0.001  0.000  0.048  0.048
   12  0.000  0.000  0.016  0.016
   13  0.001  0.000  0.043  0.044
   14  0.003  0.000  0.011  0.014
   15  0.001  0.000  0.056  0.057
   16  0.000  0.000  0.013  0.013
   17  0.001  0.000  0.052  0.054
   18  0.005  0.000  0.025  0.030
   19  0.001  0.000  0.075  0.076
   20  0.000  0.000  0.051  0.051
   21  0.000  0.000  0.024  0.024
   22  0.002  0.000  0.048  0.051
   23  0.000  0.000  0.020  0.020
   24  0.008  0.000  0.033  0.041
   25  0.006  0.000  0.008  0.014
   26  0.002  0.000  0.067  0.069
   27  0.002  0.000  0.050  0.052
   28  0.000  0.000  0.007  0.007
   29  0.001  0.000  0.008  0.009
   30  0.001  0.000  0.004  0.006
   31  0.001  0.000  0.008  0.009
   32  0.000  0.000  0.009  0.009
   33  0.001  0.000  0.004  0.006
   34  0.000  0.000  0.008  0.009
   35  0.000  0.000  0.014  0.014
   36  0.000  0.000  0.001  0.001
   37  0.000  0.000  0.000  0.000
tot    0.042  0.006  0.804  0.852
 
band    17 # energy   -5.17064283 # occ.  2.00000000
 
ion      s      p      d    tot
    1  0.000  0.000  0.007  0.007
    2  0.001  0.000  0.005  0.006
    3  0.002  0.000  0.005  0.007
    4  0.001  0.000  0.005  0.006
    5  0.000  0.000  0.003  0.003
    6  0.000  0.000  0.008  0.008
    7  0.002  0.000  0.006  0.007
    8  0.000  0.000  0.008  0.008
    9  0.000  0.000  0.015  0.016
   10  0.000  0.000  0.006  0.006
   11  0.002  0.000  0.020  0.023
   12  0.000  0.000  0.030  0.030
   13  0.002  0.000  0.025  0.027
   14  0.000  0.000  0.057  0.057
   15  0.004  0.000  0.033  0.037
   16  0.000  0.000  0.033  0.034
   17  0.003  0.000  0.037  0.040
   18  0.000  0.000  0.064  0.064
   19  0.005  0.000  0.025  0.030
   20  0.000  0.000  0.012  0.012
   21  0.000  0.000  0.039  0.040
   22  0.006  0.000  0.039  0.045
   23  0.000  0.000  0.043  0.043
   24  0.000  0.000  0.055  0.055
   25  0.000  0.000  0.092  0.092
   26  0.004  0.000  0.032  0.037
   27  0.006  0.000  0.037  0.044
   28  0.000  0.000  0.007  0.007
   29  0.001  0.000  0.006  0.007
   30  0.000  0.000  0.010  0.010
   31  0.001  0.000  0.005  0.006
   32  0.001  0.000  0.005  0.007
   33  0.000  0.000  0.010  0.010
   34  0.001  0.000  0.005  0.007
   35  0.000  0.000  0.014  0.014
   36  0.000  0.000  0.001  0.001
   37  0.000  0.000  0.000  0.000
tot    0.042  0.006  0.804  0.852
 
band    18 # energy   -5.04613801 # occ.  2.00000000
 
ion      s      p      d    tot
    1  0.000  0.000  0.001  0.001
    2  0.001  0.001  0.006  0.008
    3  0.000  0.000  0.007  0.008
    4  0.001  0.001  0.006  0.008
    5  0.000  0.001  0.016  0.017
    6  0.001  0.000  0.006  0.007
    7  0.000  0.000  0.007  0.008
    8  0.001  0.000  0.005  0.007
    9  0.000  0.000  0.008  0.009
   10  0.001  0.001  0.021  0.022
   11  0.001  0.000  0.073  0.074
   12  0.000  0.000  0.025  0.025
   13  0.001  0.000  0.075  0.076
   14  0.003  0.000  0.047  0.050
   15  0.001  0.000  0.011  0.012
   16  0.000  0.000  0.024  0.025
   17  0.001  0.000  0.010  0.011
   18  0.003  0.001  0.027  0.030
   19  0.001  0.000  0.010  0.011
   20  0.003  0.000  0.064  0.067
   21  0.001  0.000  0.104  0.105
   22  0.000  0.000  0.026  0.027
   23  0.001  0.000  0.101  0.102
   24  0.000  0.001  0.021  0.022
   25  0.002  0.001  0.028  0.031
   26  0.000  0.000  0.009  0.010
   27  0.000  0.000  0.026  0.026
   28  0.000  0.000  0.006  0.007
   29  0.001  0.000  0.006  0.007
   30  0.000  0.000  0.009  0.009
   31  0.001  0.000  0.006  0.007
   32  0.001  0.001  0.008  0.010
   33  0.000  0.000  0.008  0.009
   34  0.001  0.001  0.008  0.010
   35  0.000  0.000  0.001  0.001
   36  0.000  0.002  0.005  0.007
   37  0.000  0.000  0.000  0.000
tot    0.025  0.016  0.824  0.866
 
band    19 # energy   -5.04612886 # occ.  2.00000000
 
ion      s      p      d    tot
    1  0.000  0.000  0.001  0.001
    2  0.000  0.000  0.007  0.007
    3  0.001  0.001  0.005  0.007
    4  0.000  0.000  0.007  0.007
    5  0.000  0.001  0.016  0.017
    6  0.000  0.000  0.007  0.008
    7  0.001  0.001  0.005  0.007
    8  0.000  0.000  0.007  0.008
    9  0.000  0.000  0.008  0.009
   10  0.000  0.000  0.026  0.026
   11  0.002  0.000  0.057  0.059
   12  0.001  0.001  0.022  0.023
   13  0.002  0.000  0.055  0.058
   14  0.000  0.000  0.083  0.083
   15  0.002  0.001  0.021  0.023
   16  0.000  0.001  0.022  0.023
   17  0.002  0.001  0.022  0.025
   18  0.000  0.000  0.005  0.005
   19  0.001  0.001  0.021  0.024
   20  0.000  0.000  0.116  0.116
   21  0.002  0.000  0.076  0.078
   22  0.000  0.001  0.023  0.024
   23  0.002  0.000  0.078  0.080
   24  0.000  0.000  0.028  0.028
   25  0.000  0.000  0.003  0.003
   26  0.002  0.001  0.023  0.025
   27  0.000  0.001  0.023  0.024
   28  0.000  0.000  0.006  0.007
   29  0.001  0.001  0.009  0.010
   30  0.001  0.001  0.007  0.009
   31  0.001  0.001  0.009  0.011
   32  0.000  0.000  0.007  0.007
   33  0.001  0.001  0.007  0.009
   34  0.000  0.000  0.007  0.007
   35  0.000  0.000  0.001  0.001
   36  0.000  0.002  0.005  0.007
   37  0.000  0.000  0.000  0.000
tot    0.025  0.016  0.824  0.866
 
band    20 # energy   -5.03773808 # occ.  2.00000000
 
ion      s      p      d    tot
    1  0.000  0.000  0.000  0.001
    2  0.000  0.000  0.004  0.004
    3  0.000  0.000  0.004  0.004
    4  0.000  0.000  0.004  0.004
    5  0.001  0.001  0.015  0.017
    6  0.000  0.000  0.004  0.004
    7  0.000  0.000  0.004  0.004
    8  0.000  0.000  0.004  0.004
    9  0.002  0.001  0.006  0.008
   10  0.000  0.000  0.013  0.013
   11  0.000  0.001  0.081  0.082
   12  0.000  0.000  0.013  0.013
   13  0.000  0.001  0.081  0.082
   14  0.000  0.001  0.081  0.082
   15  0.000  0.000  0.035  0.036
   16  0.000  0.000  0.013  0.013
   17  0.000  0.000  0.035  0.036
   18  0.000  0.000  0.035  0.036
   19  0.000  0.000  0.018  0.019
   20  0.001  0.000  0.070  0.072
   21  0.001  0.000  0.070  0.072
   22  0.002  0.000  0.020  0.022
   23  0.001  0.000  0.070  0.072
   24  0.002  0.000  0.020  0.022
   25  0.000  0.000  0.018  0.019
   26  0.000  0.000  0.018  0.019
   27  0.002  0.000  0.020  0.022
   28  0.004  0.001  0.001  0.006
   29  0.000  0.000  0.011  0.012
   30  0.000  0.000  0.011  0.012
   31  0.000  0.000  0.011  0.012
   32  0.000  0.000  0.011  0.012
   33  0.000  0.000  0.011  0.012
   34  0.000  0.000  0.011  0.012
   35  0.004  0.001  0.001  0.005
   36  0.001  0.001  0.001  0.003
   37  0.000  0.000  0.000  0.001
tot    0.023  0.014  0.832  0.869
 
band    21 # energy   -5.01009577 # occ.  2.00000000
 
ion      s      p      d    tot
    1  0.000  0.000  0.003  0.003
    2  0.000  0.001  0.014  0.015
    3  0.000  0.001  0.014  0.015
    4  0.000  0.001  0.014  0.015
    5  0.006  0.001  0.000  0.007
    6  0.000  0.001  0.014  0.015
    7  0.000  0.001  0.014  0.015
    8  0.000  0.001  0.014  0.015
    9  0.003  0.000  0.002  0.005
   10  0.002  0.001  0.043  0.046
   11  0.000  0.000  0.023  0.024
   12  0.002  0.001  0.043  0.046
   13  0.000  0.000  0.023  0.024
   14  0.000  0.000  0.023  0.024
   15  0.004  0.000  0.021  0.026
   16  0.002  0.001  0.043  0.046
   17  0.004  0.000  0.021  0.026
   18  0.004  0.000  0.021  0.026
   19  0.001  0.000  0.053  0.054
   20  0.000  0.000  0.015  0.015
   21  0.000  0.000  0.015  0.015
   22  0.001  0.001  0.043  0.045
   23  0.000  0.000  0.015  0.015
   24  0.001  0.001  0.043  0.045
   25  0.001  0.000  0.053  0.054
   26  0.001  0.000  0.053  0.054
   27  0.001  0.001  0.043  0.045
   28  0.002  0.000  0.021  0.023
   29  0.000  0.000  0.014  0.014
   30  0.000  0.000  0.014  0.014
   31  0.000  0.000  0.014  0.014
   32  0.000  0.000  0.014  0.014
   33  0.000  0.000  0.014  0.014
   34  0.000  0.000  0.014  0.014
   35  0.004  0.001  0.002  0.006
   36  0.004  0.001  0.000  0.005