PROCAR new format
# of k-points:   10         # of bands:  252         # of ions:   37

 k-point     1 :    0.00000000 0.00000000 0.00000000     weight = 0.01562500

band     1 # energy  -17.33812135 # occ.  2.00000000
 
ion      s      p      d    tot
    1  0.000  0.000  0.000  0.000
    2  0.000  0.000  0.000  0.000
    3  0.000  0.000  0.000  0.000
    4  0.000  0.000  0.000  0.000
    5  0.000  0.000  0.000  0.000
    6  0.000  0.000  0.000  0.000
    7  0.000  0.000  0.000  0.000
    8  0.000  0.000  0.000  0.000
    9  0.000  0.000  0.000  0.000
   10  0.000  0.000  0.000  0.000
   11  0.000  0.000  0.000  0.000
   12  0.000  0.000  0.000  0.000
   13  0.000  0.000  0.000  0.000
   14  0.000  0.000  0.000  0.000
   15  0.000  0.000  0.000  0.000
   16  0.000  0.000  0.000  0.000
   17  0.000  0.000  0.000  0.000
   18  0.000  0.000  0.000  0.000
   19  0.000  0.000  0.000  0.000
   20  0.000  0.000  0.000  0.000
   21  0.000  0.000  0.000  0.000
   22  0.000  0.000  0.000  0.000
   23  0.000  0.000  0.000  0.000
   24  0.000  0.000  0.000  0.000
   25  0.000  0.000  0.000  0.000
   26  0.000  0.000  0.000  0.000
   27  0.000  0.000  0.000  0.000
   28  0.000  0.000  0.000  0.000
   29  0.000  0.000  0.000  0.000
   30  0.000  0.000  0.000  0.000
   31  0.000  0.000  0.000  0.000
   32  0.000  0.000  0.000  0.000
   33  0.000  0.000  0.000  0.000
   34  0.000  0.000  0.000  0.000
   35  0.000  0.000  0.000  0.000
   36  0.035  0.043  0.044  0.121
   37  0.767  0.011  0.000  0.778
tot    0.802  0.054  0.044  0.900
 
band     2 # energy   -8.86629023 # occ.  2.00000000
 
ion      s      p      d    tot
    1  0.007  0.001  0.000  0.007
    2  0.007  0.001  0.000  0.007
    3  0.007  0.001  0.000  0.007
    4  0.007  0.001  0.000  0.007
    5  0.006  0.001  0.000  0.007
    6  0.007  0.001  0.000  0.007
    7  0.007  0.001  0.000  0.007
    8  0.007  0.001  0.000  0.007
    9  0.007  0.001  0.000  0.007
   10  0.024  0.000  0.000  0.025
   11  0.025  0.000  0.000  0.025
   12  0.024  0.000  0.000  0.025
   13  0.025  0.000  0.000  0.025
   14  0.025  0.000  0.000  0.025
   15  0.025  0.000  0.000  0.025
   16  0.024  0.000  0.000  0.025
   17  0.025  0.000  0.000  0.025
   18  0.025  0.000  0.000  0.025
   19  0.025  0.000  0.000  0.025
   20  0.025  0.000  0.000  0.025
   21  0.025  0.000  0.000  0.025
   22  0.025  0.000  0.000  0.025
   23  0.025  0.000  0.000  0.025
   24  0.025  0.000  0.000  0.025
   25  0.025  0.000  0.000  0.025
   26  0.025  0.000  0.000  0.025
   27  0.025  0.000  0.000  0.025
   28  0.007  0.001  0.000  0.007
   29  0.007  0.001  0.000  0.007
   30  0.007  0.001  0.000  0.007
   31  0.007  0.001  0.000  0.007
   32  0.007  0.001  0.000  0.007
   33  0.007  0.001  0.000  0.007
   34  0.007  0.001  0.000  0.007
   35  0.007  0.001  0.000  0.008
   36  0.007  0.001  0.000  0.008
   37  0.001  0.000  0.000  0.001
tot    0.565  0.017  0.001  0.583
 
band     3 # energy   -7.54810634 # occ.  2.00000000
 
ion      s      p      d    tot
    1  0.019  0.001  0.001  0.020
    2  0.018  0.001  0.001  0.020
    3  0.018  0.001  0.001  0.020
    4  0.018  0.001  0.001  0.020
    5  0.018  0.001  0.001  0.020
    6  0.018  0.001  0.001  0.020
    7  0.018  0.001  0.001  0.020
    8  0.018  0.001  0.001  0.020
    9  0.019  0.001  0.001  0.020
   10  0.010  0.002  0.001  0.013
   11  0.010  0.002  0.001  0.013
   12  0.010  0.002  0.001  0.013
   13  0.010  0.002  0.001  0.013
   14  0.010  0.002  0.001  0.013
   15  0.010  0.002  0.001  0.013
   16  0.010  0.002  0.001  0.013
   17  0.010  0.002  0.001  0.013
   18  0.010  0.002  0.001  0.013
   19  0.011  0.002  0.001  0.013
   20  0.010  0.002  0.001  0.013
   21  0.010  0.002  0.001  0.013
   22  0.011  0.002  0.001  0.014
   23  0.010  0.002  0.001  0.013
   24  0.011  0.002  0.001  0.014
   25  0.011  0.002  0.001  0.013
   26  0.011  0.002  0.001  0.013
   27  0.011  0.002  0.001  0.014
   28  0.018  0.001  0.000  0.019
   29  0.017  0.001  0.000  0.018
   30  0.017  0.001  0.000  0.018
   31  0.017  0.001  0.000  0.018
   32  0.017  0.001  0.000  0.018
   33  0.017  0.001  0.000  0.018
   34  0.017  0.001  0.000  0.018
   35  0.018  0.001  0.000  0.019
   36  0.016  0.001  0.001  0.019
   37  0.001  0.001  0.000  0.002
tot    0.507  0.057  0.019  0.584
 
band     4 # energy   -5.89386508 # occ.  2.00000000
 
ion      s      p      d    tot
    1  0.011  0.000  0.004  0.015
    2  0.009  0.001  0.005  0.015
    3  0.009  0.001  0.005  0.015
    4  0.009  0.001  0.005  0.015
    5  0.000  0.002  0.006  0.007
    6  0.009  0.001  0.005  0.015
    7  0.009  0.001  0.005  0.015
    8  0.009  0.001  0.005  0.015
    9  0.028  0.001  0.001  0.030
   10  0.002  0.003  0.005  0.010
   11  0.023  0.007  0.001  0.031
   12  0.002  0.003  0.005  0.010
   13  0.023  0.007  0.001  0.031
   14  0.023  0.007  0.001  0.031
   15  0.003  0.002  0.008  0.012
   16  0.002  0.003  0.005  0.010
   17  0.003  0.002  0.008  0.012
   18  0.003  0.002  0.008  0.012
   19  0.000  0.002  0.008  0.010
   20  0.029  0.006  0.002  0.038
   21  0.029  0.006  0.002  0.037
   22  0.001  0.005  0.004  0.010
   23  0.029  0.006  0.002  0.037
   24  0.001  0.005  0.004  0.010
   25  0.000  0.002  0.008  0.010
   26  0.000  0.002  0.008  0.010
   27  0.001  0.005  0.004  0.010
   28  0.017  0.000  0.002  0.019
   29  0.009  0.001  0.006  0.016
   30  0.009  0.001  0.006  0.016
   31  0.009  0.001  0.006  0.016
   32  0.009  0.001  0.006  0.016
   33  0.009  0.001  0.006  0.016
   34  0.009  0.001  0.006  0.016
   35  0.028  0.001  0.002  0.031
   36  0.001  0.002  0.013  0.016
   37  0.000  0.001  0.000  0.001
tot    0.366  0.091  0.178  0.634
 
band     5 # energy   -5.87434781 # occ.  2.00000000
 
ion      s      p      d    tot
    1  0.000  0.001  0.004  0.005
    2  0.010  0.002  0.002  0.014
    3  0.004  0.001  0.002  0.007
    4  0.001  0.001  0.002  0.004
    5  0.000  0.003  0.005  0.008
    6  0.002  0.001  0.002  0.006
    7  0.002  0.001  0.002  0.005
    8  0.009  0.002  0.002  0.014
    9  0.000  0.001  0.002  0.003
   10  0.024  0.003  0.006  0.033
   11  0.044  0.003  0.006  0.054
   12  0.000  0.000  0.015  0.016
   13  0.000  0.008  0.009  0.017
   14  0.037  0.004  0.007  0.048
   15  0.002  0.003  0.005  0.009
   16  0.028  0.004  0.005  0.036
   17  0.000  0.011  0.003  0.014
   18  0.002  0.004  0.005  0.010
   19  0.002  0.003  0.005  0.010
   20  0.041  0.004  0.007  0.053
   21  0.000  0.008  0.010  0.018
   22  0.000  0.000  0.017  0.017
   23  0.048  0.003  0.007  0.059
   24  0.025  0.003  0.007  0.035
   25  0.002  0.004  0.005  0.011
   26  0.000  0.012  0.002  0.015
   27  0.030  0.004  0.005  0.039
   28  0.000  0.001  0.003  0.003
   29  0.012  0.003  0.003  0.017
   30  0.003  0.001  0.002  0.006
   31  0.003  0.002  0.003  0.007
   32  0.002  0.001  0.002  0.005
   33  0.005  0.002  0.003  0.009
   34  0.012  0.003  0.003  0.017
   35  0.000  0.001  0.005  0.006
   36  0.000  0.005  0.006  0.011
   37  0.000  0.000  0.000  0.000
tot    0.348  0.118  0.176  0.642
 
band     6 # energy   -5.87434382 # occ.  2.00000000
 
ion      s      p      d    tot
    1  0.000  0.001  0.004  0.005
    2  0.000  0.001  0.002  0.003
    3  0.006  0.002  0.002  0.009
    4  0.008  0.002  0.002  0.013
    5  0.000  0.003  0.005  0.008
    6  0.007  0.002  0.002  0.011
    7  0.007  0.002  0.002  0.011
    8  0.000  0.001  0.002  0.003
    9  0.000  0.001  0.002  0.003
   10  0.011  0.002  0.011  0.023
   11  0.011  0.007  0.008  0.026
   12  0.034  0.005  0.002  0.041
   13  0.054  0.002  0.006  0.062
   14  0.017  0.006  0.008  0.031
   15  0.000  0.009  0.003  0.013
   16  0.006  0.001  0.013  0.020
   17  0.002  0.001  0.005  0.008
   18  0.001  0.008  0.004  0.012
   19  0.000  0.010  0.003  0.014
   20  0.019  0.007  0.008  0.034
   21  0.059  0.002  0.006  0.068
   22  0.037  0.005  0.002  0.044
   23  0.011  0.007  0.009  0.028
   24  0.011  0.002  0.012  0.025
   25  0.001  0.009  0.004  0.013
   26  0.003  0.001  0.006  0.009
   27  0.007  0.001  0.014  0.022
   28  0.000  0.001  0.003  0.003
   29  0.000  0.001  0.002  0.004
   30  0.009  0.002  0.003  0.014
   31  0.009  0.002  0.002  0.014
   32  0.010  0.003  0.003  0.016
   33  0.007  0.002  0.002  0.012
   34  0.000  0.001  0.002  0.003
   35  0.000  0.001  0.005  0.006
   36  0.000  0.005  0.006  0.011
   37  0.000  0.000  0.000  0.000
tot    0.348  0.118  0.176  0.642
 
band     7 # energy   -5.86373307 # occ.  2.00000000
 
ion      s      p      d    tot
    1  0.025  0.002  0.000  0.027
    2  0.002  0.002  0.004  0.008
    3  0.002  0.001  0.004  0.008
    4  0.002  0.002  0.004  0.008
    5  0.002  0.000  0.001  0.003
    6  0.002  0.001  0.004  0.008
    7  0.002  0.001  0.004  0.008
    8  0.002  0.001  0.004  0.008
    9  0.005  0.002  0.002  0.010
   10  0.018  0.003  0.009  0.029
   11  0.002  0.002  0.009  0.013
   12  0.017  0.003  0.009  0.028
   13  0.002  0.002  0.009  0.013
   14  0.002  0.002  0.009  0.013
   15  0.024  0.009  0.001  0.034
   16  0.017  0.003  0.009  0.028
   17  0.024  0.009  0.001  0.034
   18  0.025  0.009  0.001  0.035
   19  0.010  0.008  0.003  0.022
   20  0.001  0.001  0.011  0.013
   21  0.001  0.001  0.011  0.013
   22  0.034  0.005  0.006  0.044
   23  0.001  0.001  0.011  0.013
   24  0.033  0.005  0.006  0.044
   25  0.010  0.008  0.003  0.021
   26  0.010  0.008  0.003  0.021
   27  0.033  0.005  0.006  0.044
   28  0.024  0.002  0.000  0.026
   29  0.002  0.002  0.004  0.008
   30  0.002  0.002  0.004  0.008
   31  0.002  0.002  0.004  0.008
   32  0.002  0.002  0.004  0.008
   33  0.002  0.002  0.004  0.008
   34  0.002  0.002  0.004  0.008
   35  0.007  0.003  0.004  0.014
   36  0.004  0.000  0.000  0.004
   37  0.000  0.001  0.000  0.001
tot    0.351  0.111  0.176  0.639
 
band     8 # energy   -5.85762972 # occ.  2.00000000
 
ion      s      p      d    tot
    1  0.000  0.002  0.004  0.006
    2  0.004  0.002  0.002  0.008
    3  0.010  0.002  0.002  0.015
    4  0.002  0.001  0.002  0.005
    5  0.000  0.000  0.003  0.003
    6  0.001  0.001  0.002  0.004
    7  0.010  0.002  0.002  0.014
    8  0.003  0.001  0.002  0.006
    9  0.000  0.003  0.006  0.008
   10  0.026  0.001  0.007  0.033
   11  0.001  0.005  0.008  0.014
   12  0.010  0.008  0.004  0.023
   13  0.002  0.004  0.007  0.014
   14  0.006  0.003  0.003  0.013
   15  0.009  0.002  0.014  0.025
   16  0.004  0.011  0.003  0.019
   17  0.023  0.003  0.011  0.037
   18  0.058  0.005  0.004  0.066
   19  0.009  0.002  0.015  0.025
   20  0.006  0.003  0.003  0.013
   21  0.002  0.005  0.007  0.014
   22  0.011  0.009  0.004  0.023
   23  0.001  0.005  0.009  0.015
   24  0.029  0.001  0.007  0.036
   25  0.060  0.004  0.004  0.068
   26  0.023  0.003  0.012  0.037
   27  0.004  0.012  0.003  0.019
   28  0.000  0.003  0.006  0.009
   29  0.003  0.001  0.002  0.006
   30  0.010  0.002  0.002  0.015
   31  0.001  0.001  0.002  0.004
   32  0.002  0.001  0.002  0.006
   33  0.010  0.003  0.002  0.016
   34  0.005  0.002  0.003  0.009
   35  0.000  0.003  0.004  0.006
   36  0.000  0.000  0.003  0.003
   37  0.000  0.000  0.000  0.000
tot    0.346  0.116  0.177  0.640
 
band     9 # energy   -5.85761988 # occ.  2.00000000
 
ion      s      p      d    tot
    1  0.000  0.002  0.004  0.006
    2  0.005  0.002  0.002  0.009
    3  0.000  0.001  0.002  0.003
    4  0.008  0.002  0.002  0.012
    5  0.000  0.000  0.003  0.003
    6  0.009  0.002  0.002  0.014
    7  0.000  0.001  0.002  0.003
    8  0.007  0.002  0.002  0.011
    9  0.000  0.003  0.006  0.008
   10  0.000  0.013  0.003  0.016
   11  0.005  0.003  0.004  0.013
   12  0.017  0.005  0.005  0.027
   13  0.004  0.004  0.006  0.013
   14  0.000  0.005  0.009  0.015
   15  0.051  0.004  0.005  0.061
   16  0.023  0.002  0.006  0.032
   17  0.037  0.003  0.008  0.049
   18  0.001  0.002  0.016  0.019
   19  0.053  0.004  0.005  0.062
   20  0.000  0.006  0.010  0.015
   21  0.004  0.004  0.006  0.014
   22  0.018  0.005  0.005  0.028
   23  0.006  0.003  0.004  0.013
   24  0.001  0.013  0.003  0.017
   25  0.001  0.002  0.016  0.019
   26  0.038  0.003  0.008  0.050
   27  0.024  0.002  0.006  0.033
   28  0.000  0.003  0.006  0.009
   29  0.007  0.002  0.003  0.012
   30  0.001  0.001  0.002  0.004
   31  0.009  0.002  0.003  0.014
   32  0.008  0.002  0.002  0.013
   33  0.000  0.001  0.002  0.003
   34  0.006  0.002  0.002  0.010
   35  0.000  0.003  0.004  0.006
   36  0.000  0.000  0.003  0.003
   37  0.000  0.000  0.000  0.000
tot    0.346  0.116  0.177  0.640
 
band    10 # energy   -5.84767649 # occ.  2.00000000
 
ion      s      p      d    tot
    1  0.000  0.001  0.004  0.006
    2  0.007  0.001  0.005  0.013
    3  0.007  0.001  0.005  0.013
    4  0.007  0.001  0.005  0.013
    5  0.036  0.002  0.001  0.039
    6  0.007  0.001  0.005  0.013
    7  0.007  0.001  0.005  0.013
    8  0.007  0.001  0.005  0.013
    9  0.003  0.000  0.005  0.008
   10  0.017  0.007  0.002  0.026
   11  0.009  0.004  0.007  0.020
   12  0.017  0.007  0.002  0.026
   13  0.009  0.004  0.007  0.020
   14  0.009  0.004  0.007  0.020
   15  0.009  0.002  0.008  0.019
   16  0.017  0.007  0.002  0.026
   17  0.009  0.002  0.008  0.019
   18  0.009  0.002  0.008  0.019
   19  0.024  0.004  0.005  0.033
   20  0.007  0.006  0.003  0.017
   21  0.007  0.006  0.003  0.017
   22  0.001  0.003  0.007  0.011
   23  0.007  0.006  0.003  0.017
   24  0.001  0.003  0.007  0.011
   25  0.025  0.004  0.005  0.034
   26  0.024  0.004  0.005  0.033
   27  0.001  0.003  0.007  0.011
   28  0.000  0.002  0.006  0.007
   29  0.007  0.001  0.005  0.013
   30  0.007  0.001  0.005  0.013
   31  0.007  0.001  0.005  0.013
   32  0.007  0.001  0.005  0.013
   33  0.007  0.001  0.005  0.013
   34  0.007  0.001  0.005  0.013
   35  0.006  0.000  0.002  0.008
   36  0.034  0.002  0.001  0.036
   37  0.002  0.005  0.000  0.007
tot    0.365  0.101  0.179  0.644
 
band    11 # energy   -5.12032935 # occ.  2.00000000
 
ion      s      p      d    tot
    1  0.014  0.000  0.003  0.016
    2  0.002  0.002  0.009  0.013
    3  0.002  0.002  0.009  0.013
    4  0.002  0.002  0.009  0.013
    5  0.017  0.005  0.005  0.026
    6  0.002  0.002  0.009  0.013
    7  0.002  0.002  0.009  0.013
    8  0.002  0.002  0.009  0.013
    9  0.017  0.000  0.001  0.019
   10  0.001  0.001  0.021  0.022
   11  0.018  0.003  0.013  0.035
   12  0.001  0.001  0.021  0.022
   13  0.018  0.003  0.013  0.035
   14  0.018  0.003  0.013  0.035
   15  0.001  0.001  0.014  0.015
   16  0.001  0.001  0.021  0.022
   17  0.001  0.001  0.014  0.015
   18  0.001  0.001  0.014  0.015
   19  0.000  0.001  0.011  0.011
   20  0.014  0.004  0.020  0.038
   21  0.014  0.004  0.020  0.038
   22  0.000  0.001  0.021  0.021
   23  0.014  0.004  0.020  0.038
   24  0.000  0.001  0.021  0.021
   25  0.000  0.001  0.011  0.011
   26  0.000  0.001  0.011  0.011
   27  0.000  0.001  0.021  0.021
   28  0.011  0.000  0.001  0.012
   29  0.001  0.002  0.008  0.011
   30  0.001  0.002  0.008  0.011
   31  0.001  0.002  0.008  0.011
   32  0.001  0.002  0.008  0.011
   33  0.001  0.002  0.008  0.011
   34  0.001  0.002  0.008  0.011
   35  0.016  0.000  0.002  0.018
   36  0.026  0.003  0.025  0.054
   37  0.002  0.020  0.000  0.022
tot    0.221  0.083  0.438  0.742
 
band    12 # energy   -5.09743367 # occ.  2.00000000
 
ion      s      p      d    tot
    1  0.000  0.002  0.010  0.012
    2  0.005  0.002  0.005  0.013
    3  0.021  0.004  0.005  0.031
    4  0.003  0.002  0.005  0.011
    5  0.000  0.006  0.009  0.015
    6  0.006  0.002  0.005  0.013
    7  0.022  0.004  0.005  0.031
    8  0.008  0.002  0.005  0.015
    9  0.000  0.001  0.012  0.013
   10  0.000  0.001  0.017  0.018
   11  0.017  0.004  0.009  0.030
   12  0.010  0.003  0.011  0.024
   13  0.015  0.003  0.011  0.030
   14  0.000  0.002  0.026  0.028
   15  0.001  0.001  0.010  0.012
   16  0.011  0.003  0.010  0.024
   17  0.001  0.001  0.011  0.013
   18  0.000  0.004  0.018  0.022
   19  0.001  0.001  0.010  0.012
   20  0.000  0.001  0.029  0.030
   21  0.013  0.004  0.012  0.029
   22  0.007  0.003  0.011  0.021
   23  0.014  0.004  0.010  0.029
   24  0.000  0.001  0.013  0.014
   25  0.000  0.003  0.023  0.026
   26  0.001  0.001  0.012  0.014
   27  0.008  0.003  0.011  0.022
   28  0.000  0.002  0.012  0.014
   29  0.007  0.002  0.005  0.014
   30  0.022  0.004  0.005  0.031
   31  0.005  0.002  0.005  0.012
   32  0.005  0.002  0.005  0.012
   33  0.022  0.004  0.005  0.031
   34  0.007  0.002  0.005  0.014
   35  0.000  0.001  0.010  0.011
   36  0.000  0.009  0.005  0.013
   37  0.000  0.001  0.000  0.001
tot    0.231  0.099  0.374  0.704
 
band    13 # energy   -5.09741694 # occ.  2.00000000
 
ion      s      p      d    tot
    1  0.000  0.002  0.010  0.012
    2  0.017  0.003  0.005  0.025
    3  0.000  0.002  0.005  0.007
    4  0.018  0.003  0.005  0.027
    5  0.000  0.006  0.009  0.015
    6  0.016  0.003  0.005  0.025
    7  0.000  0.002  0.005  0.007
    8  0.014  0.003  0.005  0.022
    9  0.000  0.001  0.012  0.013
   10  0.014  0.004  0.008  0.026
   11  0.005  0.002  0.022  0.028
   12  0.004  0.002  0.015  0.020
   13  0.006  0.002  0.020  0.029
   14  0.022  0.004  0.005  0.031
   15  0.000  0.003  0.016  0.020
   16  0.003  0.001  0.015  0.020
   17  0.000  0.003  0.015  0.018
   18  0.001  0.000  0.008  0.009
   19  0.000  0.003  0.019  0.022
   20  0.018  0.005  0.005  0.028
   21  0.005  0.002  0.022  0.029
   22  0.003  0.002  0.012  0.017
   23  0.004  0.002  0.024  0.029
   24  0.009  0.004  0.010  0.024
   25  0.001  0.000  0.007  0.009
   26  0.000  0.002  0.018  0.021
   27  0.002  0.001  0.013  0.016
   28  0.000  0.002  0.012  0.014
   29  0.016  0.003  0.005  0.024
   30  0.000  0.002  0.005  0.007
   31  0.018  0.003  0.005  0.026
   32  0.018  0.003  0.005  0.026
   33  0.000  0.002  0.005  0.007
   34  0.016  0.003  0.005  0.024
   35  0.000  0.001  0.010  0.011
   36  0.000  0.009  0.005  0.013
   37  0.000  0.001  0.000  0.001
tot    0.231  0.099  0.374  0.704
 
band    14 # energy   -5.08720272 # occ.  2.00000000
 
ion      s      p      d    tot
    1  0.033  0.003  0.000  0.037
    2  0.000  0.003  0.010  0.014
    3  0.000  0.003  0.010  0.013
    4  0.000  0.003  0.010  0.014
    5  0.000  0.000  0.000  0.000
    6  0.000  0.003  0.010  0.014
    7  0.000  0.003  0.010  0.013
    8  0.000  0.003  0.010  0.014
    9  0.032  0.004  0.000  0.036
   10  0.010  0.004  0.010  0.024
   11  0.001  0.000  0.015  0.016
   12  0.010  0.004  0.010  0.024
   13  0.001  0.000  0.015  0.016
   14  0.001  0.000  0.015  0.016
   15  0.006  0.004  0.018  0.028
   16  0.010  0.004  0.010  0.024
   17  0.006  0.004  0.018  0.028
   18  0.007  0.004  0.017  0.028
   19  0.005  0.004  0.019  0.028
   20  0.000  0.000  0.015  0.015
   21  0.000  0.000  0.015  0.015
   22  0.010  0.004  0.010  0.024
   23  0.000  0.000  0.015  0.015
   24  0.010  0.004  0.010  0.024
   25  0.005  0.004  0.019  0.027
   26  0.005  0.004  0.019  0.028
   27  0.010  0.004  0.010  0.024
   28  0.035  0.003  0.000  0.038
   29  0.000  0.003  0.010  0.013
   30  0.000  0.003  0.010  0.013
   31  0.000  0.003  0.010  0.013
   32  0.000  0.003  0.010  0.013
   33  0.000  0.003  0.010  0.013
   34  0.000  0.003  0.010  0.013
   35  0.028  0.004  0.001  0.033
   36  0.000  0.000  0.000  0.000
   37  0.000  0.000  0.000  0.000
tot    0.228  0.094  0.383  0.705
 
band    15 # energy   -5.07593344 # occ.  2.00000000
 
ion      s      p      d    tot
    1  0.000  0.004  0.011  0.016
    2  0.004  0.002  0.005  0.012
    3  0.021  0.004  0.006  0.031
    4  0.004  0.002  0.005  0.011
    5  0.000  0.000  0.012  0.012
    6  0.007  0.002  0.005  0.014
    7  0.022  0.004  0.006  0.031
    8  0.007  0.002  0.005  0.015
    9  0.000  0.005  0.008  0.013
   10  0.009  0.002  0.006  0.017
   11  0.001  0.002  0.014  0.016
   12  0.002  0.003  0.021  0.027
   13  0.001  0.002  0.014  0.016
   14  0.003  0.001  0.010  0.014
   15  0.005  0.001  0.019  0.026
   16  0.002  0.003  0.021  0.027
   17  0.006  0.002  0.019  0.026
   18  0.022  0.006  0.007  0.034
   19  0.005  0.001  0.019  0.025
   20  0.001  0.001  0.010  0.013
   21  0.000  0.002  0.014  0.017
   22  0.003  0.003  0.022  0.028
   23  0.000  0.002  0.014  0.017
   24  0.012  0.002  0.005  0.019
   25  0.020  0.006  0.007  0.033
   26  0.005  0.001  0.018  0.025
   27  0.003  0.003  0.022  0.028
   28  0.000  0.004  0.008  0.012
   29  0.005  0.002  0.005  0.012
   30  0.021  0.004  0.005  0.029
   31  0.005  0.002  0.005  0.012
   32  0.005  0.002  0.005  0.013
   33  0.021  0.004  0.005  0.029
   34  0.005  0.002  0.005  0.013
   35  0.000  0.005  0.011  0.015
   36  0.000  0.000  0.009  0.009
   37  0.000  0.000  0.000  0.000
tot    0.226  0.094  0.384  0.704
 
band    16 # energy   -5.07591326 # occ.  2.00000000
 
ion      s      p      d    tot
    1  0.000  0.004  0.011  0.016
    2  0.017  0.003  0.005  0.026
    3  0.000  0.002  0.005  0.007
    4  0.018  0.003  0.005  0.027
    5  0.000  0.000  0.012  0.012
    6  0.015  0.003  0.006  0.024
    7  0.000  0.002  0.005  0.007
    8  0.015  0.003  0.006  0.023
    9  0.000  0.005  0.008  0.013
   10  0.000  0.003  0.027  0.030
   11  0.002  0.002  0.011  0.015
   12  0.007  0.002  0.011  0.020
   13  0.002  0.002  0.011  0.015
   14  0.000  0.002  0.015  0.017
   15  0.016  0.004  0.011  0.031
   16  0.007  0.002  0.011  0.020
   17  0.016  0.004  0.011  0.031
   18  0.000  0.000  0.023  0.023
   19  0.015  0.004  0.011  0.030
   20  0.000  0.003  0.016  0.018
   21  0.001  0.001  0.012  0.014
   22  0.008  0.002  0.011  0.022
   23  0.001  0.001  0.012  0.014
   24  0.000  0.003  0.028  0.031
   25  0.000  0.000  0.022  0.022
   26  0.015  0.004  0.011  0.030
   27  0.009  0.002  0.011  0.022
   28  0.000  0.004  0.008  0.012
   29  0.015  0.003  0.005  0.024
   30  0.000  0.002  0.005  0.007
   31  0.015  0.003  0.005  0.024
   32  0.016  0.003  0.005  0.024
   33  0.000  0.002  0.005  0.007
   34  0.015  0.003  0.005  0.023
   35  0.000  0.005  0.011  0.015
   36  0.000  0.000  0.009  0.009
   37  0.000  0.000  0.000  0.000
tot    0.226  0.094  0.384  0.704
 
band    17 # energy   -5.05885016 # occ.  2.00000000
 
ion      s      p      d    tot
    1  0.000  0.001  0.006  0.008
    2  0.003  0.001  0.009  0.013
    3  0.003  0.001  0.009  0.013
    4  0.003  0.001  0.009  0.013
    5  0.028  0.000  0.004  0.032
    6  0.003  0.001  0.009  0.013
    7  0.003  0.001  0.009  0.013
    8  0.003  0.001  0.009  0.013
    9  0.000  0.001  0.007  0.008
   10  0.007  0.001  0.019  0.026
   11  0.000  0.001  0.020  0.021
   12  0.007  0.001  0.019  0.026
   13  0.000  0.001  0.020  0.021
   14  0.000  0.001  0.020  0.021
   15  0.010  0.001  0.020  0.030
   16  0.006  0.001  0.019  0.026
   17  0.010  0.001  0.020  0.030
   18  0.010  0.001  0.020  0.031
   19  0.012  0.000  0.022  0.035
   20  0.000  0.001  0.023  0.024
   21  0.000  0.001  0.023  0.024
   22  0.006  0.000  0.022  0.028
   23  0.000  0.001  0.023  0.024
   24  0.006  0.000  0.022  0.028
   25  0.012  0.000  0.022  0.035
   26  0.012  0.000  0.022  0.035
   27  0.006  0.000  0.022  0.028
   28  0.000  0.001  0.009  0.011
   29  0.004  0.001  0.010  0.015
   30  0.004  0.001  0.010  0.015
   31  0.004  0.001  0.010  0.015
   32  0.004  0.001  0.010  0.015
   33  0.004  0.001  0.010  0.015
   34  0.004  0.001  0.010  0.015
   35  0.000  0.001  0.008  0.009
   36  0.031  0.000  0.002  0.034
   37  0.002  0.006  0.000  0.008
tot    0.206  0.039  0.525  0.771
 
band    18 # energy   -4.42487683 # occ.  2.00000000
 
ion      s      p      d    tot
    1  0.026  0.001  0.001  0.028
    2  0.000  0.001  0.014  0.015
    3  0.000  0.001  0.014  0.015
    4  0.000  0.001  0.014  0.015
    5  0.008  0.000  0.000  0.009
    6  0.000  0.001  0.014  0.015
    7  0.000  0.001  0.014  0.015
    8  0.000  0.001  0.014  0.015
    9  0.005  0.000  0.000  0.005
   10  0.000  0.003  0.037  0.040
   11  0.000  0.003  0.015  0.017
   12  0.000  0.003  0.037  0.040
   13  0.000  0.003  0.015  0.017
   14  0.000  0.003  0.015  0.017
   15  0.000  0.000  0.008  0.008
   16  0.000  0.003  0.037  0.040
   17  0.000  0.000  0.008  0.008
   18  0.000  0.000  0.008  0.008
   19  0.001  0.002  0.026  0.029
   20  0.001  0.002  0.043  0.046
   21  0.001  0.002  0.043  0.046
   22  0.000  0.000  0.005  0.006
   23  0.001  0.002  0.043  0.046
   24  0.000  0.000  0.005  0.006
   25  0.001  0.002  0.026  0.029
   26  0.001  0.002  0.026  0.029
   27  0.000  0.000  0.005  0.006
   28  0.009  0.000  0.001  0.011
   29  0.000  0.001  0.008  0.009
   30  0.000  0.001  0.008  0.009
   31  0.000  0.001  0.008  0.009
   32  0.000  0.001  0.008  0.009
   33  0.000  0.001  0.008  0.009
   34  0.000  0.001  0.008  0.009
   35  0.000  0.000  0.001  0.002
   36  0.033  0.001  0.062  0.096
   37  0.008  0.088  0.000  0.096
tot    0.098  0.133  0.597  0.827
 
band    19 # energy   -4.42156497 # occ.  2.00000000
 
ion      s      p      d    tot
    1  0.000  0.002  0.001  0.003
    2  0.012  0.001  0.009  0.022
    3  0.009  0.001  0.008  0.018
    4  0.012  0.001  0.009  0.022
    5  0.000  0.002  0.022  0.024
    6  0.000  0.001  0.008  0.009
    7  0.009  0.001  0.008  0.018
    8  0.000  0.001  0.008  0.009
    9  0.000  0.000  0.025  0.025
   10  0.001  0.007  0.018  0.025
   11  0.000  0.000  0.041  0.042
   12  0.000  0.002  0.011  0.013
   13  0.000  0.000  0.041  0.042
   14  0.000  0.002  0.003  0.005
   15  0.000  0.001  0.023  0.023
   16  0.000  0.002  0.011  0.013
   17  0.000  0.001  0.023  0.023
   18  0.000  0.002  0.013  0.015
   19  0.000  0.000  0.041  0.042
   20  0.002  0.006  0.023  0.031
   21  0.001  0.001  0.013  0.015
   22  0.000  0.000  0.029  0.029
   23  0.001  0.001  0.013  0.015
   24  0.000  0.002  0.012  0.013
   25  0.001  0.002  0.005  0.007
   26  0.000  0.000  0.041  0.042
   27  0.000  0.000  0.029  0.029
   28  0.000  0.002  0.023  0.025
   29  0.016  0.001  0.011  0.028
   30  0.000  0.001  0.010  0.012
   31  0.016  0.001  0.011  0.028
   32  0.011  0.001  0.009  0.021
   33  0.000  0.001  0.010  0.012
   34  0.011  0.001  0.009  0.021
   35  0.000  0.000  0.030  0.030
   36  0.000  0.006  0.014  0.019
   37  0.000  0.019  0.000  0.019
tot    0.103  0.072  0.613  0.789
 
band    20 # energy   -4.42149156 # occ.  2.00000000
 
ion      s      p      d    tot
    1  0.000  0.002  0.001  0.003
    2  0.002  0.001  0.008  0.011
    3  0.005  0.001  0.008  0.015
    4  0.002  0.001  0.008  0.011
    5  0.000  0.002  0.022  0.024
    6  0.014  0.001  0.008  0.024
    7  0.005  0.001  0.008  0.015
    8  0.014  0.001  0.008  0.024
    9  0.000  0.000  0.025  0.025
   10  0.000  0.000  0.009  0.009
   11  0.000  0.001  0.015  0.017
   12  0.001  0.005  0.015  0.021
   13  0.000  0.001  0.016  0.017
   14  0.000  0.000  0.054  0.054
   15  0.000  0.001  0.016  0.018
   16  0.001  0.005  0.015  0.021
   17  0.000  0.001  0.016  0.018
   18  0.000  0.000  0.026  0.026
   19  0.001  0.001  0.017  0.018
   20  0.000  0.000  0.010  0.010
   21  0.002  0.004  0.020  0.026
   22  0.000  0.001  0.017  0.019
   23  0.002  0.004  0.020  0.026
   24  0.000  0.000  0.034  0.034
   25  0.000  0.000  0.053  0.053
   26  0.001  0.001  0.017  0.019
   27  0.000  0.001  0.017  0.019
   28  0.000  0.002  0.023  0.025
   29  0.002  0.001  0.009  0.012
   30  0.018  0.001  0.010  0.029
   31  0.002  0.001  0.009  0.012
   32  0.007  0.001  0.011  0.019
   33  0.018  0.001  0.010  0.029
   34  0.007  0.001  0.011  0.019
   35  0.000  0.000  0.030  0.030
   36  0.000  0.006  0.014  0.019
   37  0.000  0.019  0.000  0.019
tot    0.103  0.072  0.613  0.789
 
band    21 # energy   -4.38602477 # occ.  2.00000000
 
ion      s      p      d    tot
    1  0.000  0.000  0.000  0.001
    2  0.000  0.001  0.019  0.020
    3  0.000  0.001  0.018  0.020
    4  0.000  0.001  0.019  0.020
    5  0.026  0.001  0.001  0.027
    6  0.000  0.001  0.018  0.020
    7  0.000  0.001  0.018  0.020
    8  0.000  0.001  0.018  0.020
    9  0.021  0.001  0.002  0.024
   10  0.000  0.000  0.005  0.006
   11  0.000  0.002  0.032  0.034
   12  0.000  0.000  0.005  0.006
   13  0.000  0.002  0.032  0.034
   14  0.000  0.002  0.032  0.034
   15  0.001  0.003  0.033  0.037
   16  0.000  0.000  0.005  0.006
   17  0.001  0.003  0.033  0.037
   18  0.001  0.003  0.033  0.037
   19  0.000  0.000  0.017  0.018
   20  0.001  0.002  0.012  0.015
   21  0.001  0.002  0.012  0.015
   22  0.000  0.003  0.043  0.046
   23  0.001  0.002  0.012  0.015
   24  0.000  0.003  0.043  0.047
   25  0.000  0.000  0.017  0.018
   26  0.000  0.000  0.017  0.018
   27  0.000  0.003  0.043  0.046
   28  0.013  0.000  0.000  0.013
   29  0.000  0.001  0.017  0.019
   30  0.000  0.001  0.017  0.019
   31  0.000  0.001  0.017  0.019
   32  0.000  0.001  0.018  0.019
   33  0.000  0.001  0.017  0.019
   34  0.000  0.001  0.018  0.019
   35  0.028  0.001  0.001  0.031
   36  0.004  0.000  0.000  0.005