PROCAR new format
# of k-points:   10         # of bands:  252         # of ions:   38

 k-point     1 :    0.00000000 0.00000000 0.00000000     weight = 0.01562500

band     1 # energy  -20.12938988 # occ.  2.00000000
 
ion      s      p      d    tot
    1  0.000  0.000  0.000  0.000
    2  0.000  0.000  0.000  0.000
    3  0.000  0.000  0.000  0.000
    4  0.000  0.000  0.000  0.000
    5  0.000  0.000  0.000  0.000
    6  0.000  0.000  0.000  0.000
    7  0.000  0.000  0.000  0.000
    8  0.000  0.000  0.000  0.000
    9  0.000  0.000  0.000  0.000
   10  0.000  0.000  0.000  0.000
   11  0.000  0.000  0.000  0.000
   12  0.000  0.000  0.000  0.000
   13  0.000  0.000  0.000  0.000
   14  0.000  0.000  0.000  0.000
   15  0.000  0.000  0.000  0.000
   16  0.000  0.000  0.000  0.000
   17  0.000  0.000  0.000  0.000
   18  0.000  0.000  0.000  0.000
   19  0.000  0.000  0.000  0.000
   20  0.000  0.000  0.000  0.000
   21  0.000  0.000  0.000  0.000
   22  0.000  0.000  0.000  0.000
   23  0.000  0.000  0.000  0.000
   24  0.000  0.000  0.000  0.000
   25  0.000  0.000  0.000  0.000
   26  0.000  0.000  0.000  0.000
   27  0.000  0.000  0.000  0.000
   28  0.000  0.000  0.000  0.000
   29  0.000  0.000  0.000  0.000
   30  0.000  0.000  0.000  0.000
   31  0.000  0.000  0.000  0.000
   32  0.000  0.000  0.000  0.000
   33  0.000  0.000  0.000  0.000
   34  0.000  0.000  0.000  0.000
   35  0.000  0.000  0.000  0.000
   36  0.016  0.019  0.030  0.065
   37  0.742  0.019  0.000  0.761
   38  0.120  0.025  0.000  0.144
tot    0.878  0.062  0.030  0.970
 
band     2 # energy   -8.30973700 # occ.  2.00000000
 
ion      s      p      d    tot
    1  0.000  0.000  0.000  0.000
    2  0.000  0.000  0.000  0.000
    3  0.000  0.000  0.000  0.000
    4  0.000  0.000  0.000  0.000
    5  0.000  0.000  0.000  0.000
    6  0.000  0.000  0.000  0.000
    7  0.000  0.000  0.000  0.000
    8  0.000  0.000  0.000  0.000
    9  0.000  0.000  0.000  0.000
   10  0.000  0.000  0.000  0.000
   11  0.000  0.000  0.000  0.000
   12  0.000  0.000  0.000  0.000
   13  0.000  0.000  0.000  0.000
   14  0.000  0.000  0.000  0.000
   15  0.000  0.000  0.000  0.000
   16  0.000  0.000  0.000  0.000
   17  0.000  0.000  0.000  0.000
   18  0.000  0.000  0.000  0.000
   19  0.000  0.000  0.000  0.000
   20  0.001  0.000  0.001  0.002
   21  0.001  0.000  0.001  0.002
   22  0.000  0.000  0.000  0.000
   23  0.001  0.000  0.001  0.002
   24  0.000  0.000  0.000  0.000
   25  0.000  0.000  0.000  0.000
   26  0.000  0.000  0.000  0.000
   27  0.000  0.000  0.000  0.000
   28  0.000  0.000  0.000  0.000
   29  0.000  0.000  0.000  0.001
   30  0.000  0.000  0.000  0.001
   31  0.000  0.000  0.000  0.001
   32  0.000  0.000  0.000  0.001
   33  0.000  0.000  0.000  0.001
   34  0.000  0.000  0.000  0.001
   35  0.000  0.000  0.000  0.000
   36  0.075  0.065  0.151  0.291
   37  0.034  0.535  0.000  0.569
   38  0.179  0.018  0.000  0.197
tot    0.293  0.619  0.155  1.067
 
band     3 # energy   -6.72793340 # occ.  2.00000000
 
ion      s      p      d    tot
    1  0.006  0.001  0.000  0.007
    2  0.006  0.001  0.000  0.007
    3  0.006  0.001  0.000  0.007
    4  0.006  0.001  0.000  0.007
    5  0.006  0.001  0.000  0.007
    6  0.006  0.001  0.000  0.007
    7  0.006  0.001  0.000  0.007
    8  0.006  0.001  0.000  0.007
    9  0.006  0.001  0.000  0.006
   10  0.024  0.000  0.000  0.024
   11  0.024  0.000  0.000  0.024
   12  0.024  0.000  0.000  0.024
   13  0.024  0.000  0.000  0.024
   14  0.024  0.000  0.000  0.024
   15  0.023  0.000  0.000  0.023
   16  0.024  0.000  0.000  0.024
   17  0.023  0.000  0.000  0.023
   18  0.023  0.000  0.000  0.023
   19  0.023  0.000  0.000  0.023
   20  0.024  0.000  0.000  0.025
   21  0.024  0.000  0.000  0.025
   22  0.023  0.000  0.000  0.023
   23  0.024  0.000  0.000  0.025
   24  0.023  0.000  0.000  0.023
   25  0.023  0.000  0.000  0.023
   26  0.023  0.000  0.000  0.023
   27  0.023  0.000  0.000  0.023
   28  0.006  0.001  0.000  0.006
   29  0.005  0.001  0.000  0.006
   30  0.005  0.001  0.000  0.006
   31  0.005  0.001  0.000  0.006
   32  0.005  0.001  0.000  0.006
   33  0.005  0.001  0.000  0.006
   34  0.005  0.001  0.000  0.006
   35  0.005  0.001  0.000  0.006
   36  0.004  0.004  0.001  0.008
   37  0.001  0.003  0.000  0.003
   38  0.001  0.000  0.000  0.001
tot    0.521  0.019  0.008  0.547
 
band     4 # energy   -5.86455218 # occ.  2.00000000
 
ion      s      p      d    tot
    1  0.008  0.000  0.000  0.009
    2  0.008  0.000  0.000  0.008
    3  0.008  0.000  0.000  0.008
    4  0.008  0.000  0.000  0.008
    5  0.008  0.000  0.000  0.008
    6  0.008  0.000  0.000  0.008
    7  0.008  0.000  0.000  0.008
    8  0.008  0.000  0.000  0.008
    9  0.008  0.000  0.000  0.008
   10  0.011  0.001  0.016  0.028
   11  0.011  0.001  0.015  0.027
   12  0.011  0.001  0.016  0.028
   13  0.011  0.001  0.015  0.027
   14  0.011  0.001  0.015  0.027
   15  0.011  0.001  0.014  0.025
   16  0.011  0.001  0.016  0.028
   17  0.011  0.001  0.014  0.025
   18  0.011  0.001  0.014  0.025
   19  0.012  0.001  0.017  0.030
   20  0.012  0.001  0.023  0.036
   21  0.012  0.001  0.023  0.036
   22  0.012  0.001  0.015  0.028
   23  0.012  0.001  0.023  0.036
   24  0.012  0.001  0.015  0.028
   25  0.012  0.001  0.017  0.030
   26  0.012  0.001  0.017  0.030
   27  0.012  0.001  0.015  0.028
   28  0.007  0.000  0.000  0.008
   29  0.006  0.000  0.000  0.007
   30  0.006  0.000  0.000  0.007
   31  0.006  0.000  0.000  0.007
   32  0.006  0.000  0.000  0.007
   33  0.006  0.000  0.000  0.007
   34  0.006  0.000  0.000  0.007
   35  0.006  0.000  0.000  0.007
   36  0.004  0.002  0.001  0.007
   37  0.000  0.001  0.000  0.002
   38  0.000  0.000  0.000  0.000
tot    0.331  0.027  0.304  0.662
 
band     5 # energy   -5.58470431 # occ.  2.00000000
 
ion      s      p      d    tot
    1  0.013  0.000  0.020  0.033
    2  0.013  0.000  0.018  0.031
    3  0.013  0.000  0.018  0.031
    4  0.013  0.000  0.018  0.031
    5  0.012  0.000  0.018  0.030
    6  0.013  0.000  0.018  0.031
    7  0.013  0.000  0.018  0.031
    8  0.013  0.000  0.018  0.031
    9  0.013  0.000  0.018  0.031
   10  0.000  0.000  0.019  0.020
   11  0.000  0.000  0.016  0.017
   12  0.000  0.000  0.019  0.020
   13  0.000  0.000  0.016  0.017
   14  0.000  0.000  0.016  0.017
   15  0.000  0.000  0.015  0.015
   16  0.000  0.000  0.019  0.020
   17  0.000  0.000  0.015  0.015
   18  0.000  0.000  0.015  0.015
   19  0.000  0.000  0.012  0.012
   20  0.000  0.000  0.019  0.019
   21  0.000  0.000  0.019  0.019
   22  0.000  0.000  0.012  0.012
   23  0.000  0.000  0.019  0.019
   24  0.000  0.000  0.012  0.012
   25  0.000  0.000  0.012  0.012
   26  0.000  0.000  0.012  0.012
   27  0.000  0.000  0.012  0.012
   28  0.010  0.000  0.012  0.021
   29  0.009  0.000  0.013  0.022
   30  0.009  0.000  0.013  0.022
   31  0.009  0.000  0.013  0.022
   32  0.009  0.000  0.013  0.022
   33  0.009  0.000  0.013  0.022
   34  0.009  0.000  0.013  0.022
   35  0.011  0.000  0.013  0.024
   36  0.007  0.000  0.005  0.012
   37  0.000  0.000  0.000  0.001
   38  0.000  0.000  0.000  0.000
tot    0.201  0.007  0.554  0.762
 
band     6 # energy   -5.48802209 # occ.  2.00000000
 
ion      s      p      d    tot
    1  0.003  0.001  0.002  0.005
    2  0.000  0.000  0.004  0.004
    3  0.000  0.000  0.004  0.004
    4  0.000  0.000  0.004  0.004
    5  0.002  0.000  0.000  0.002
    6  0.000  0.000  0.004  0.004
    7  0.000  0.000  0.004  0.004
    8  0.000  0.000  0.004  0.004
    9  0.001  0.000  0.000  0.001
   10  0.004  0.000  0.024  0.028
   11  0.000  0.000  0.020  0.020
   12  0.004  0.000  0.024  0.028
   13  0.000  0.000  0.020  0.020
   14  0.000  0.000  0.020  0.020
   15  0.005  0.001  0.008  0.014
   16  0.004  0.000  0.024  0.028
   17  0.005  0.001  0.008  0.014
   18  0.005  0.001  0.008  0.014
   19  0.002  0.001  0.033  0.036
   20  0.006  0.000  0.110  0.116
   21  0.006  0.000  0.110  0.116
   22  0.016  0.001  0.015  0.031
   23  0.006  0.000  0.110  0.116
   24  0.016  0.001  0.015  0.031
   25  0.002  0.001  0.033  0.036
   26  0.002  0.001  0.033  0.036
   27  0.016  0.001  0.015  0.031
   28  0.000  0.000  0.001  0.001
   29  0.000  0.000  0.005  0.005
   30  0.000  0.000  0.005  0.005
   31  0.000  0.000  0.005  0.005
   32  0.000  0.000  0.005  0.005
   33  0.000  0.000  0.005  0.005
   34  0.000  0.000  0.005  0.005
   35  0.004  0.001  0.004  0.008
   36  0.001  0.005  0.001  0.007
   37  0.000  0.001  0.000  0.002
   38  0.000  0.000  0.000  0.001
tot    0.110  0.019  0.691  0.819
 
band     7 # energy   -5.47449969 # occ.  2.00000000
 
ion      s      p      d    tot
    1  0.000  0.000  0.008  0.008
    2  0.001  0.000  0.002  0.004
    3  0.001  0.000  0.002  0.003
    4  0.000  0.000  0.002  0.002
    5  0.000  0.000  0.003  0.003
    6  0.000  0.000  0.002  0.002
    7  0.001  0.000  0.003  0.003
    8  0.001  0.000  0.003  0.004
    9  0.000  0.000  0.002  0.002
   10  0.003  0.001  0.020  0.024
   11  0.001  0.000  0.024  0.025
   12  0.002  0.001  0.020  0.023
   13  0.000  0.001  0.022  0.022
   14  0.000  0.000  0.022  0.023
   15  0.006  0.001  0.007  0.014
   16  0.010  0.001  0.018  0.029
   17  0.001  0.000  0.018  0.020
   18  0.002  0.000  0.017  0.019
   19  0.026  0.000  0.034  0.060
   20  0.006  0.000  0.116  0.123
   21  0.004  0.000  0.131  0.135
   22  0.000  0.001  0.032  0.033
   23  0.020  0.001  0.008  0.029
   24  0.000  0.001  0.033  0.034
   25  0.008  0.001  0.037  0.045
   26  0.005  0.001  0.037  0.043
   27  0.000  0.000  0.036  0.037
   28  0.000  0.000  0.006  0.006
   29  0.000  0.000  0.005  0.005
   30  0.000  0.000  0.006  0.006
   31  0.001  0.001  0.007  0.009
   32  0.001  0.001  0.008  0.009
   33  0.001  0.000  0.003  0.004
   34  0.001  0.000  0.002  0.003
   35  0.000  0.000  0.000  0.000
   36  0.000  0.001  0.003  0.003
   37  0.000  0.001  0.000  0.001
   38  0.000  0.000  0.000  0.000
tot    0.102  0.015  0.700  0.816
 
band     8 # energy   -5.47449897 # occ.  2.00000000
 
ion      s      p      d    tot
    1  0.000  0.000  0.008  0.008
    2  0.000  0.000  0.002  0.003
    3  0.000  0.000  0.003  0.003
    4  0.001  0.000  0.002  0.004
    5  0.000  0.000  0.003  0.003
    6  0.001  0.000  0.002  0.004
    7  0.001  0.000  0.002  0.003
    8  0.000  0.000  0.002  0.003
    9  0.000  0.000  0.002  0.002
   10  0.007  0.001  0.019  0.027
   11  0.000  0.001  0.021  0.021
   12  0.008  0.001  0.019  0.027
   13  0.000  0.000  0.024  0.024
   14  0.000  0.000  0.023  0.024
   15  0.000  0.000  0.021  0.021
   16  0.000  0.001  0.021  0.021
   17  0.005  0.001  0.010  0.015
   18  0.004  0.000  0.012  0.016
   19  0.000  0.001  0.038  0.039
   20  0.014  0.000  0.054  0.068
   21  0.016  0.000  0.039  0.056
   22  0.000  0.000  0.035  0.036
   23  0.000  0.000  0.162  0.162
   24  0.000  0.001  0.035  0.036
   25  0.018  0.001  0.035  0.054
   26  0.021  0.001  0.035  0.056
   27  0.000  0.001  0.031  0.032
   28  0.000  0.000  0.006  0.006
   29  0.001  0.001  0.005  0.007
   30  0.001  0.001  0.005  0.006
   31  0.000  0.000  0.003  0.003
   32  0.000  0.000  0.003  0.003
   33  0.000  0.000  0.008  0.008
   34  0.001  0.000  0.008  0.009
   35  0.000  0.000  0.000  0.000
   36  0.000  0.001  0.003  0.003
   37  0.000  0.001  0.000  0.001
   38  0.000  0.000  0.000  0.000
tot    0.102  0.015  0.700  0.816
 
band     9 # energy   -5.45512231 # occ.  2.00000000
 
ion      s      p      d    tot
    1  0.001  0.000  0.000  0.001
    2  0.000  0.000  0.005  0.006
    3  0.000  0.000  0.005  0.006
    4  0.000  0.000  0.005  0.006
    5  0.003  0.001  0.004  0.008
    6  0.000  0.000  0.005  0.006
    7  0.000  0.000  0.005  0.006
    8  0.000  0.000  0.005  0.006
    9  0.001  0.000  0.003  0.004
   10  0.007  0.001  0.006  0.014
   11  0.014  0.001  0.040  0.054
   12  0.008  0.001  0.006  0.014
   13  0.013  0.001  0.040  0.054
   14  0.013  0.001  0.041  0.054
   15  0.001  0.000  0.048  0.048
   16  0.008  0.001  0.006  0.014
   17  0.001  0.000  0.048  0.048
   18  0.000  0.000  0.048  0.049
   19  0.012  0.001  0.034  0.046
   20  0.007  0.001  0.018  0.026
   21  0.007  0.001  0.018  0.026
   22  0.000  0.000  0.045  0.046
   23  0.007  0.001  0.018  0.026
   24  0.000  0.000  0.045  0.046
   25  0.012  0.001  0.033  0.046
   26  0.012  0.001  0.034  0.046
   27  0.000  0.000  0.045  0.046
   28  0.004  0.001  0.003  0.008
   29  0.000  0.000  0.005  0.006
   30  0.000  0.000  0.005  0.006
   31  0.000  0.000  0.005  0.006
   32  0.000  0.000  0.005  0.006
   33  0.000  0.000  0.005  0.006
   34  0.000  0.000  0.005  0.006
   35  0.001  0.000  0.003  0.004
   36  0.000  0.000  0.000  0.000
   37  0.000  0.000  0.000  0.000
   38  0.000  0.000  0.000  0.000
tot    0.131  0.018  0.649  0.798
 
band    10 # energy   -5.45441501 # occ.  2.00000000
 
ion      s      p      d    tot
    1  0.000  0.000  0.003  0.003
    2  0.000  0.000  0.002  0.002
    3  0.001  0.000  0.005  0.007
    4  0.000  0.000  0.002  0.002
    5  0.000  0.000  0.009  0.009
    6  0.001  0.001  0.004  0.006
    7  0.001  0.000  0.005  0.007
    8  0.001  0.001  0.004  0.006
    9  0.000  0.000  0.002  0.003
   10  0.005  0.001  0.016  0.021
   11  0.007  0.001  0.057  0.064
   12  0.001  0.000  0.059  0.060
   13  0.007  0.001  0.057  0.065
   14  0.029  0.001  0.011  0.040
   15  0.002  0.001  0.015  0.019
   16  0.001  0.000  0.058  0.060
   17  0.002  0.001  0.015  0.019
   18  0.009  0.000  0.034  0.043
   19  0.000  0.000  0.037  0.038
   20  0.013  0.000  0.039  0.052
   21  0.003  0.001  0.025  0.029
   22  0.005  0.000  0.044  0.049
   23  0.003  0.001  0.025  0.030
   24  0.020  0.001  0.007  0.028
   25  0.001  0.000  0.016  0.018
   26  0.000  0.000  0.038  0.038
   27  0.005  0.000  0.044  0.049
   28  0.000  0.000  0.001  0.001
   29  0.002  0.000  0.005  0.007
   30  0.000  0.000  0.003  0.003
   31  0.002  0.000  0.005  0.007
   32  0.001  0.000  0.003  0.003
   33  0.000  0.000  0.003  0.003
   34  0.001  0.000  0.003  0.003
   35  0.000  0.000  0.007  0.008
   36  0.000  0.000  0.001  0.001
   37  0.000  0.000  0.000  0.000
   38  0.000  0.000  0.000  0.000
tot    0.124  0.017  0.663  0.804
 
band    11 # energy   -5.45441359 # occ.  2.00000000
 
ion      s      p      d    tot
    1  0.000  0.000  0.003  0.003
    2  0.002  0.001  0.005  0.008
    3  0.000  0.000  0.003  0.003
    4  0.002  0.001  0.005  0.008
    5  0.000  0.000  0.009  0.009
    6  0.000  0.000  0.003  0.004
    7  0.000  0.000  0.003  0.003
    8  0.000  0.000  0.003  0.004
    9  0.000  0.000  0.002  0.003
   10  0.000  0.000  0.073  0.073
   11  0.021  0.001  0.026  0.049
   12  0.003  0.000  0.030  0.034
   13  0.021  0.001  0.026  0.048
   14  0.000  0.001  0.072  0.073
   15  0.007  0.001  0.028  0.035
   16  0.003  0.000  0.030  0.034
   17  0.007  0.001  0.028  0.035
   18  0.000  0.002  0.009  0.010
   19  0.001  0.000  0.023  0.025
   20  0.000  0.001  0.020  0.022
   21  0.010  0.001  0.034  0.045
   22  0.015  0.001  0.019  0.035
   23  0.010  0.001  0.034  0.044
   24  0.000  0.000  0.056  0.056
   25  0.000  0.000  0.045  0.045
   26  0.001  0.000  0.023  0.025
   27  0.015  0.001  0.019  0.035
   28  0.000  0.000  0.001  0.001
   29  0.000  0.000  0.002  0.002
   30  0.001  0.000  0.004  0.006
   31  0.000  0.000  0.002  0.002
   32  0.001  0.000  0.004  0.006
   33  0.001  0.000  0.004  0.006
   34  0.001  0.000  0.004  0.006
   35  0.000  0.000  0.007  0.008
   36  0.000  0.000  0.001  0.001
   37  0.000  0.000  0.000  0.000
   38  0.000  0.000  0.000  0.000
tot    0.124  0.017  0.663  0.804
 
band    12 # energy   -5.43929979 # occ.  2.00000000
 
ion      s      p      d    tot
    1  0.000  0.001  0.017  0.018
    2  0.000  0.000  0.007  0.007
    3  0.000  0.000  0.007  0.007
    4  0.000  0.000  0.007  0.007
    5  0.001  0.000  0.002  0.003
    6  0.000  0.000  0.007  0.007
    7  0.000  0.000  0.007  0.007
    8  0.000  0.000  0.007  0.007
    9  0.007  0.001  0.001  0.009
   10  0.004  0.000  0.075  0.080
   11  0.001  0.000  0.048  0.050
   12  0.004  0.000  0.076  0.080
   13  0.001  0.000  0.048  0.050
   14  0.001  0.000  0.048  0.050
   15  0.009  0.000  0.007  0.017
   16  0.004  0.000  0.076  0.080
   17  0.009  0.000  0.007  0.017
   18  0.009  0.000  0.007  0.017
   19  0.001  0.000  0.015  0.017
   20  0.002  0.000  0.036  0.038
   21  0.002  0.000  0.036  0.038
   22  0.001  0.000  0.020  0.020
   23  0.002  0.000  0.036  0.038
   24  0.001  0.000  0.020  0.020
   25  0.001  0.000  0.015  0.017
   26  0.001  0.000  0.015  0.017
   27  0.001  0.000  0.020  0.020
   28  0.008  0.001  0.001  0.010
   29  0.000  0.000  0.013  0.013
   30  0.000  0.000  0.013  0.014
   31  0.000  0.000  0.013  0.013
   32  0.000  0.000  0.013  0.013
   33  0.000  0.000  0.013  0.014
   34  0.000  0.000  0.013  0.013
   35  0.000  0.000  0.005  0.005
   36  0.003  0.001  0.001  0.005
   37  0.000  0.000  0.000  0.000
   38  0.000  0.000  0.000  0.000
tot    0.076  0.009  0.752  0.837
 
band    13 # energy   -5.42273736 # occ.  2.00000000
 
ion      s      p      d    tot
    1  0.002  0.000  0.007  0.009
    2  0.005  0.000  0.015  0.020
    3  0.005  0.000  0.015  0.020
    4  0.005  0.000  0.015  0.020
    5  0.008  0.000  0.009  0.016
    6  0.005  0.000  0.015  0.020
    7  0.005  0.000  0.015  0.020
    8  0.005  0.000  0.015  0.020
    9  0.006  0.000  0.029  0.035
   10  0.002  0.000  0.019  0.021
   11  0.000  0.000  0.003  0.003
   12  0.002  0.000  0.019  0.021
   13  0.000  0.000  0.003  0.003
   14  0.000  0.000  0.003  0.003
   15  0.004  0.000  0.036  0.040
   16  0.002  0.000  0.019  0.021
   17  0.004  0.000  0.036  0.040
   18  0.004  0.000  0.036  0.040
   19  0.000  0.001  0.011  0.011
   20  0.002  0.000  0.024  0.026
   21  0.002  0.000  0.024  0.026
   22  0.000  0.001  0.022  0.023
   23  0.002  0.000  0.024  0.026
   24  0.000  0.001  0.022  0.023
   25  0.000  0.001  0.011  0.011
   26  0.000  0.001  0.011  0.011
   27  0.000  0.001  0.022  0.023
   28  0.007  0.000  0.006  0.013
   29  0.008  0.000  0.021  0.029
   30  0.008  0.000  0.021  0.029
   31  0.008  0.000  0.021  0.029
   32  0.008  0.000  0.021  0.029
   33  0.008  0.000  0.021  0.029
   34  0.008  0.000  0.021  0.029
   35  0.016  0.000  0.027  0.043
   36  0.003  0.000  0.005  0.008
   37  0.000  0.000  0.000  0.000
   38  0.000  0.000  0.000  0.000
tot    0.145  0.007  0.643  0.796
 
band    14 # energy   -5.41820393 # occ.  2.00000000
 
ion      s      p      d    tot
    1  0.000  0.001  0.013  0.013
    2  0.002  0.000  0.006  0.008
    3  0.001  0.001  0.010  0.011
    4  0.001  0.000  0.006  0.008
    5  0.000  0.000  0.008  0.008
    6  0.003  0.001  0.006  0.011
    7  0.000  0.000  0.010  0.011
    8  0.004  0.001  0.006  0.010
    9  0.000  0.000  0.008  0.008
   10  0.000  0.001  0.067  0.068
   11  0.000  0.000  0.035  0.035
   12  0.016  0.000  0.032  0.048
   13  0.000  0.000  0.037  0.037
   14  0.000  0.001  0.013  0.014
   15  0.011  0.000  0.035  0.046
   16  0.015  0.000  0.035  0.050
   17  0.012  0.000  0.028  0.040
   18  0.000  0.000  0.109  0.109
   19  0.000  0.000  0.026  0.027
   20  0.000  0.000  0.029  0.029
   21  0.002  0.000  0.018  0.020
   22  0.004  0.000  0.019  0.023
   23  0.002  0.000  0.019  0.021
   24  0.000  0.000  0.024  0.024
   25  0.000  0.000  0.032  0.032
   26  0.000  0.000  0.026  0.026
   27  0.004  0.000  0.019  0.023
   28  0.000  0.000  0.016  0.016
   29  0.002  0.000  0.005  0.007
   30  0.003  0.001  0.005  0.009
   31  0.002  0.000  0.005  0.007
   32  0.000  0.000  0.006  0.006
   33  0.004  0.001  0.005  0.009
   34  0.000  0.000  0.006  0.006
   35  0.000  0.000  0.005  0.005
   36  0.000  0.000  0.001  0.001
   37  0.000  0.000  0.000  0.000
   38  0.000  0.000  0.000  0.000
tot    0.088  0.011  0.727  0.826
 
band    15 # energy   -5.41819689 # occ.  2.00000000
 
ion      s      p      d    tot
    1  0.000  0.001  0.013  0.013
    2  0.002  0.001  0.009  0.012
    3  0.003  0.001  0.005  0.008
    4  0.002  0.001  0.009  0.012
    5  0.000  0.000  0.008  0.008
    6  0.000  0.000  0.009  0.009
    7  0.003  0.001  0.005  0.008
    8  0.000  0.000  0.009  0.009
    9  0.000  0.000  0.008  0.008
   10  0.021  0.000  0.022  0.043
   11  0.000  0.000  0.022  0.022
   12  0.005  0.000  0.057  0.062
   13  0.000  0.001  0.020  0.020
   14  0.000  0.000  0.044  0.044
   15  0.004  0.000  0.080  0.084
   16  0.006  0.000  0.054  0.061
   17  0.003  0.000  0.086  0.090
   18  0.015  0.000  0.006  0.021
   19  0.000  0.000  0.030  0.030
   20  0.002  0.001  0.015  0.017
   21  0.000  0.000  0.026  0.027
   22  0.001  0.000  0.022  0.023
   23  0.001  0.000  0.025  0.026
   24  0.005  0.000  0.018  0.023
   25  0.001  0.000  0.024  0.025
   26  0.000  0.000  0.030  0.030
   27  0.001  0.000  0.022  0.023
   28  0.000  0.000  0.016  0.016
   29  0.002  0.000  0.005  0.008
   30  0.000  0.000  0.006  0.006
   31  0.002  0.000  0.005  0.007
   32  0.003  0.000  0.005  0.009
   33  0.000  0.000  0.006  0.006
   34  0.004  0.000  0.005  0.009
   35  0.000  0.000  0.005  0.005
   36  0.000  0.000  0.001  0.001
   37  0.000  0.000  0.000  0.000
   38  0.000  0.000  0.000  0.000
tot    0.088  0.011  0.728  0.826
 
band    16 # energy   -5.41121651 # occ.  2.00000000
 
ion      s      p      d    tot
    1  0.010  0.000  0.005  0.016
    2  0.002  0.000  0.011  0.013
    3  0.002  0.000  0.011  0.013
    4  0.002  0.000  0.011  0.013
    5  0.000  0.000  0.014  0.015
    6  0.002  0.000  0.011  0.013
    7  0.002  0.000  0.011  0.013
    8  0.002  0.000  0.011  0.013
    9  0.000  0.000  0.000  0.000
   10  0.000  0.000  0.020  0.021
   11  0.005  0.000  0.021  0.026
   12  0.000  0.000  0.020  0.021
   13  0.005  0.000  0.021  0.026
   14  0.005  0.000  0.021  0.026
   15  0.000  0.000  0.036  0.036
   16  0.000  0.000  0.020  0.021
   17  0.000  0.000  0.036  0.036
   18  0.000  0.000  0.036  0.036
   19  0.004  0.000  0.047  0.052
   20  0.001  0.001  0.011  0.013
   21  0.001  0.001  0.011  0.013
   22  0.001  0.000  0.039  0.040
   23  0.001  0.001  0.011  0.013
   24  0.001  0.000  0.039  0.040
   25  0.004  0.000  0.047  0.051
   26  0.004  0.000  0.047  0.052
   27  0.001  0.000  0.039  0.040
   28  0.003  0.000  0.030  0.034
   29  0.003  0.000  0.015  0.019
   30  0.003  0.000  0.015  0.019
   31  0.003  0.000  0.015  0.019
   32  0.003  0.000  0.015  0.019
   33  0.003  0.000  0.015  0.019
   34  0.003  0.000  0.015  0.019
   35  0.000  0.000  0.001  0.001
   36  0.010  0.003  0.002  0.015
   37  0.000  0.001  0.000  0.001
   38  0.000  0.000  0.000  0.000
tot    0.085  0.010  0.739  0.834
 
band    17 # energy   -5.40529653 # occ.  2.00000000
 
ion      s      p      d    tot
    1  0.000  0.000  0.005  0.005
    2  0.002  0.000  0.007  0.009
    3  0.000  0.000  0.009  0.009
    4  0.002  0.000  0.007  0.009
    5  0.000  0.000  0.007  0.008
    6  0.002  0.000  0.005  0.008
    7  0.000  0.000  0.009  0.009
    8  0.002  0.000  0.005  0.008
    9  0.000  0.000  0.017  0.017
   10  0.001  0.000  0.032  0.033
   11  0.002  0.000  0.060  0.062
   12  0.000  0.000  0.022  0.022
   13  0.002  0.000  0.056  0.058
   14  0.007  0.000  0.007  0.014
   15  0.001  0.000  0.036  0.036
   16  0.000  0.000  0.021  0.021
   17  0.001  0.000  0.036  0.037
   18  0.003  0.000  0.037  0.040
   19  0.001  0.000  0.060  0.062
   20  0.000  0.000  0.051  0.052
   21  0.000  0.000  0.023  0.024
   22  0.002  0.000  0.054  0.057
   23  0.000  0.000  0.021  0.021
   24  0.008  0.000  0.025  0.034
   25  0.006  0.000  0.008  0.014
   26  0.002  0.000  0.056  0.058
   27  0.002  0.000  0.057  0.059
   28  0.000  0.000  0.004  0.004
   29  0.001  0.000  0.008  0.009
   30  0.002  0.000  0.003  0.005
   31  0.000  0.000  0.009  0.009
   32  0.000  0.000  0.009  0.009
   33  0.002  0.000  0.003  0.005
   34  0.000  0.000  0.008  0.009
   35  0.000  0.000  0.013  0.013
   36  0.000  0.000  0.001  0.001
   37  0.000  0.000  0.000  0.000
   38  0.000  0.000  0.000  0.000
tot    0.050  0.007  0.792  0.848
 
band    18 # energy   -5.40528138 # occ.  2.00000000
 
ion      s      p      d    tot
    1  0.000  0.000  0.005  0.005
    2  0.001  0.000  0.007  0.008
    3  0.003  0.000  0.005  0.008
    4  0.001  0.000  0.007  0.008
    5  0.000  0.000  0.007  0.008
    6  0.001  0.000  0.009  0.009
    7  0.003  0.000  0.005  0.008
    8  0.001  0.000  0.008  0.009
    9  0.000  0.000  0.017  0.017
   10  0.000  0.000  0.018  0.018
   11  0.005  0.000  0.022  0.027
   12  0.001  0.000  0.028  0.029
   13  0.005  0.000  0.026  0.031
   14  0.000  0.000  0.075  0.075
   15  0.002  0.000  0.037  0.039
   16  0.001  0.000  0.029  0.030
   17  0.002  0.000  0.037  0.039
   18  0.000  0.000  0.035  0.035
   19  0.004  0.000  0.023  0.027
   20  0.000  0.000  0.012  0.013
   21  0.000  0.000  0.041  0.041
   22  0.006  0.000  0.037  0.043
   23  0.000  0.000  0.043  0.043
   24  0.000  0.000  0.065  0.066
   25  0.000  0.000  0.075  0.075
   26  0.004  0.000  0.027  0.031
   27  0.006  0.000  0.034  0.041
   28  0.000  0.000  0.004  0.004
   29  0.001  0.000  0.005  0.007
   30  0.000  0.000  0.010  0.010
   31  0.001  0.000  0.005  0.006
   32  0.001  0.000  0.005  0.007
   33  0.000  0.000  0.010  0.010
   34  0.001  0.000  0.005  0.007
   35  0.000  0.000  0.013  0.013
   36  0.000  0.000  0.001  0.001
   37  0.000  0.000  0.000  0.000
   38  0.000  0.000  0.000  0.000
tot    0.050  0.007  0.792  0.848
 
band    19 # energy   -5.26953613 # occ.  2.00000000
 
ion      s      p      d    tot
    1  0.001  0.000  0.000  0.001
    2  0.000  0.000  0.006  0.006
    3  0.000  0.000  0.006  0.006
    4  0.000  0.000  0.006  0.006
    5  0.000  0.000  0.014  0.015
    6  0.000  0.000  0.006  0.006
    7  0.000  0.000  0.006  0.006
    8  0.000  0.000  0.006  0.006
    9  0.002  0.001  0.005  0.008
   10  0.000  0.000  0.014  0.015
   11  0.000  0.001  0.070  0.071
   12  0.000  0.000  0.014  0.015
   13  0.000  0.001  0.070  0.071
   14  0.000  0.001  0.070  0.071
   15  0.000  0.001  0.036  0.037
   16  0.000  0.000  0.014  0.015
   17  0.000  0.001  0.036  0.037
   18  0.000  0.001  0.036  0.037
   19  0.000  0.000  0.023  0.024
   20  0.001  0.000  0.070  0.071
   21  0.001  0.000  0.070  0.071
   22  0.002  0.000  0.021  0.023
   23  0.001  0.000  0.070  0.071
   24  0.002  0.000  0.021  0.023
   25  0.000  0.000  0.023  0.024
   26  0.000  0.000  0.023  0.024
   27  0.002  0.000  0.021  0.023
   28  0.004  0.001  0.001  0.007
   29  0.000  0.000  0.012  0.012
   30  0.000  0.000  0.012  0.012
   31  0.000  0.000  0.012  0.012
   32  0.000  0.000  0.012  0.012
   33  0.000  0.000  0.012  0.012
   34  0.000  0.000  0.012  0.012
   35  0.002  0.000  0.001  0.004
   36  0.000  0.002  0.001  0.003
   37  0.000  0.000  0.000  0.001
   38  0.000  0.000  0.000  0.000
tot    0.023  0.016  0.831  0.869
 
band    20 # energy   -5.26392641 # occ.  2.00000000
 
ion      s      p      d    tot
    1  0.000  0.000  0.001  0.001
    2  0.001  0.001  0.006  0.007
    3  0.000  0.000  0.008  0.009
    4  0.001  0.001  0.006  0.008
    5  0.000  0.001  0.015  0.016
    6  0.001  0.000  0.005  0.006
    7  0.000  0.000  0.008  0.009
    8  0.001  0.000  0.005  0.006
    9  0.000  0.000  0.009  0.009
   10  0.000  0.001  0.021  0.022
   11  0.001  0.000  0.073  0.073
   12  0.000  0.000  0.031  0.032
   13  0.000  0.000  0.074  0.075
   14  0.002  0.000  0.044  0.046
   15  0.001  0.000  0.013  0.014
   16  0.000  0.000  0.031  0.031
   17  0.001  0.000  0.012  0.013
   18  0.002  0.001  0.034  0.037
   19  0.001  0.000  0.014  0.015
   20  0.003  0.000  0.052  0.054
   21  0.001  0.000  0.092  0.093
   22  0.000  0.000  0.026  0.027
   23  0.001  0.000  0.090  0.091
   24  0.000  0.001  0.021  0.022
   25  0.002  0.001  0.034  0.037
   26  0.001  0.000  0.013  0.014
   27  0.000  0.000  0.026  0.026
   28  0.000  0.000  0.009  0.010
   29  0.001  0.000  0.006  0.007
   30  0.000  0.000  0.009  0.010
   31  0.001  0.000  0.006  0.007
   32  0.002  0.001  0.008  0.011
   33  0.000  0.000  0.009  0.009
   34  0.002  0.001  0.008  0.010
   35  0.000  0.000  0.001  0.001
   36  0.000  0.002  0.005  0.006
   37  0.000  0.001  0.000  0.001
   38  0.000  0.000  0.000  0.000
tot    0.024  0.017  0.825  0.866
 
band    21 # energy   -5.26391304 # occ.  2.00000000
 
ion      s      p      d    tot
    1  0.000  0.000  0.001  0.001
    2  0.000  0.000  0.007  0.008
    3  0.001  0.001  0.005  0.006
    4  0.000  0.000  0.007  0.008
    5  0.000  0.001  0.015  0.016
    6  0.001  0.000  0.008  0.009
    7  0.001  0.001  0.005  0.006
    8  0.001  0.000  0.008  0.009
    9  0.000  0.000  0.009  0.009
   10  0.000  0.000  0.034  0.035
   11  0.001  0.000  0.054  0.056
   12  0.000  0.001  0.024  0.025
   13  0.002  0.000  0.053  0.054
   14  0.000  0.000  0.083  0.084
   15  0.002  0.001  0.026  0.028
   16  0.000  0.001  0.024  0.025