PROCAR new format
# of k-points:   10         # of bands:  252         # of ions:   36

 k-point     1 :    0.00000000 0.00000000 0.00000000     weight = 0.01562500

band     1 # energy   -6.32703694 # occ.  2.00000000
 
ion      s      p      d    tot
    1  0.006  0.001  0.000  0.007
    2  0.006  0.001  0.000  0.007
    3  0.006  0.001  0.000  0.007
    4  0.006  0.001  0.000  0.007
    5  0.006  0.001  0.000  0.007
    6  0.006  0.001  0.000  0.007
    7  0.006  0.001  0.000  0.007
    8  0.006  0.001  0.000  0.007
    9  0.006  0.001  0.000  0.007
   10  0.024  0.000  0.000  0.024
   11  0.024  0.000  0.000  0.025
   12  0.024  0.000  0.000  0.024
   13  0.024  0.000  0.000  0.025
   14  0.024  0.000  0.000  0.025
   15  0.024  0.000  0.000  0.024
   16  0.024  0.000  0.000  0.024
   17  0.024  0.000  0.000  0.024
   18  0.024  0.000  0.000  0.024
   19  0.022  0.000  0.000  0.023
   20  0.024  0.000  0.000  0.024
   21  0.024  0.000  0.000  0.024
   22  0.023  0.000  0.000  0.023
   23  0.024  0.000  0.000  0.024
   24  0.023  0.000  0.000  0.023
   25  0.022  0.000  0.000  0.023
   26  0.022  0.000  0.000  0.023
   27  0.023  0.000  0.000  0.023
   28  0.005  0.001  0.000  0.006
   29  0.005  0.001  0.000  0.006
   30  0.005  0.001  0.000  0.006
   31  0.005  0.001  0.000  0.006
   32  0.005  0.001  0.000  0.006
   33  0.005  0.001  0.000  0.006
   34  0.005  0.001  0.000  0.006
   35  0.005  0.001  0.000  0.006
   36  0.006  0.001  0.000  0.006
tot    0.524  0.013  0.006  0.543
 
band     2 # energy   -5.45363553 # occ.  2.00000000
 
ion      s      p      d    tot
    1  0.008  0.000  0.000  0.009
    2  0.008  0.000  0.000  0.009
    3  0.008  0.000  0.000  0.009
    4  0.008  0.000  0.000  0.009
    5  0.008  0.000  0.000  0.009
    6  0.008  0.000  0.000  0.009
    7  0.008  0.000  0.000  0.009
    8  0.008  0.000  0.000  0.009
    9  0.008  0.000  0.000  0.009
   10  0.011  0.001  0.015  0.027
   11  0.011  0.001  0.015  0.027
   12  0.011  0.001  0.015  0.027
   13  0.011  0.001  0.015  0.027
   14  0.011  0.001  0.015  0.027
   15  0.010  0.001  0.015  0.026
   16  0.011  0.001  0.015  0.027
   17  0.010  0.001  0.015  0.026
   18  0.010  0.001  0.015  0.026
   19  0.012  0.001  0.016  0.030
   20  0.013  0.001  0.017  0.031
   21  0.013  0.001  0.017  0.031
   22  0.013  0.001  0.016  0.030
   23  0.013  0.001  0.017  0.031
   24  0.013  0.001  0.016  0.030
   25  0.012  0.001  0.016  0.030
   26  0.012  0.001  0.016  0.030
   27  0.013  0.001  0.016  0.030
   28  0.007  0.000  0.000  0.008
   29  0.007  0.000  0.000  0.007
   30  0.007  0.000  0.000  0.007
   31  0.007  0.000  0.000  0.007
   32  0.007  0.000  0.000  0.007
   33  0.007  0.000  0.000  0.007
   34  0.007  0.000  0.000  0.007
   35  0.007  0.000  0.000  0.007
   36  0.007  0.000  0.000  0.007
tot    0.341  0.025  0.287  0.653
 
band     3 # energy   -5.17062451 # occ.  2.00000000
 
ion      s      p      d    tot
    1  0.015  0.000  0.028  0.043
    2  0.016  0.000  0.026  0.042
    3  0.016  0.000  0.026  0.042
    4  0.016  0.000  0.026  0.042
    5  0.016  0.000  0.026  0.042
    6  0.016  0.000  0.026  0.042
    7  0.016  0.000  0.026  0.042
    8  0.016  0.000  0.026  0.042
    9  0.017  0.000  0.025  0.042
   10  0.001  0.001  0.021  0.022
   11  0.001  0.001  0.024  0.026
   12  0.001  0.001  0.021  0.022
   13  0.001  0.001  0.024  0.026
   14  0.001  0.001  0.024  0.026
   15  0.000  0.000  0.024  0.024
   16  0.001  0.001  0.021  0.022
   17  0.000  0.000  0.024  0.024
   18  0.000  0.000  0.024  0.024
   19  0.000  0.000  0.007  0.007
   20  0.000  0.000  0.010  0.010
   21  0.000  0.000  0.010  0.010
   22  0.000  0.000  0.010  0.010
   23  0.000  0.000  0.010  0.010
   24  0.000  0.000  0.010  0.010
   25  0.000  0.000  0.007  0.007
   26  0.000  0.000  0.007  0.007
   27  0.000  0.000  0.010  0.010
   28  0.004  0.000  0.006  0.011
   29  0.005  0.000  0.005  0.010
   30  0.005  0.000  0.005  0.010
   31  0.005  0.000  0.005  0.010
   32  0.005  0.000  0.005  0.010
   33  0.005  0.000  0.005  0.010
   34  0.005  0.000  0.005  0.010
   35  0.005  0.000  0.007  0.011
   36  0.004  0.000  0.000  0.005
tot    0.191  0.006  0.567  0.764
 
band     4 # energy   -5.05745448 # occ.  2.00000000
 
ion      s      p      d    tot
    1  0.005  0.001  0.003  0.009
    2  0.000  0.000  0.005  0.005
    3  0.000  0.000  0.005  0.005
    4  0.000  0.000  0.005  0.005
    5  0.000  0.000  0.002  0.002
    6  0.000  0.000  0.005  0.005
    7  0.000  0.000  0.005  0.005
    8  0.000  0.000  0.005  0.005
    9  0.001  0.001  0.006  0.008
   10  0.004  0.000  0.067  0.071
   11  0.001  0.001  0.025  0.027
   12  0.004  0.000  0.067  0.071
   13  0.001  0.001  0.025  0.027
   14  0.001  0.001  0.025  0.027
   15  0.015  0.001  0.016  0.032
   16  0.004  0.000  0.067  0.071
   17  0.015  0.001  0.016  0.032
   18  0.015  0.001  0.016  0.032
   19  0.000  0.001  0.025  0.026
   20  0.007  0.000  0.049  0.056
   21  0.007  0.000  0.049  0.056
   22  0.012  0.001  0.009  0.022
   23  0.007  0.000  0.049  0.056
   24  0.012  0.001  0.009  0.022
   25  0.000  0.001  0.025  0.026
   26  0.000  0.001  0.025  0.026
   27  0.012  0.001  0.009  0.022
   28  0.000  0.000  0.002  0.002
   29  0.000  0.000  0.006  0.006
   30  0.000  0.000  0.006  0.006
   31  0.000  0.000  0.006  0.006
   32  0.000  0.000  0.006  0.006
   33  0.000  0.000  0.006  0.006
   34  0.000  0.000  0.006  0.006
   35  0.001  0.001  0.003  0.004
   36  0.006  0.001  0.000  0.008
tot    0.133  0.017  0.652  0.802
 
band     5 # energy   -5.04936840 # occ.  2.00000000
 
ion      s      p      d    tot
    1  0.001  0.000  0.001  0.002
    2  0.000  0.000  0.005  0.006
    3  0.000  0.000  0.005  0.006
    4  0.000  0.000  0.005  0.006
    5  0.005  0.001  0.005  0.011
    6  0.000  0.000  0.005  0.006
    7  0.000  0.000  0.005  0.006
    8  0.000  0.000  0.005  0.006
    9  0.001  0.000  0.004  0.005
   10  0.009  0.001  0.004  0.014
   11  0.013  0.000  0.047  0.060
   12  0.009  0.001  0.004  0.014
   13  0.013  0.000  0.047  0.060
   14  0.012  0.000  0.047  0.060
   15  0.001  0.000  0.053  0.053
   16  0.009  0.001  0.004  0.014
   17  0.001  0.000  0.053  0.053
   18  0.000  0.000  0.053  0.054
   19  0.011  0.001  0.026  0.038
   20  0.005  0.001  0.014  0.020
   21  0.005  0.001  0.014  0.020
   22  0.001  0.000  0.050  0.051
   23  0.005  0.001  0.014  0.020
   24  0.001  0.000  0.050  0.051
   25  0.011  0.001  0.026  0.038
   26  0.011  0.001  0.026  0.038
   27  0.001  0.000  0.050  0.051
   28  0.003  0.001  0.004  0.008
   29  0.000  0.000  0.004  0.004
   30  0.000  0.000  0.004  0.004
   31  0.000  0.000  0.004  0.004
   32  0.000  0.000  0.004  0.004
   33  0.000  0.000  0.004  0.004
   34  0.000  0.000  0.004  0.004
   35  0.002  0.000  0.004  0.007
   36  0.000  0.000  0.000  0.000
tot    0.131  0.017  0.653  0.800
 
band     6 # energy   -5.04400817 # occ.  2.00000000
 
ion      s      p      d    tot
    1  0.000  0.000  0.001  0.001
    2  0.000  0.000  0.004  0.004
    3  0.002  0.001  0.007  0.009
    4  0.000  0.000  0.004  0.004
    5  0.000  0.000  0.010  0.010
    6  0.001  0.000  0.004  0.005
    7  0.002  0.001  0.007  0.009
    8  0.001  0.000  0.003  0.005
    9  0.000  0.000  0.006  0.006
   10  0.000  0.000  0.027  0.027
   11  0.007  0.000  0.083  0.090
   12  0.000  0.001  0.043  0.044
   13  0.007  0.000  0.083  0.090
   14  0.027  0.001  0.003  0.031
   15  0.005  0.001  0.023  0.030
   16  0.000  0.001  0.043  0.044
   17  0.005  0.001  0.023  0.030
   18  0.021  0.000  0.034  0.056
   19  0.001  0.000  0.032  0.033
   20  0.006  0.000  0.029  0.035
   21  0.002  0.001  0.017  0.020
   22  0.005  0.001  0.036  0.042
   23  0.002  0.001  0.017  0.020
   24  0.020  0.001  0.010  0.031
   25  0.004  0.001  0.011  0.015
   26  0.001  0.000  0.032  0.033
   27  0.005  0.001  0.036  0.042
   28  0.000  0.000  0.002  0.002
   29  0.002  0.000  0.003  0.005
   30  0.000  0.000  0.002  0.002
   31  0.002  0.000  0.003  0.005
   32  0.001  0.000  0.003  0.004
   33  0.000  0.000  0.002  0.002
   34  0.001  0.000  0.003  0.004
   35  0.000  0.000  0.009  0.009
   36  0.000  0.000  0.000  0.000
tot    0.130  0.017  0.653  0.800
 
band     7 # energy   -5.04399862 # occ.  2.00000000
 
ion      s      p      d    tot
    1  0.000  0.000  0.001  0.001
    2  0.002  0.001  0.005  0.008
    3  0.000  0.000  0.003  0.003
    4  0.002  0.001  0.005  0.008
    5  0.000  0.000  0.010  0.010
    6  0.001  0.000  0.006  0.007
    7  0.000  0.000  0.003  0.003
    8  0.001  0.000  0.006  0.007
    9  0.000  0.000  0.006  0.006
   10  0.000  0.001  0.048  0.049
   11  0.020  0.001  0.030  0.051
   12  0.000  0.000  0.032  0.033
   13  0.020  0.001  0.029  0.050
   14  0.000  0.000  0.110  0.110
   15  0.016  0.001  0.031  0.047
   16  0.000  0.000  0.032  0.033
   17  0.016  0.001  0.031  0.047
   18  0.000  0.002  0.019  0.021
   19  0.003  0.000  0.018  0.021
   20  0.000  0.001  0.014  0.015
   21  0.005  0.001  0.025  0.030
   22  0.015  0.001  0.019  0.035
   23  0.005  0.001  0.025  0.030
   24  0.000  0.001  0.045  0.045
   25  0.000  0.000  0.039  0.039
   26  0.003  0.000  0.017  0.021
   27  0.015  0.001  0.019  0.035
   28  0.000  0.000  0.002  0.002
   29  0.000  0.000  0.002  0.002
   30  0.002  0.000  0.003  0.006
   31  0.000  0.000  0.002  0.002
   32  0.001  0.000  0.003  0.004
   33  0.002  0.000  0.003  0.006
   34  0.001  0.000  0.003  0.004
   35  0.000  0.000  0.009  0.009
   36  0.000  0.000  0.000  0.000
tot    0.130  0.017  0.653  0.800
 
band     8 # energy   -5.03523259 # occ.  2.00000000
 
ion      s      p      d    tot
    1  0.000  0.000  0.009  0.009
    2  0.001  0.001  0.005  0.007
    3  0.000  0.000  0.003  0.003
    4  0.001  0.001  0.006  0.008
    5  0.000  0.000  0.001  0.001
    6  0.001  0.000  0.005  0.006
    7  0.000  0.000  0.003  0.003
    8  0.001  0.000  0.005  0.006
    9  0.000  0.000  0.005  0.005
   10  0.028  0.001  0.020  0.049
   11  0.001  0.001  0.021  0.023
   12  0.008  0.001  0.045  0.054
   13  0.001  0.001  0.023  0.025
   14  0.004  0.000  0.041  0.046
   15  0.002  0.000  0.084  0.086
   16  0.006  0.001  0.048  0.055
   17  0.003  0.000  0.077  0.081
   18  0.011  0.001  0.009  0.020
   19  0.003  0.001  0.019  0.023
   20  0.015  0.001  0.007  0.022
   21  0.004  0.000  0.041  0.046
   22  0.000  0.001  0.034  0.035
   23  0.003  0.000  0.045  0.048
   24  0.000  0.000  0.025  0.025
   25  0.013  0.001  0.024  0.037
   26  0.004  0.001  0.020  0.024
   27  0.000  0.001  0.035  0.035
   28  0.000  0.000  0.005  0.005
   29  0.000  0.000  0.002  0.003
   30  0.001  0.000  0.004  0.005
   31  0.000  0.000  0.002  0.002
   32  0.000  0.000  0.002  0.002
   33  0.001  0.000  0.003  0.005
   34  0.001  0.000  0.002  0.002
   35  0.000  0.000  0.001  0.001
   36  0.000  0.000  0.001  0.001
tot    0.114  0.016  0.680  0.809
 
band     9 # energy   -5.03522699 # occ.  2.00000000
 
ion      s      p      d    tot
    1  0.000  0.000  0.009  0.009
    2  0.000  0.000  0.003  0.004
    3  0.001  0.001  0.006  0.008
    4  0.000  0.000  0.003  0.003
    5  0.000  0.000  0.001  0.001
    6  0.001  0.000  0.004  0.005
    7  0.001  0.001  0.006  0.008
    8  0.001  0.000  0.004  0.005
    9  0.000  0.000  0.005  0.005
   10  0.000  0.001  0.055  0.056
   11  0.003  0.000  0.036  0.040
   12  0.020  0.001  0.030  0.051
   13  0.003  0.001  0.034  0.038
   14  0.000  0.002  0.015  0.017
   15  0.009  0.000  0.029  0.038
   16  0.022  0.001  0.028  0.050
   17  0.008  0.000  0.036  0.044
   18  0.000  0.000  0.105  0.105
   19  0.010  0.001  0.023  0.033
   20  0.000  0.000  0.055  0.055
   21  0.010  0.001  0.020  0.032
   22  0.000  0.000  0.029  0.029
   23  0.011  0.001  0.017  0.029
   24  0.000  0.001  0.037  0.038
   25  0.000  0.001  0.018  0.019
   26  0.009  0.001  0.022  0.032
   27  0.000  0.000  0.028  0.028
   28  0.000  0.000  0.005  0.005
   29  0.001  0.000  0.003  0.004
   30  0.000  0.000  0.002  0.002
   31  0.001  0.000  0.003  0.004
   32  0.001  0.000  0.003  0.004
   33  0.000  0.000  0.002  0.002
   34  0.000  0.000  0.003  0.004
   35  0.000  0.000  0.001  0.001
   36  0.000  0.000  0.001  0.001
tot    0.114  0.016  0.680  0.809
 
band    10 # energy   -5.02109879 # occ.  2.00000000
 
ion      s      p      d    tot
    1  0.000  0.001  0.010  0.011
    2  0.000  0.000  0.010  0.010
    3  0.000  0.000  0.010  0.010
    4  0.000  0.000  0.010  0.010
    5  0.000  0.000  0.003  0.003
    6  0.000  0.000  0.010  0.010
    7  0.000  0.000  0.010  0.010
    8  0.000  0.000  0.010  0.010
    9  0.008  0.001  0.002  0.010
   10  0.004  0.000  0.024  0.028
   11  0.000  0.000  0.053  0.053
   12  0.004  0.000  0.024  0.028
   13  0.000  0.000  0.053  0.053
   14  0.000  0.000  0.053  0.053
   15  0.001  0.000  0.021  0.023
   16  0.004  0.000  0.024  0.028
   17  0.001  0.000  0.021  0.023
   18  0.001  0.000  0.021  0.023
   19  0.004  0.000  0.006  0.010
   20  0.001  0.000  0.044  0.045
   21  0.001  0.000  0.044  0.045
   22  0.002  0.000  0.060  0.062
   23  0.001  0.000  0.044  0.045
   24  0.002  0.000  0.060  0.063
   25  0.004  0.000  0.006  0.010
   26  0.004  0.000  0.006  0.010
   27  0.002  0.000  0.060  0.062
   28  0.007  0.001  0.000  0.008
   29  0.001  0.000  0.010  0.011
   30  0.001  0.000  0.010  0.011
   31  0.001  0.000  0.010  0.011
   32  0.001  0.000  0.010  0.011
   33  0.001  0.000  0.010  0.011
   34  0.001  0.000  0.010  0.011
   35  0.000  0.000  0.017  0.018
   36  0.001  0.000  0.000  0.002
tot    0.061  0.007  0.772  0.841
 
band    11 # energy   -5.00415832 # occ.  2.00000000
 
ion      s      p      d    tot
    1  0.007  0.000  0.008  0.016
    2  0.000  0.000  0.011  0.012
    3  0.000  0.000  0.011  0.012
    4  0.000  0.000  0.011  0.012
    5  0.001  0.001  0.004  0.006
    6  0.000  0.000  0.011  0.011
    7  0.000  0.000  0.011  0.012
    8  0.000  0.000  0.011  0.011
    9  0.000  0.000  0.003  0.003
   10  0.000  0.000  0.048  0.048
   11  0.005  0.000  0.009  0.014
   12  0.000  0.000  0.048  0.048
   13  0.005  0.000  0.009  0.014
   14  0.005  0.000  0.009  0.014
   15  0.001  0.000  0.040  0.041
   16  0.000  0.000  0.048  0.048
   17  0.001  0.000  0.040  0.041
   18  0.001  0.000  0.040  0.041
   19  0.001  0.000  0.066  0.067
   20  0.003  0.001  0.018  0.021
   21  0.003  0.001  0.018  0.021
   22  0.003  0.000  0.023  0.026
   23  0.003  0.001  0.018  0.021
   24  0.003  0.000  0.023  0.026
   25  0.001  0.000  0.066  0.067
   26  0.001  0.000  0.066  0.067
   27  0.003  0.000  0.023  0.026
   28  0.003  0.000  0.019  0.022
   29  0.001  0.000  0.009  0.010
   30  0.001  0.000  0.009  0.010
   31  0.001  0.000  0.009  0.010
   32  0.001  0.000  0.009  0.010
   33  0.001  0.000  0.009  0.010
   34  0.001  0.000  0.009  0.010
   35  0.001  0.000  0.002  0.003
   36  0.006  0.001  0.000  0.007
tot    0.063  0.007  0.772  0.842
 
band    12 # energy   -4.99666725 # occ.  2.00000000
 
ion      s      p      d    tot
    1  0.000  0.000  0.021  0.021
    2  0.003  0.000  0.006  0.010
    3  0.001  0.000  0.009  0.010
    4  0.003  0.000  0.006  0.010
    5  0.000  0.000  0.008  0.009
    6  0.001  0.000  0.007  0.008
    7  0.001  0.000  0.009  0.010
    8  0.001  0.000  0.007  0.008
    9  0.000  0.000  0.005  0.005
   10  0.000  0.000  0.047  0.047
   11  0.000  0.000  0.032  0.032
   12  0.001  0.000  0.034  0.035
   13  0.000  0.000  0.031  0.032
   14  0.000  0.000  0.011  0.011
   15  0.002  0.000  0.018  0.021
   16  0.001  0.000  0.033  0.035
   17  0.002  0.000  0.018  0.021
   18  0.000  0.000  0.049  0.049
   19  0.008  0.000  0.037  0.046
   20  0.000  0.000  0.104  0.104
   21  0.007  0.000  0.031  0.039
   22  0.000  0.000  0.033  0.034
   23  0.007  0.000  0.031  0.038
   24  0.000  0.000  0.015  0.015
   25  0.000  0.000  0.056  0.056
   26  0.008  0.000  0.037  0.046
   27  0.000  0.000  0.034  0.034
   28  0.000  0.000  0.012  0.012
   29  0.000  0.000  0.008  0.009
   30  0.002  0.000  0.004  0.006
   31  0.000  0.000  0.008  0.009
   32  0.002  0.001  0.005  0.008
   33  0.002  0.000  0.004  0.006
   34  0.002  0.001  0.005  0.008
   35  0.000  0.000  0.004  0.004
   36  0.000  0.000  0.001  0.001
tot    0.056  0.008  0.781  0.844
 
band    13 # energy   -4.99661193 # occ.  2.00000000
 
ion      s      p      d    tot
    1  0.000  0.000  0.021  0.021
    2  0.000  0.000  0.008  0.008
    3  0.002  0.000  0.006  0.008
    4  0.000  0.000  0.008  0.008
    5  0.000  0.000  0.008  0.009
    6  0.002  0.000  0.008  0.010
    7  0.002  0.000  0.006  0.008
    8  0.002  0.000  0.008  0.010
    9  0.000  0.000  0.005  0.006
   10  0.002  0.000  0.029  0.031
   11  0.000  0.000  0.017  0.017
   12  0.000  0.000  0.042  0.043
   13  0.000  0.000  0.017  0.018
   14  0.000  0.000  0.039  0.039
   15  0.001  0.000  0.039  0.040
   16  0.000  0.000  0.042  0.043
   17  0.001  0.000  0.038  0.039
   18  0.003  0.000  0.008  0.012
   19  0.003  0.000  0.050  0.053
   20  0.010  0.000  0.006  0.016
   21  0.003  0.000  0.080  0.082
   22  0.000  0.000  0.021  0.021
   23  0.002  0.000  0.080  0.083
   24  0.000  0.000  0.040  0.040
   25  0.011  0.000  0.031  0.042
   26  0.003  0.000  0.050  0.053
   27  0.000  0.000  0.021  0.021
   28  0.000  0.000  0.012  0.012
   29  0.002  0.000  0.004  0.006
   30  0.001  0.001  0.008  0.009
   31  0.002  0.000  0.004  0.006
   32  0.000  0.000  0.007  0.007
   33  0.001  0.001  0.008  0.009
   34  0.000  0.000  0.007  0.007
   35  0.000  0.000  0.004  0.004
   36  0.000  0.000  0.001  0.001
tot    0.056  0.008  0.781  0.844
 
band    14 # energy   -4.98931160 # occ.  2.00000000
 
ion      s      p      d    tot
    1  0.000  0.000  0.004  0.005
    2  0.004  0.000  0.006  0.011
    3  0.001  0.000  0.010  0.011
    4  0.004  0.000  0.006  0.011
    5  0.000  0.000  0.015  0.015
    6  0.001  0.000  0.008  0.010
    7  0.001  0.000  0.010  0.011
    8  0.001  0.000  0.009  0.010
    9  0.000  0.000  0.019  0.019
   10  0.006  0.000  0.015  0.021
   11  0.001  0.000  0.047  0.048
   12  0.001  0.000  0.037  0.038
   13  0.001  0.000  0.046  0.048
   14  0.005  0.000  0.017  0.023
   15  0.000  0.000  0.026  0.026
   16  0.001  0.000  0.037  0.039
   17  0.000  0.000  0.026  0.026
   18  0.000  0.000  0.045  0.045
   19  0.001  0.000  0.051  0.053
   20  0.002  0.000  0.044  0.046
   21  0.000  0.000  0.019  0.020
   22  0.003  0.000  0.066  0.070
   23  0.000  0.000  0.019  0.019
   24  0.014  0.000  0.012  0.026
   25  0.005  0.000  0.014  0.020
   26  0.001  0.000  0.051  0.052
   27  0.003  0.000  0.067  0.071
   28  0.000  0.000  0.003  0.004
   29  0.000  0.000  0.007  0.007
   30  0.001  0.000  0.002  0.003
   31  0.000  0.000  0.007  0.007
   32  0.001  0.001  0.006  0.008
   33  0.001  0.000  0.002  0.003
   34  0.001  0.001  0.006  0.008
   35  0.000  0.000  0.008  0.008
   36  0.000  0.000  0.001  0.001
tot    0.064  0.008  0.770  0.842
 
band    15 # energy   -4.98926927 # occ.  2.00000000
 
ion      s      p      d    tot
    1  0.000  0.000  0.004  0.005
    2  0.000  0.000  0.010  0.011
    3  0.003  0.001  0.007  0.010
    4  0.000  0.000  0.010  0.011
    5  0.000  0.000  0.015  0.015
    6  0.003  0.000  0.008  0.011
    7  0.003  0.001  0.007  0.010
    8  0.003  0.000  0.008  0.011
    9  0.000  0.000  0.019  0.019
   10  0.000  0.000  0.044  0.044
   11  0.004  0.000  0.027  0.031
   12  0.004  0.000  0.022  0.027
   13  0.004  0.000  0.027  0.031
   14  0.000  0.000  0.056  0.056
   15  0.000  0.000  0.039  0.039
   16  0.004  0.000  0.022  0.026
   17  0.000  0.000  0.039  0.039
   18  0.000  0.000  0.019  0.020
   19  0.004  0.000  0.026  0.030
   20  0.000  0.000  0.011  0.011
   21  0.001  0.000  0.035  0.037
   22  0.010  0.000  0.031  0.041
   23  0.001  0.000  0.036  0.037
   24  0.000  0.000  0.085  0.085
   25  0.000  0.000  0.064  0.064
   26  0.004  0.000  0.027  0.031
   27  0.010  0.000  0.030  0.041
   28  0.000  0.000  0.003  0.004
   29  0.002  0.000  0.003  0.005
   30  0.001  0.000  0.008  0.009
   31  0.002  0.000  0.003  0.005
   32  0.000  0.000  0.004  0.004
   33  0.001  0.000  0.008  0.009
   34  0.000  0.000  0.004  0.004
   35  0.000  0.000  0.008  0.008
   36  0.000  0.000  0.001  0.001
tot    0.064  0.008  0.770  0.842
 
band    16 # energy   -4.95656335 # occ.  2.00000000
 
ion      s      p      d    tot
    1  0.001  0.000  0.003  0.004
    2  0.002  0.000  0.010  0.012
    3  0.002  0.000  0.010  0.012
    4  0.002  0.000  0.010  0.012
    5  0.006  0.000  0.007  0.013
    6  0.002  0.000  0.010  0.012
    7  0.002  0.000  0.010  0.012
    8  0.002  0.000  0.010  0.012
    9  0.001  0.000  0.015  0.016
   10  0.001  0.000  0.005  0.006
   11  0.001  0.000  0.013  0.014
   12  0.001  0.000  0.005  0.006
   13  0.001  0.000  0.013  0.014
   14  0.001  0.000  0.013  0.014
   15  0.002  0.000  0.014  0.016
   16  0.001  0.000  0.005  0.006
   17  0.002  0.000  0.014  0.016
   18  0.002  0.000  0.014  0.016
   19  0.002  0.000  0.016  0.018
   20  0.003  0.001  0.031  0.035
   21  0.003  0.001  0.031  0.035
   22  0.000  0.001  0.022  0.023
   23  0.003  0.001  0.031  0.035
   24  0.000  0.001  0.022  0.023
   25  0.002  0.000  0.016  0.018
   26  0.002  0.000  0.016  0.018
   27  0.000  0.001  0.022  0.023
   28  0.008  0.000  0.022  0.031
   29  0.012  0.000  0.029  0.042
   30  0.012  0.000  0.029  0.042
   31  0.012  0.000  0.029  0.042
   32  0.012  0.000  0.029  0.042
   33  0.012  0.000  0.029  0.042
   34  0.012  0.000  0.029  0.042
   35  0.024  0.000  0.025  0.049
   36  0.008  0.000  0.003  0.011
tot    0.161  0.009  0.610  0.781
 
band    17 # energy   -4.83729948 # occ.  2.00000000
 
ion      s      p      d    tot
    1  0.002  0.001  0.005  0.009
    2  0.000  0.000  0.011  0.011
    3  0.000  0.000  0.010  0.011
    4  0.000  0.000  0.011  0.011
    5  0.003  0.000  0.002  0.006
    6  0.000  0.000  0.010  0.011
    7  0.000  0.000  0.010  0.011
    8  0.000  0.000  0.010  0.011
    9  0.000  0.000  0.009  0.009
   10  0.000  0.001  0.042  0.043
   11  0.000  0.000  0.022  0.022
   12  0.000  0.001  0.042  0.042
   13  0.000  0.000  0.022  0.022
   14  0.000  0.000  0.021  0.022
   15  0.002  0.001  0.053  0.056
   16  0.000  0.001  0.042  0.042
   17  0.002  0.001  0.053  0.056
   18  0.002  0.001  0.053  0.056
   19  0.001  0.000  0.028  0.030
   20  0.000  0.000  0.024  0.025
   21  0.000  0.000  0.024  0.024
   22  0.001  0.001  0.054  0.056
   23  0.000  0.000  0.024  0.024
   24  0.001  0.001  0.053  0.055
   25  0.001  0.000  0.028  0.030
   26  0.001  0.000  0.028  0.030
   27  0.001  0.001  0.054  0.056
   28  0.003  0.000  0.006  0.010
   29  0.000  0.000  0.009  0.010
   30  0.000  0.000  0.009  0.010
   31  0.000  0.000  0.009  0.010
   32  0.000  0.000  0.009  0.010
   33  0.000  0.000  0.009  0.010
   34  0.000  0.000  0.009  0.010
   35  0.002  0.000  0.004  0.007
   36  0.003  0.001  0.000  0.004
tot    0.030  0.015  0.814  0.860
 
band    18 # energy   -4.83489808 # occ.  2.00000000
 
ion      s      p      d    tot
    1  0.001  0.000  0.004  0.005
    2  0.000  0.000  0.010  0.011
    3  0.000  0.000  0.010  0.011
    4  0.000  0.000  0.010  0.011
    5  0.001  0.001  0.015  0.017
    6  0.000  0.000  0.010  0.011
    7  0.000  0.000  0.010  0.011
    8  0.000  0.000  0.010  0.011
    9  0.004  0.001  0.000  0.005
   10  0.002  0.000  0.035  0.037
   11  0.000  0.001  0.060  0.061
   12  0.002  0.000  0.035  0.037
   13  0.000  0.001  0.060  0.061
   14  0.000  0.001  0.059  0.060
   15  0.000  0.000  0.021  0.021
   16  0.002  0.000  0.035  0.037
   17  0.000  0.000  0.021  0.021
   18  0.000  0.000  0.021  0.021
   19  0.001  0.001  0.050  0.051
   20  0.001  0.000  0.055  0.056
   21  0.001  0.000  0.054  0.056
   22  0.000  0.000  0.011  0.012
   23  0.001  0.000  0.054  0.055
   24  0.000  0.000  0.011  0.011
   25  0.001  0.001  0.049  0.051
   26  0.001  0.001  0.049  0.051
   27  0.000  0.000  0.011  0.012
   28  0.004  0.001  0.003  0.008
   29  0.000  0.000  0.008  0.009
   30  0.000  0.000  0.008  0.009
   31  0.000  0.000  0.008  0.009
   32  0.000  0.000  0.008  0.009
   33  0.000  0.000  0.008  0.009
   34  0.000  0.000  0.008  0.009
   35  0.001  0.000  0.001  0.002
   36  0.000  0.000  0.002  0.002
tot    0.025  0.014  0.827  0.866
 
band    19 # energy   -4.82774374 # occ.  2.00000000
 
ion      s      p      d    tot
    1  0.000  0.000  0.003  0.003
    2  0.000  0.000  0.010  0.010
    3  0.001  0.001  0.005  0.007
    4  0.000  0.000  0.010  0.010
    5  0.000  0.001  0.018  0.019
    6  0.001  0.001  0.009  0.011
    7  0.001  0.001  0.005  0.007
    8  0.001  0.001  0.009  0.011
    9  0.000  0.000  0.009  0.009
   10  0.000  0.000  0.057  0.057
   11  0.002  0.000  0.055  0.057
   12  0.000  0.001  0.031  0.032
   13  0.001  0.000  0.056  0.057
   14  0.000  0.000  0.087  0.087
   15  0.001  0.001  0.032  0.035
   16  0.000  0.001  0.030  0.031
   17  0.001  0.001  0.031  0.034
   18  0.000  0.000  0.003  0.003
   19  0.003  0.001  0.035  0.038
   20  0.000  0.000  0.079  0.080
   21  0.002  0.000  0.044  0.046
   22  0.000  0.001  0.020  0.021
   23  0.002  0.000  0.043  0.044
   24  0.000  0.000  0.020  0.021
   25  0.000  0.000  0.019  0.019
   26  0.003  0.001  0.035  0.038
   27  0.000  0.001  0.020  0.021
   28  0.000  0.001  0.013  0.014
   29  0.001  0.000  0.007  0.008
   30  0.002  0.001  0.004  0.007
   31  0.001  0.000  0.007  0.008
   32  0.000  0.000  0.005  0.006
   33  0.002  0.001  0.004  0.007
   34  0.000  0.000  0.005  0.006
   35  0.000  0.000  0.000  0.000
   36  0.000  0.001  0.001  0.002
tot    0.025  0.015  0.822  0.863
 
band    20 # energy   -4.82771599 # occ.  2.00000000
 
ion      s      p      d    tot
    1  0.000  0.000  0.002  0.002
    2  0.002  0.001  0.006  0.009
    3  0.000  0.000  0.011  0.012
    4  0.002  0.001  0.006  0.009
    5  0.000  0.001  0.018  0.019
    6  0.001  0.000  0.007  0.008
    7  0.000  0.000  0.011  0.012
    8  0.001  0.000  0.007  0.008
    9  0.000  0.000  0.009  0.010
   10  0.000  0.001  0.022  0.023
   11  0.000  0.000  0.078  0.078
   12  0.000  0.000  0.047  0.047
   13  0.001  0.000  0.077  0.077
   14  0.002  0.000  0.045  0.047
   15  0.000  0.000  0.013  0.013
   16  0.000  0.000  0.047  0.048
   17  0.000  0.000  0.013  0.014
   18  0.002  0.001  0.042  0.045
   19  0.001  0.000  0.023  0.024
   20  0.002  0.000  0.031  0.034
   21  0.001  0.000  0.067  0.068
   22  0.000  0.000  0.021  0.021
   23  0.001  0.000  0.068  0.069
   24  0.000  0.001  0.020  0.021
   25  0.003  0.001  0.040  0.045
   26  0.001  0.000  0.023  0.025
   27  0.000  0.000  0.021  0.021
   28  0.000  0.001  0.013  0.014
   29  0.001  0.000  0.004  0.006
   30  0.000  0.000  0.007  0.007
   31  0.001  0.000  0.004  0.006
   32  0.002  0.001  0.005  0.008
   33  0.000  0.000  0.007  0.007
   34  0.002  0.001  0.005  0.008
   35  0.000  0.000  0.000  0.000
   36  0.000  0.001  0.001  0.002
tot    0.025  0.016  0.822  0.863
 
band    21 # energy   -4.82497102 # occ.  2.00000000
 
ion      s      p      d    tot
    1  0.000  0.001  0.017  0.018
    2  0.000  0.000  0.009  0.010
    3  0.001  0.001  0.005  0.007
    4  0.000  0.000  0.010  0.010
    5  0.000  0.000  0.001  0.001
    6  0.001  0.001  0.010  0.012
    7  0.001  0.001  0.005  0.007
    8  0.001  0.001  0.010  0.012
    9  0.000  0.001  0.013  0.013
   10  0.003  0.000  0.050  0.053
   11  0.000  0.000  0.014  0.014
   12  0.001  0.000  0.040  0.040
   13  0.000  0.000  0.015  0.015
   14  0.000  0.001  0.029  0.031
   15  0.000  0.000  0.078  0.078
   16  0.001  0.000  0.039  0.040
   17  0.000  0.000  0.075  0.076
   18  0.001  0.000  0.030  0.032
   19  0.000  0.000  0.050  0.050
   20  0.002  0.001  0.027  0.030
   21  0.000  0.000  0.008  0.009
   22  0.001  0.000  0.057  0.058
   23  0.000  0.000  0.007  0.007
   24  0.003  0.000  0.047  0.050
   25  0.000  0.000  0.020  0.021
   26  0.000  0.000  0.048  0.048
   27  0.001  0.000  0.058  0.058
   28  0.000  0.000  0.003  0.004
   29  0.000  0.000  0.007  0.008
   30  0.001  0.001  0.004  0.006
   31  0.000  0.000  0.008  0.008
   32  0.000  0.000  0.006  0.007
   33  0.001  0.001  0.004  0.006
   34  0.000  0.000  0.006  0.007
   35  0.000  0.001  0.018  0.019
   36  0.000  0.000  0.001  0.001
tot    0.022  0.015  0.828  0.865
 
band    22 # energy   -4.82494709 # occ.  2.00000000
 
ion      s      p      d    tot
    1  0.000  0.001  0.017  0.018
    2  0.002  0.001  0.007  0.009
    3  0.000  0.000  0.011  0.012
    4  0.002  0.001  0.007  0.009
    5  0.000  0.000  0.001  0.001
    6  0.001  0.000  0.006  0.007
    7  0.000  0.000  0.011  0.012
    8  0.001  0.000  0.007  0.007
    9  0.000  0.001  0.013  0.013
   10  0.000  0.000  0.034  0.034
   11  0.000  0.001  0.025  0.026
   12  0.002  0.000  0.046  0.048
   13  0.000  0.001  0.024  0.025
   14  0.000  0.000  0.011  0.011
   15  0.001  0.000  0.045  0.046
   16  0.002  0.000  0.046  0.049