 vasp.6.2.0 18Jan21 (build Jun 12 2021 23:27:24) complex                        
  
 executed on             LinuxIFC date 2022.05.27  05:10:54
 running on   28 total cores
 distrk:  each k-point on   28 cores,    1 groups
 distr:  one band on NCORE=   1 cores,   28 groups


--------------------------------------------------------------------------------------------------------


 INCAR:
   ISMEAR = -5
   SIGMA = 0.1
   ISPIN = 1
   EDIFF = 1.d-5
   EDIFFG = -0.01
   NSW = 0
   NELM = 150
   ENCUT = 500
   ISIF = 2
   IBRION = 2
   LREAL = Auto
   ALGO = Fast
   ICHARG = 11
   LORBIT = 10
   LCHARG = .F.
   LWAVE = .F.

 POTCAR:    PAW_PBE Au 04Oct2007                  
 POTCAR:    PAW_PBE Rh 04Feb2005                  
 POTCAR:    PAW_PBE O 08Apr2002                   
 POTCAR:    PAW_PBE H 15Jun2001                   
 -----------------------------------------------------------------------------
|                                                                             |
|           W    W    AA    RRRRR   N    N  II  N    N   GGGG   !!!           |
|           W    W   A  A   R    R  NN   N  II  NN   N  G    G  !!!           |
|           W    W  A    A  R    R  N N  N  II  N N  N  G       !!!           |
|           W WW W  AAAAAA  RRRRR   N  N N  II  N  N N  G  GGG   !            |
|           WW  WW  A    A  R   R   N   NN  II  N   NN  G    G                |
|           W    W  A    A  R    R  N    N  II  N    N   GGGG   !!!           |
|                                                                             |
|     For optimal performance we recommend to set                             |
|       NCORE = 2 up to number-of-cores-per-socket                            |
|     NCORE specifies how many cores store one orbital (NPAR=cpu/NCORE).      |
|     This setting can greatly improve the performance of VASP for DFT.       |
|     The default, NCORE=1 might be grossly inefficient on modern             |
|     multi-core architectures or massively parallel machines. Do your        |
|     own testing! More info at https://www.vasp.at/wiki/index.php/NCORE      |
|     Unfortunately you need to use the default for GW and RPA                |
|     calculations (for HF NCORE is supported but not extensively tested      |
|     yet).                                                                   |
|                                                                             |
 -----------------------------------------------------------------------------

 POTCAR:    PAW_PBE Au 04Oct2007                  
   VRHFIN =Au: s1d10                                                                                
   LEXCH  = PE                                                                                      
   EATOM  =   926.0867 eV,   68.0654 Ry                                                             
                                                                                                    
   TITEL  = PAW_PBE Au 04Oct2007                                                                    
   LULTRA =        F    use ultrasoft PP ?                                                          
   IUNSCR =        1    unscreen: 0-lin 1-nonlin 2-no                                               
   RPACOR =    2.330    partial core radius                                                         
   POMASS =  196.966; ZVAL   =   11.000    mass and valenz                                          
   RCORE  =    2.500    outmost cutoff radius                                                       
   RWIGS  =    2.840; RWIGS  =    1.503    wigner-seitz radius (au A)                               
   ENMAX  =  229.943; ENMIN  =  172.457 eV                                                          
   ICORE  =        3    local potential                                                             
   LCOR   =        T    correct aug charges                                                         
   LPAW   =        T    paw PP                                                                      
   EAUG   =  356.670                                                                                
   DEXC   =    0.000                                                                                
   RMAX   =    2.562    core radius for proj-oper                                                   
   RAUG   =    1.300    factor for augmentation sphere                                              
   RDEP   =    2.598    radius for radial grids                                                     
   RDEPT  =    2.193    core radius for aug-charge                                                  
                                                                                                    
   Atomic configuration                                                                             
   16 entries                                                                                       
     n  l   j            E        occ.                                                              
     1  0  0.50    -80748.5001   2.0000                                                             
     2  0  0.50    -14244.7466   2.0000                                                             
     2  1  1.50    -12310.9591   6.0000                                                             
     3  0  0.50     -3362.1768   2.0000                                                             
     3  1  1.50     -2801.5463   6.0000                                                             
     3  2  2.50     -2203.8206  10.0000                                                             
     4  0  0.50      -729.8168   2.0000                                                             
     4  1  1.50      -546.0527   6.0000                                                             
     4  2  2.50      -325.7302  10.0000                                                             
     4  3  3.50       -81.1472  14.0000                                                             
     5  0  0.50      -108.3201   2.0000                                                             
     5  1  1.50       -59.7479   6.0000                                                             
     5  2  2.50        -6.8783  10.0000                                                             
     6  0  0.50        -5.7602   1.0000                                                             
     6  1  1.50        -6.8029   0.0000                                                             
     5  3  2.50        -1.3606   0.0000                                                             
   Description                                                                                      
     l       E           TYP  RCUT    TYP  RCUT                                                     
     2     -6.8782861     23  2.500                                                                 
     2     -8.2388687     23  2.500                                                                 
     0     -5.7601759     23  2.500                                                                 
     0     -0.8493231     23  2.500                                                                 
     1     -2.7211652     23  2.500                                                                 
     1     27.2116520     23  2.500                                                                 
     3     -1.3605826     23  2.500                                                                 
  local pseudopotential read in
  partial core-charges read in
  partial kinetic energy density read in
  atomic valenz-charges read in
  non local Contribution for L=           2  read in
    real space projection operators read in
  non local Contribution for L=           2  read in
    real space projection operators read in
  non local Contribution for L=           0  read in
    real space projection operators read in
  non local Contribution for L=           0  read in
    real space projection operators read in
  non local Contribution for L=           1  read in
    real space projection operators read in
  non local Contribution for L=           1  read in
    real space projection operators read in
    PAW grid and wavefunctions read in
 
   number of l-projection  operators is LMAX  =           6
   number of lm-projection operators is LMMAX =          18
 
 POTCAR:    PAW_PBE Rh 04Feb2005                  
   VRHFIN =Rh: s1 d8                                                                                
   LEXCH  = PE                                                                                      
   EATOM  =   616.4198 eV,   45.3056 Ry                                                             
                                                                                                    
   TITEL  = PAW_PBE Rh 04Feb2005                                                                    
   LULTRA =        F    use ultrasoft PP ?                                                          
   IUNSCR =        1    unscreen: 0-lin 1-nonlin 2-no                                               
   RPACOR =    2.170    partial core radius                                                         
   POMASS =  102.906; ZVAL   =    9.000    mass and valenz                                          
   RCORE  =    2.700    outmost cutoff radius                                                       
   RWIGS  =    2.650; RWIGS  =    1.402    wigner-seitz radius (au A)                               
   ENMAX  =  228.996; ENMIN  =  171.747 eV                                                          
   ICORE  =        3    local potential                                                             
   LCOR   =        T    correct aug charges                                                         
   LPAW   =        T    paw PP                                                                      
   EAUG   =  374.513                                                                                
   DEXC   =    0.000                                                                                
   RMAX   =    2.752    core radius for proj-oper                                                   
   RAUG   =    1.300    factor for augmentation sphere                                              
   RDEP   =    2.703    radius for radial grids                                                     
   RDEPT  =    2.174    core radius for aug-charge                                                  
                                                                                                    
   Atomic configuration                                                                             
   12 entries                                                                                       
     n  l   j            E        occ.                                                              
     1  0  0.50    -23034.1986   2.0000                                                             
     2  0  0.50     -3339.2387   2.0000                                                             
     2  1  1.50     -2992.3290   6.0000                                                             
     3  0  0.50      -596.7249   2.0000                                                             
     3  1  1.50      -482.7183   6.0000                                                             
     3  2  2.50      -300.5356  10.0000                                                             
     4  0  0.50       -82.4809   2.0000                                                             
     4  1  0.50       -50.4082   6.0000                                                             
     4  2  2.50        -5.9408   8.0000                                                             
     5  0  0.50        -4.2999   1.0000                                                             
     5  1  1.50        -1.3606   0.0000                                                             
     4  3  2.50        -1.3606   0.0000                                                             
   Description                                                                                      
     l       E           TYP  RCUT    TYP  RCUT                                                     
     2     -5.9407964     23  2.500                                                                 
     2     -7.3013790     23  2.500                                                                 
     0     -4.2998518     23  2.400                                                                 
     0      6.0533315     23  2.400                                                                 
     1     -4.0817478     23  2.700                                                                 
     1     27.2116520     23  2.700                                                                 
     3     -4.0817478     23  2.500                                                                 
  local pseudopotential read in
  partial core-charges read in
  partial kinetic energy density read in
  atomic valenz-charges read in
  non local Contribution for L=           2  read in
    real space projection operators read in
  non local Contribution for L=           2  read in
    real space projection operators read in
  non local Contribution for L=           0  read in
    real space projection operators read in
  non local Contribution for L=           0  read in
    real space projection operators read in
  non local Contribution for L=           1  read in
    real space projection operators read in
  non local Contribution for L=           1  read in
    real space projection operators read in
    PAW grid and wavefunctions read in
 
   number of l-projection  operators is LMAX  =           6
   number of lm-projection operators is LMMAX =          18
 
 POTCAR:    PAW_PBE O 08Apr2002                   
   VRHFIN =O: s2p4                                                                                  
   LEXCH  = PE                                                                                      
   EATOM  =   432.3788 eV,   31.7789 Ry                                                             
                                                                                                    
   TITEL  = PAW_PBE O 08Apr2002                                                                     
   LULTRA =        F    use ultrasoft PP ?                                                          
   IUNSCR =        1    unscreen: 0-lin 1-nonlin 2-no                                               
   RPACOR =    1.200    partial core radius                                                         
   POMASS =   16.000; ZVAL   =    6.000    mass and valenz                                          
   RCORE  =    1.520    outmost cutoff radius                                                       
   RWIGS  =    1.550; RWIGS  =    0.820    wigner-seitz radius (au A)                               
   ENMAX  =  400.000; ENMIN  =  300.000 eV                                                          
   ICORE  =        2    local potential                                                             
   LCOR   =        T    correct aug charges                                                         
   LPAW   =        T    paw PP                                                                      
   EAUG   =  605.392                                                                                
   DEXC   =    0.000                                                                                
   RMAX   =    1.553    core radius for proj-oper                                                   
   RAUG   =    1.300    factor for augmentation sphere                                              
   RDEP   =    1.550    radius for radial grids                                                     
   RDEPT  =    1.329    core radius for aug-charge                                                  
                                                                                                    
   Atomic configuration                                                                             
    4 entries                                                                                       
     n  l   j            E        occ.                                                              
     1  0  0.50      -514.6923   2.0000                                                             
     2  0  0.50       -23.9615   2.0000                                                             
     2  1  0.50        -9.0305   4.0000                                                             
     3  2  1.50        -9.5241   0.0000                                                             
   Description                                                                                      
     l       E           TYP  RCUT    TYP  RCUT                                                     
     0    -23.9615318     23  1.200                                                                 
     0     -9.5240782     23  1.200                                                                 
     1     -9.0304911     23  1.520                                                                 
     1      8.1634956     23  1.520                                                                 
     2     -9.5240782      7  1.500                                                                 
  local pseudopotential read in
  partial core-charges read in
  partial kinetic energy density read in
  kinetic energy density of atom read in
  atomic valenz-charges read in
  non local Contribution for L=           0  read in
    real space projection operators read in
  non local Contribution for L=           0  read in
    real space projection operators read in
  non local Contribution for L=           1  read in
    real space projection operators read in
  non local Contribution for L=           1  read in
    real space projection operators read in
    PAW grid and wavefunctions read in
 
   number of l-projection  operators is LMAX  =           4
   number of lm-projection operators is LMMAX =           8
 
 POTCAR:    PAW_PBE H 15Jun2001                   
   VRHFIN =H: ultrasoft test                                                                        
   LEXCH  = PE                                                                                      
   EATOM  =    12.4884 eV,    0.9179 Ry                                                             
                                                                                                    
   TITEL  = PAW_PBE H 15Jun2001                                                                     
   LULTRA =        F    use ultrasoft PP ?                                                          
   IUNSCR =        0    unscreen: 0-lin 1-nonlin 2-no                                               
   RPACOR =    0.000    partial core radius                                                         
   POMASS =    1.000; ZVAL   =    1.000    mass and valenz                                          
   RCORE  =    1.100    outmost cutoff radius                                                       
   RWIGS  =    0.700; RWIGS  =    0.370    wigner-seitz radius (au A)                               
   ENMAX  =  250.000; ENMIN  =  200.000 eV                                                          
   RCLOC  =    0.701    cutoff for local pot                                                        
   LCOR   =        T    correct aug charges                                                         
   LPAW   =        T    paw PP                                                                      
   EAUG   =  400.000                                                                                
   RMAX   =    1.123    core radius for proj-oper                                                   
   RAUG   =    1.200    factor for augmentation sphere                                              
   RDEP   =    1.112    radius for radial grids                                                     
   RDEPT  =    0.926    core radius for aug-charge                                                  
                                                                                                    
   Atomic configuration                                                                             
    2 entries                                                                                       
     n  l   j            E        occ.                                                              
     1  0  0.50        -6.4927   1.0000                                                             
     2  1  0.50        -3.4015   0.0000                                                             
   Description                                                                                      
     l       E           TYP  RCUT    TYP  RCUT                                                     
     0     -6.4927494     23  1.100                                                                 
     0      6.8029130     23  1.100                                                                 
     1     -4.0817478     23  1.100                                                                 
  local pseudopotential read in
  atomic valenz-charges read in
  non local Contribution for L=           0  read in
    real space projection operators read in
  non local Contribution for L=           0  read in
    real space projection operators read in
  non local Contribution for L=           1  read in
    real space projection operators read in
    PAW grid and wavefunctions read in
 
   number of l-projection  operators is LMAX  =           3
   number of lm-projection operators is LMMAX =           5
 
 Optimization of the real space projectors (new method)

 maximal supplied QI-value         = 15.12
 optimisation between [QCUT,QGAM] = [ 11.34, 22.83] = [ 36.00,145.93] Ry 
 Optimized for a Real-space Cutoff    1.39 Angstroem

   l    n(q)    QCUT    max X(q) W(low)/X(q) W(high)/X(q)  e(spline) 
   2      9    11.338    60.898    0.39E-03    0.42E-03    0.21E-06
   2      9    11.338    58.894    0.40E-03    0.42E-03    0.22E-06
   0      9    11.338   109.617    0.13E-03    0.20E-04    0.13E-06
   0      9    11.338    75.026    0.13E-03    0.20E-04    0.13E-06
   1      9    11.338    16.344    0.33E-04    0.24E-03    0.18E-06
   1      9    11.338    10.160    0.26E-04    0.19E-03    0.15E-06
 Optimization of the real space projectors (new method)

 maximal supplied QI-value         = 13.98
 optimisation between [QCUT,QGAM] = [ 11.33, 22.79] = [ 35.93,145.49] Ry 
 Optimized for a Real-space Cutoff    1.47 Angstroem

   l    n(q)    QCUT    max X(q) W(low)/X(q) W(high)/X(q)  e(spline) 
   2      9    11.327    59.645    0.31E-03    0.12E-04    0.28E-06
   2      9    11.327    58.460    0.31E-03    0.12E-04    0.29E-06
   0     10    11.327    97.683    0.32E-04    0.83E-04    0.31E-06
   0     10    11.327    53.223    0.30E-04    0.78E-04    0.29E-06
   1     10    11.327    13.596    0.49E-03    0.95E-03    0.55E-06
   1     10    11.327     7.885    0.36E-03    0.71E-03    0.41E-06
 Optimization of the real space projectors (new method)

 maximal supplied QI-value         = 24.76
 optimisation between [QCUT,QGAM] = [ 11.39, 22.77] = [ 36.31,145.25] Ry 
 Optimized for a Real-space Cutoff    1.00 Angstroem

   l    n(q)    QCUT    max X(q) W(low)/X(q) W(high)/X(q)  e(spline) 
   0      7    11.387    20.381    0.39E-03    0.13E-02    0.15E-06
   0      7    11.387    15.268    0.42E-03    0.14E-02    0.17E-06
   1      6    11.387     5.964    0.41E-03    0.11E-02    0.17E-06
   1      6    11.387     5.382    0.39E-03    0.87E-03    0.15E-06
 Optimization of the real space projectors (new method)

 maximal supplied QI-value         = 34.20
 optimisation between [QCUT,QGAM] = [ 11.29, 22.57] = [ 35.68,142.71] Ry 
 Optimized for a Real-space Cutoff    1.16 Angstroem

   l    n(q)    QCUT    max X(q) W(low)/X(q) W(high)/X(q)  e(spline) 
   0      8    11.287    19.460    0.40E-03    0.73E-03    0.16E-06
   0      8    11.287    12.209    0.38E-03    0.70E-03    0.15E-06
   1      7    11.287     4.655    0.22E-03    0.25E-04    0.22E-06
  PAW_PBE Au 04Oct2007                  :
 energy of atom  1       EATOM= -926.0867
 kinetic energy error for atom=    0.0042 (will be added to EATOM!!)
  PAW_PBE Rh 04Feb2005                  :
 energy of atom  2       EATOM= -616.4198
 kinetic energy error for atom=    0.0030 (will be added to EATOM!!)
  PAW_PBE O 08Apr2002                   :
 energy of atom  3       EATOM= -432.3788
 kinetic energy error for atom=    0.0224 (will be added to EATOM!!)
  PAW_PBE H 15Jun2001                   :
 energy of atom  4       EATOM=  -12.4884
 kinetic energy error for atom=    0.0020 (will be added to EATOM!!)
 
 
 POSCAR: Au-Rh-OH
  positions in direct lattice
  velocities in cartesian coordinates
 exchange correlation table for  LEXCH =        8
   RHO(1)=    0.500       N(1)  =     2000
   RHO(2)=  100.500       N(2)  =     4000

 VTST: version 3.2, (02/03/18)

 CHAIN: initializing optimizer
 
 OPT: Using VASP Conjugate-Gradient optimizer
 CHAIN: Read ICHAIN            0
 
 POSCAR: Au-Rh-OH
  positions in direct lattice
  velocities in cartesian coordinates
 


--------------------------------------------------------------------------------------------------------


 ion  position               nearest neighbor table
   1  0.000  0.000  0.238-  16 2.94  12 2.94   6 2.94   8 2.94   7 2.94   3 2.94  10 2.94   4 2.94
                             2 2.94
   2  0.333  0.000  0.238-   9 2.94  11 2.94  17 2.94  10 2.94   8 2.94   4 2.94   5 2.94   1 2.94
                             3 2.94
   3  0.667  0.000  0.238-   7 2.94  18 2.94  12 2.94   1 2.94  11 2.94   5 2.94   6 2.94   9 2.94
                             2 2.94
   4  0.000  0.333  0.238-  10 2.94   6 2.94   5 2.94  13 2.94   2 2.94  15 2.94   9 2.94   1 2.94
                             7 2.94
   5  0.333  0.333  0.238-  13 2.94   7 2.94  11 2.94   4 2.94   2 2.94  14 2.94   3 2.94   8 2.94
                             6 2.94
   6  0.667  0.333  0.238-  15 2.94  14 2.94   1 2.94  12 2.94   4 2.94   9 2.94   8 2.94   3 2.94
                             5 2.94
   7  0.000  0.667  0.238-  18 2.94   3 2.94  16 2.94   5 2.94   1 2.94  13 2.94   8 2.94   4 2.94
                             9 2.94
   8  0.333  0.667  0.238-   9 2.94  17 2.94   1 2.94   2 2.94  14 2.94  16 2.94   6 2.94   7 2.94
                             5 2.94
   9  0.667  0.667  0.238-   2 2.94   8 2.94  17 2.94   6 2.94  15 2.94   4 2.94   3 2.94  18 2.94
                             7 2.94
  10  0.111  0.111  0.346-  20 2.91  26 2.93  19 2.93  11 2.94  17 2.94   2 2.94   4 2.94   1 2.94
                            12 2.94  16 2.94  13 2.94  15 2.94
  11  0.444  0.111  0.346-  20 2.91  21 2.91  27 2.93  13 2.94   2 2.94  10 2.94  17 2.94   5 2.94
                             3 2.94  18 2.94  14 2.94  12 2.94
  12  0.778  0.111  0.346-  21 2.91  25 2.93  19 2.93  16 2.94  18 2.94   1 2.94  14 2.94  15 2.94
                             3 2.94   6 2.94  10 2.94  11 2.94
  13  0.111  0.444  0.346-  23 2.91  20 2.91  22 2.93   5 2.94  18 2.94  11 2.94   7 2.94   4 2.94
                            16 2.94  10 2.94  14 2.94  15 2.94
  14  0.444  0.444  0.346-  21 2.91  23 2.91  24 2.93  15 2.94   6 2.94  12 2.94   8 2.94  17 2.94
                             5 2.94  16 2.94  13 2.94  11 2.94
  15  0.778  0.444  0.346-  24 2.93  22 2.93  19 2.93  14 2.94   6 2.94  17 2.94  12 2.94   9 2.94
                             4 2.94  10 2.94  13 2.94  18 2.94
  16  0.111  0.778  0.346-  23 2.91  25 2.93  26 2.93  18 2.94  12 2.94   7 2.94   1 2.94   8 2.94
                            13 2.94  10 2.94  14 2.94  17 2.94
  17  0.444  0.778  0.346-  27 2.93  24 2.93  26 2.93   9 2.94  15 2.94   2 2.94  10 2.94  11 2.94
                             8 2.94  14 2.94  16 2.94  18 2.94
  18  0.778  0.778  0.346-  22 2.93  27 2.93  25 2.93  16 2.94   7 2.94  13 2.94  12 2.94   3 2.94
                            11 2.94   9 2.94  15 2.94  17 2.94
  19  0.889  0.222  0.454-  15 2.93  10 2.93  12 2.93  21 2.94  20 2.94  24 2.94  22 2.94  26 2.94
                            25 2.94  28 2.96  32 2.96  31 2.96
  20  0.222  0.222  0.453-  36 2.79  10 2.91  11 2.91  13 2.91  26 2.94  19 2.94  23 2.94  21 2.94
                            27 2.94  22 2.94  29 2.95  31 2.95
  21  0.556  0.222  0.453-  36 2.79  12 2.91  14 2.91  11 2.91  25 2.94  19 2.94  20 2.94  23 2.94
                            27 2.94  24 2.94  30 2.95  32 2.95
  22  0.888  0.556  0.454-  24 2.92  27 2.92  18 2.93  15 2.93  13 2.93  25 2.94  19 2.94  23 2.94
                            20 2.94  33 2.95  31 2.95  35 2.96
  23  0.222  0.556  0.453-  36 2.79  16 2.91  13 2.91  14 2.91  25 2.94  26 2.94  20 2.94  21 2.94
                            22 2.94  24 2.94  33 2.95  34 2.95
  24  0.556  0.556  0.454-  27 2.92  22 2.92  15 2.93  17 2.93  14 2.93  26 2.94  19 2.94  21 2.94
                            23 2.94  32 2.95  34 2.95  35 2.96
  25  0.889  0.889  0.454-  18 2.93  16 2.93  12 2.93  23 2.94  21 2.94  22 2.94  27 2.94  19 2.94
                            26 2.94  28 2.96  33 2.96  30 2.96
  26  0.222  0.889  0.454-  17 2.93  10 2.93  16 2.93  20 2.94  23 2.94  27 2.94  24 2.94  19 2.94
                            25 2.94  28 2.96  29 2.96  34 2.96
  27  0.556  0.888  0.454-  24 2.92  22 2.92  17 2.93  18 2.93  11 2.93  26 2.94  25 2.94  20 2.94
                            21 2.94  29 2.95  30 2.95  35 2.96
  28  0.000  0.000  0.563-  34 2.95  32 2.95  33 2.95  30 2.95  31 2.95  29 2.95  25 2.96  19 2.96
                            26 2.96
  29  0.333  0.004  0.562-  31 2.90  30 2.90  36 2.91  20 2.95  27 2.95  28 2.95  35 2.96  26 2.96
                            34 3.01
  30  0.663  0.004  0.562-  32 2.90  29 2.90  36 2.91  21 2.95  27 2.95  28 2.95  35 2.96  25 2.96
                            33 3.01
  31  0.004  0.333  0.562-  29 2.90  33 2.90  36 2.91  20 2.95  22 2.95  28 2.95  35 2.96  19 2.96
                            32 3.01
  32  0.663  0.333  0.562-  30 2.90  34 2.90  36 2.91  21 2.95  24 2.95  28 2.95  35 2.96  19 2.96
                            31 3.01
  33  0.004  0.663  0.562-  34 2.90  31 2.90  36 2.91  23 2.95  22 2.95  28 2.95  35 2.96  25 2.96
                            30 3.01
  34  0.333  0.663  0.562-  33 2.90  32 2.90  36 2.91  23 2.95  24 2.95  28 2.95  35 2.96  26 2.96
                            29 3.01
  35  0.667  0.667  0.563-  29 2.96  34 2.96  32 2.96  31 2.96  30 2.96  33 2.96  24 2.96  27 2.96
                            22 2.96
  36  0.333  0.333  0.552-  37 1.95  20 2.79  23 2.79  21 2.79  33 2.91  31 2.91  29 2.91  30 2.91
                            34 2.91  32 2.91
  37  0.333  0.333  0.640-  38 0.97  36 1.95
  38  0.333  0.333  0.684-  37 0.97
 
  LATTYP: Found a hexagonal cell.
 ALAT       =     8.8135128021
 C/A-ratio  =     2.5184286595
  
  Lattice vectors:
  
 A1 = (  -4.4067569092,  -7.6327256898,   0.0000000000)
 A2 = (   8.8135128021,   0.0000000000,   0.0000000000)
 A3 = (   0.0000000000,   0.0000000000,  22.1962032318)


Analysis of symmetry for initial positions (statically):
=====================================================================
 Subroutine PRICEL returns:
 Original cell was already a primitive cell.
 

 Routine SETGRP: Setting up the symmetry group for a 
 hexagonal supercell.


 Subroutine GETGRP returns: Found  6 space group operations
 (whereof  6 operations were pure point group operations)
 out of a pool of 24 trial point group operations.


The static configuration has the point symmetry C_3v.


Analysis of symmetry for dynamics (positions and initial velocities):
=====================================================================
 Subroutine PRICEL returns:
 Original cell was already a primitive cell.
 

 Routine SETGRP: Setting up the symmetry group for a 
 hexagonal supercell.


 Subroutine GETGRP returns: Found  6 space group operations
 (whereof  6 operations were pure point group operations)
 out of a pool of 24 trial point group operations.


The dynamic configuration has the point symmetry C_3v.


Analysis of constrained symmetry for selective dynamics:
=====================================================================
 Subroutine PRICEL returns:
 Original cell was already a primitive cell.
 

 Routine SETGRP: Setting up the symmetry group for a 
 hexagonal supercell.


 Subroutine GETGRP returns: Found  6 space group operations
 (whereof  6 operations were pure point group operations)
 out of a pool of 24 trial point group operations.


The constrained configuration has the point symmetry C_3v.


 Subroutine INISYM returns: Found  6 space group operations
 (whereof  6 operations are pure point group operations),
 and found     1 'primitive' translations


----------------------------------------------------------------------------------------

                                     Primitive cell                                     

  volume of cell :    1493.1636

  direct lattice vectors                    reciprocal lattice vectors
     8.813512802  0.000000000  0.000000000     0.113462137 -0.065507406  0.000000000
     4.406756909  7.632725690  0.000000000     0.000000000  0.131014796  0.000000000
     0.000000000  0.000000000 22.196203232     0.000000000  0.000000000  0.045052750

  length of vectors
     8.813512802  8.813512802 22.196203232     0.131014796  0.131014796  0.045052750

  position of ions in fractional coordinates (direct lattice)
     0.000000000  0.000000000  0.237895638
     0.333333343  0.000000000  0.237895638
     0.666666687  0.000000000  0.237895638
     1.000000000  0.333333343  0.237895638
     0.333333313  0.333333343  0.237895638
     0.666666687  0.333333343  0.237895638
     1.000000000  0.666666687  0.237895638
     0.333333343  0.666666687  0.237895638
     0.666666627  0.666666687  0.237895638
     0.111111119  0.111111112  0.345965207
     0.444444418  0.111111112  0.345965207
     0.777777791  0.111111112  0.345965207
     0.111111127  0.444444448  0.345965207
     0.444444478  0.444444448  0.345965207
     0.777777731  0.444444448  0.345965207
     0.111111090  0.777777791  0.345965207
     0.444444448  0.777777791  0.345965207
     0.777777851  0.777777791  0.345965207
     0.888885966  0.222228083  0.453813970
     0.222130795  0.222130780  0.452663827
     0.555738470  0.222130780  0.452663827
     0.887850721  0.556074669  0.453573098
     0.222130750  0.555738470  0.452663827
     0.556074669  0.556074669  0.453573098
     0.888885966  0.888885966  0.453813970
     0.222228113  0.888885966  0.453813970
     0.556074609  0.887850721  0.453573098
     0.000000000  0.000000000  0.562921105
     0.333260888  0.003984955  0.562188379
     0.662754188  0.003984955  0.562188379
     0.003984955  0.333260888  0.562188379
     0.662754188  0.333260888  0.562188379
     0.003984955  0.662754188  0.562188379
     0.333260888  0.662754188  0.562188379
     0.666666627  0.666666687  0.562917062
     0.333333313  0.333333343  0.552402061
     0.333333313  0.333333343  0.640113363
     0.333333313  0.333333343  0.683594659

  ion indices of the primitive-cell ions
   primitive index   ion index
                 1           1
                 2           2
                 3           3
                 4           4
                 5           5
                 6           6
                 7           7
                 8           8
                 9           9
                10          10
                11          11
                12          12
                13          13
                14          14
                15          15
                16          16
                17          17
                18          18
                19          19
                20          20
                21          21
                22          22
                23          23
                24          24
                25          25
                26          26
                27          27
                28          28
                29          29
                30          30
                31          31
                32          32
                33          33
                34          34
                35          35
                36          36
                37          37
                38          38

----------------------------------------------------------------------------------------

 
 
 KPOINTS: Automatic mesh                          

Automatic generation of k-mesh.
 Grid dimensions read from file:
 generate k-points for:    8    8    1

 Generating k-lattice:

  Cartesian coordinates                     Fractional coordinates (reciprocal lattice)
     0.014182767 -0.008188426  0.000000000     0.125000000 -0.000000000  0.000000000
     0.000000000  0.016376850  0.000000000     0.000000000  0.125000000  0.000000000
     0.000000000  0.000000000  0.045052750     0.000000000  0.000000000  1.000000000

  Length of vectors
     0.016376850  0.016376850  0.045052750

  Shift w.r.t. Gamma in fractional coordinates (k-lattice)
     0.000000000  0.000000000  0.000000000

 TETIRR: Found     36 inequivalent tetrahedra from      384
 
 Subroutine IBZKPT returns following result:
 ===========================================
 
 Found     10 irreducible k-points:
 
 Following reciprocal coordinates:
            Coordinates               Weight
  0.000000  0.000000  0.000000      1.000000
  0.125000 -0.000000  0.000000      6.000000
  0.250000 -0.000000  0.000000      6.000000
  0.375000  0.000000  0.000000      6.000000
  0.500000 -0.000000  0.000000      3.000000
  0.250000  0.125000  0.000000      6.000000
  0.375000  0.125000  0.000000     12.000000
  0.500000  0.125000  0.000000     12.000000
  0.500000  0.250000  0.000000      6.000000
 -0.375000  0.250000  0.000000      6.000000
 
 Following cartesian coordinates:
            Coordinates               Weight
  0.000000  0.000000  0.000000      1.000000
  0.014183 -0.008188  0.000000      6.000000
  0.028366 -0.016377  0.000000      6.000000
  0.042548 -0.024565  0.000000      6.000000
  0.056731 -0.032754  0.000000      3.000000
  0.028366 -0.000000  0.000000      6.000000
  0.042548 -0.008188  0.000000     12.000000
  0.056731 -0.016377  0.000000     12.000000
  0.056731 -0.000000  0.000000      6.000000
 -0.042548  0.057319  0.000000      6.000000
 


--------------------------------------------------------------------------------------------------------




 Dimension of arrays:
   k-points           NKPTS =     10   k-points in BZ     NKDIM =     10   number of bands    NBANDS=    252
   number of dos      NEDOS =    301   number of ions     NIONS =     38
   non local maximal  LDIM  =      6   non local SUM 2l+1 LMDIM =     18
   total plane-waves  NPLWV = 290304
   max r-space proj   IRMAX =   2660   max aug-charges    IRDMAX=  12088
   dimension x,y,z NGX =    48 NGY =   48 NGZ =  126
   dimension x,y,z NGXF=    96 NGYF=   96 NGZF=  252
   support grid    NGXF=    96 NGYF=   96 NGZF=  252
   ions per type =              35   1   1   1
   NGX,Y,Z   is equivalent  to a cutoff of   9.05,  9.05,  9.44 a.u.
   NGXF,Y,Z  is equivalent  to a cutoff of  18.11, 18.11, 18.87 a.u.

 SYSTEM =  unknown system                          
 POSCAR =  Au-Rh-OH                                

 Startparameter for this run:
   NWRITE =      2    write-flag & timer
   PREC   = normal    normal or accurate (medium, high low for compatibility)
   ISTART =      0    job   : 0-new  1-cont  2-samecut
   ICHARG =     11    charge: 1-file 2-atom 10-const
   ISPIN  =      1    spin polarized calculation?
   LNONCOLLINEAR =      F non collinear calculations
   LSORBIT =      F    spin-orbit coupling
   INIWAV =      1    electr: 0-lowe 1-rand  2-diag
   LASPH  =      F    aspherical Exc in radial PAW
   METAGGA=      F    non-selfconsistent MetaGGA calc.

 Electronic Relaxation 1
   ENCUT  =  500.0 eV  36.75 Ry    6.06 a.u.  16.07 16.07 40.47*2*pi/ulx,y,z
   ENINI  =  500.0     initial cutoff
   ENAUG  =  605.4 eV  augmentation charge cutoff
   NELM   =    150;   NELMIN=  2; NELMDL= -5     # of ELM steps 
   EDIFF  = 0.1E-04   stopping-criterion for ELM
   LREAL  =      T    real-space projection
   NLSPLINE    = F    spline interpolate recip. space projectors
   LCOMPAT=      F    compatible to vasp.4.4
   GGA_COMPAT  = T    GGA compatible to vasp.4.4-vasp.4.6
   LMAXPAW     = -100 max onsite density
   LMAXMIX     =    2 max onsite mixed and CHGCAR
   VOSKOWN=      0    Vosko Wilk Nusair interpolation
   ROPT   =   -0.00050  -0.00050  -0.00050  -0.00050
 Ionic relaxation
   EDIFFG = -.1E-01   stopping-criterion for IOM
   NSW    =      0    number of steps for IOM
   NBLOCK =      1;   KBLOCK =      1    inner block; outer block 
   IBRION =     -1    ionic relax: 0-MD 1-quasi-New 2-CG
   NFREE  =      1    steps in history (QN), initial steepest desc. (CG)
   ISIF   =      2    stress and relaxation
   IWAVPR =     10    prediction:  0-non 1-charg 2-wave 3-comb
   ISYM   =      2    0-nonsym 1-usesym 2-fastsym
   LCORR  =      T    Harris-Foulkes like correction to forces

   POTIM  = 0.5000    time-step for ionic-motion
   TEIN   =    0.0    initial temperature
   TEBEG  =    0.0;   TEEND  =   0.0 temperature during run
   SMASS  =  -3.00    Nose mass-parameter (am)
   estimated Nose-frequenzy (Omega)   =  0.10E-29 period in steps = 0.13E+47 mass=  -0.178E-26a.u.
   SCALEE = 1.0000    scale energy and forces
   NPACO  =    256;   APACO  = 16.0  distance and # of slots for P.C.
   PSTRESS=    0.0 pullay stress

  Mass of Ions in am
   POMASS = 196.97102.91 16.00  1.00
  Ionic Valenz
   ZVAL   =  11.00  9.00  6.00  1.00
  Atomic Wigner-Seitz radii
   RWIGS  =  -1.00 -1.00 -1.00 -1.00
  virtual crystal weights 
   VCA    =   1.00  1.00  1.00  1.00
   NELECT =     401.0000    total number of electrons
   NUPDOWN=      -1.0000    fix difference up-down

 DOS related values:
   EMIN   =  10.00;   EMAX   =-10.00  energy-range for DOS
   EFERMI =   0.00
   ISMEAR =    -5;   SIGMA  =   0.10  broadening in eV -4-tet -1-fermi 0-gaus

 Electronic relaxation 2 (details)
   IALGO  =     68    algorithm
   LDIAG  =      T    sub-space diagonalisation (order eigenvalues)
   LSUBROT=      F    optimize rotation matrix (better conditioning)
   TURBO    =      0    0=normal 1=particle mesh
   IRESTART =      0    0=no restart 2=restart with 2 vectors
   NREBOOT  =      0    no. of reboots
   NMIN     =      0    reboot dimension
   EREF     =   0.00    reference energy to select bands
   IMIX   =      4    mixing-type and parameters
     AMIX     =   0.40;   BMIX     =  1.00
     AMIX_MAG =   1.60;   BMIX_MAG =  1.00
     AMIN     =   0.10
     WC   =   100.;   INIMIX=   1;  MIXPRE=   1;  MAXMIX= -45

 Intra band minimization:
   WEIMIN = 0.0000     energy-eigenvalue tresh-hold
   EBREAK =  0.99E-08  absolut break condition
   DEPER  =   0.30     relativ break condition  

   TIME   =   0.40     timestep for ELM

  volume/ion in A,a.u.               =      39.29       265.17
  Fermi-wavevector in a.u.,A,eV,Ry     =   1.056219  1.995964 15.178630  1.115598
  Thomas-Fermi vector in A             =   2.191446
 
 Write flags
   LWAVE        =      F    write WAVECAR
   LDOWNSAMPLE  =      F    k-point downsampling of WAVECAR
   LCHARG       =      F    write CHGCAR
   LVTOT        =      F    write LOCPOT, total local potential
   LVHAR        =      F    write LOCPOT, Hartree potential only
   LELF         =      F    write electronic localiz. function (ELF)
   LORBIT       =     10    0 simple, 1 ext, 2 COOP (PROOUT), +10 PAW based schemes


 Dipole corrections
   LMONO  =      F    monopole corrections only (constant potential shift)
   LDIPOL =      F    correct potential (dipole corrections)
   IDIPOL =      0    1-x, 2-y, 3-z, 4-all directions 
   EPSILON=  1.0000000 bulk dielectric constant

 Exchange correlation treatment:
   GGA     =    --    GGA type
   LEXCH   =     8    internal setting for exchange type
   VOSKOWN=      0    Vosko Wilk Nusair interpolation
   LHFCALC =     F    Hartree Fock is set to
   LHFONE  =     F    Hartree Fock one center treatment
   AEXX    =    0.0000 exact exchange contribution

 Linear response parameters
   LEPSILON=     F    determine dielectric tensor
   LRPA    =     F    only Hartree local field effects (RPA)
   LNABLA  =     F    use nabla operator in PAW spheres
   LVEL    =     F    velocity operator in full k-point grid
   LINTERFAST=   F  fast interpolation
   KINTER  =     0    interpolate to denser k-point grid
   CSHIFT  =0.1000    complex shift for real part using Kramers Kronig
   OMEGAMAX=  -1.0    maximum frequency
   DEG_THRESHOLD= 0.2000000E-02 threshold for treating states as degnerate
   RTIME   =   -0.100 relaxation time in fs
  (WPLASMAI=    0.000 imaginary part of plasma frequency in eV, 0.658/RTIME)
   DFIELD  = 0.0000000 0.0000000 0.0000000 field for delta impulse in time
 
 Orbital magnetization related:
   ORBITALMAG=     F  switch on orbital magnetization
   LCHIMAG   =     F  perturbation theory with respect to B field
   DQ        =  0.001000  dq finite difference perturbation B field
   LLRAUG    =     F  two centre corrections for induced B field



--------------------------------------------------------------------------------------------------------


 Static calculation
 charge density and potential remain constant during run
 non-spin polarized calculation
 RMM-DIIS sequential band-by-band and
  variant of blocked Davidson during initial phase
 perform sub-space diagonalisation
    before iterative eigenvector-optimisation
 no mixing
 using additional bands           51
 real space projection scheme for non local part
 use partial core corrections
 calculate Harris-corrections to forces 
   (improved forces if not selfconsistent)
 use gradient corrections 
 WARNING: stress and forces are not correct
  (second derivative of E(xc) not defined)
 use of overlap-Matrix (Vanderbilt PP)
 Fermi weights with tetrahedron method with Bloechl corrections


--------------------------------------------------------------------------------------------------------


  energy-cutoff  :      500.00
  volume of cell :     1493.16
      direct lattice vectors                 reciprocal lattice vectors
     8.813512802  0.000000000  0.000000000     0.113462137 -0.065507406  0.000000000
     4.406756909  7.632725690  0.000000000     0.000000000  0.131014796  0.000000000
     0.000000000  0.000000000 22.196203232     0.000000000  0.000000000  0.045052750

  length of vectors
     8.813512802  8.813512802 22.196203232     0.131014796  0.131014796  0.045052750


 
 k-points in units of 2pi/SCALE and weight: Automatic mesh                          
   0.00000000  0.00000000  0.00000000       0.016
   0.01418277 -0.00818843  0.00000000       0.094
   0.02836553 -0.01637685  0.00000000       0.094
   0.04254830 -0.02456528  0.00000000       0.094
   0.05673107 -0.03275370  0.00000000       0.047
   0.02836553 -0.00000000  0.00000000       0.094
   0.04254830 -0.00818843  0.00000000       0.188
   0.05673107 -0.01637685  0.00000000       0.188
   0.05673107 -0.00000000  0.00000000       0.094
  -0.04254830  0.05731898  0.00000000       0.094
 
 k-points in reciprocal lattice and weights: Automatic mesh                          
   0.00000000  0.00000000  0.00000000       0.016
   0.12500000 -0.00000000  0.00000000       0.094
   0.25000000 -0.00000000  0.00000000       0.094
   0.37500000  0.00000000  0.00000000       0.094
   0.50000000 -0.00000000  0.00000000       0.047
   0.25000000  0.12500000  0.00000000       0.094
   0.37500000  0.12500000  0.00000000       0.188
   0.50000000  0.12500000  0.00000000       0.188
   0.50000000  0.25000000  0.00000000       0.094
  -0.37500000  0.25000000  0.00000000       0.094
 
 position of ions in fractional coordinates (direct lattice) 
   0.00000000  0.00000000  0.23789564
   0.33333334  0.00000000  0.23789564
   0.66666669  0.00000000  0.23789564
   0.00000000  0.33333334  0.23789564
   0.33333331  0.33333334  0.23789564
   0.66666669  0.33333334  0.23789564
   0.00000000  0.66666669  0.23789564
   0.33333334  0.66666669  0.23789564
   0.66666663  0.66666669  0.23789564
   0.11111112  0.11111111  0.34596521
   0.44444442  0.11111111  0.34596521
   0.77777779  0.11111111  0.34596521
   0.11111113  0.44444445  0.34596521
   0.44444448  0.44444445  0.34596521
   0.77777773  0.44444445  0.34596521
   0.11111109  0.77777779  0.34596521
   0.44444445  0.77777779  0.34596521
   0.77777785  0.77777779  0.34596521
   0.88888597  0.22222808  0.45381397
   0.22213079  0.22213078  0.45266383
   0.55573847  0.22213078  0.45266383
   0.88785072  0.55607467  0.45357310
   0.22213075  0.55573847  0.45266383
   0.55607467  0.55607467  0.45357310
   0.88888597  0.88888597  0.45381397
   0.22222811  0.88888597  0.45381397
   0.55607461  0.88785072  0.45357310
   0.00000000  0.00000000  0.56292110
   0.33326089  0.00398495  0.56218838
   0.66275419  0.00398495  0.56218838
   0.00398495  0.33326089  0.56218838
   0.66275419  0.33326089  0.56218838
   0.00398495  0.66275419  0.56218838
   0.33326089  0.66275419  0.56218838
   0.66666663  0.66666669  0.56291706
   0.33333331  0.33333334  0.55240206
   0.33333331  0.33333334  0.64011336
   0.33333331  0.33333334  0.68359466
 
 position of ions in cartesian coordinates  (Angst):
   0.00000000  0.00000000  5.28037993
   2.93783769  0.00000000  5.28037993
   5.87567538  0.00000000  5.28037993
   1.46891901  2.54424197  5.28037993
   4.40675643  2.54424197  5.28037993
   7.34459439  2.54424197  5.28037993
   2.93783803  5.08848395  5.28037993
   5.87567571  5.08848395  5.28037993
   8.81351288  5.08848395  5.28037993
   1.46891893  0.84808064  7.67911405
   4.40675623  0.84808064  7.67911405
   7.34459418  0.84808064  7.67911405
   2.93783798  3.39232256  7.67911405
   5.87567574  3.39232256  7.67911405
   8.81351263  3.39232256  7.67911405
   4.40675667  5.93656453  7.67911405
   7.34459449  5.93656453  7.67911405
  10.28243270  5.93656453  7.67911405
   8.81351299  1.69620600 10.07294710
   2.93662895  1.69546331 10.04741830
   5.87688447  1.69546331 10.04741830
  10.27556959  4.24436541 10.06760067
   4.40675655  4.24179930 10.04741830
   7.35145711  4.24436541 10.06760067
  11.75131222  6.78462275 10.07294710
   5.87571470  6.78462275 10.07294710
   8.81351299  6.77672101 10.06760067
   0.00000000  0.00000000 12.49471124
   2.95475983  0.03041607 12.47844752
   5.85875324  0.03041607 12.47844752
   1.50372117  2.54368894 12.47844752
   7.30979224  2.54368894 12.47844752
   2.95571804  5.05862091 12.47844752
   5.85779570  5.05862091 12.47844752
   8.81351288  5.08848395 12.49462150
   4.40675643  2.54424197 12.26122842
   4.40675643  2.54424197 14.20808630
   4.40675643  2.54424197 15.17320598
 


--------------------------------------------------------------------------------------------------------


 k-point   1 :   0.0000 0.0000 0.0000  plane waves:   37827
 k-point   2 :   0.1250-0.0000 0.0000  plane waves:   37876
 k-point   3 :   0.2500-0.0000 0.0000  plane waves:   37924
 k-point   4 :   0.3750 0.0000 0.0000  plane waves:   37904
 k-point   5 :   0.5000-0.0000 0.0000  plane waves:   37912
 k-point   6 :   0.2500 0.1250 0.0000  plane waves:   37858
 k-point   7 :   0.3750 0.1250 0.0000  plane waves:   37928
 k-point   8 :   0.5000 0.1250 0.0000  plane waves:   37924
 k-point   9 :   0.5000 0.2500 0.0000  plane waves:   37926
 k-point  10 :  -0.3750 0.2500 0.0000  plane waves:   37916

 maximum and minimum number of plane-waves per node :     37928    37827

 maximum number of plane-waves:     37928
 maximum index in each direction: 
   IXMAX=   16   IYMAX=   16   IZMAX=   40
   IXMIN=  -16   IYMIN=  -16   IZMIN=  -40


 serial   3D FFT for wavefunctions
 parallel 3D FFT for charge:
    minimum data exchange during FFTs selected (reduces bandwidth)


 total amount of memory used by VASP MPI-rank0   123086. kBytes
=======================================================================

   base      :      30000. kBytes
   nonlr-proj:      13906. kBytes
   fftplans  :       4330. kBytes
   grid      :      18659. kBytes
   one-center:        590. kBytes
   wavefun   :      55601. kBytes
 
     INWAV:  cpu time    0.0000: real time    0.0000
 initial charge density was supplied:
 number of electron     400.9999957 magnetization 
 keeping initial charge density in first step


--------------------------------------------------------------------------------------------------------


 Maximum index for non-local projection operator         2518
 Maximum index for augmentation-charges          858 (set IRDMAX)


--------------------------------------------------------------------------------------------------------


 First call to EWALD:  gamma=   0.155
 Maximum number of real-space cells 4x 4x 2
 Maximum number of reciprocal cells 2x 2x 5

    FEWALD:  cpu time    0.0013: real time    0.0013


--------------------------------------- Iteration      1(   1)  ---------------------------------------


    POTLOK:  cpu time    0.0444: real time    0.0448
    SETDIJ:  cpu time    0.0048: real time    0.0050
     EDDAV:  cpu time    7.1816: real time    7.1830
 BZINTS: Fermi energy:   11.463590;  401.000000 electrons
         Band energy: 0.158866E+04;  BLOECHL correction:   -0.010536
       DOS:  cpu time    0.0083: real time    0.0084
    --------------------------------------------
      LOOP:  cpu time    7.2392: real time    7.2412

 eigenvalue-minimisations  :  5040
 total energy-change (2. order) : 0.2638161E+04  (-0.1823319E+05)
 number of electron     400.9999957 magnetization 
 augmentation part      400.9999957 magnetization 

 Free energy of the ion-electron system (eV)
  ---------------------------------------------------
  alpha Z        PSCENC =      1018.74277820
  Ewald energy   TEWEN  =     96552.92838378
  -Hartree energ DENC   =   -131295.24779352
  -exchange      EXHF   =         0.00000000
  -V(xc)+E(xc)   XCENC  =       531.32722651
  PAW double counting   =     36433.57847492   -35665.97439730
  entropy T*S    EENTRO =         0.00000000
  eigenvalues    EBANDS =      1588.66039963
  atomic energy  EATOM  =     33474.14589920
  Solvation  Ediel_sol  =         0.00000000
  ---------------------------------------------------
  free energy    TOTEN  =      2638.16097141 eV

  energy without entropy =     2638.16097141  energy(sigma->0) =     2638.16097141


--------------------------------------------------------------------------------------------------------




--------------------------------------- Iteration      1(   2)  ---------------------------------------


     EDDAV:  cpu time    7.7826: real time    7.7829
 BZINTS: Fermi energy:    1.622501;  401.000000 electrons
         Band energy:-0.103963E+04;  BLOECHL correction:   -0.047750
       DOS:  cpu time    0.0101: real time    0.0101
    --------------------------------------------
      LOOP:  cpu time    7.7927: real time    7.7930

 eigenvalue-minimisations  :  5600
 total energy-change (2. order) :-0.2628291E+04  (-0.2438690E+04)
 number of electron     400.9999957 magnetization 
 augmentation part      400.9999957 magnetization 

 Free energy of the ion-electron system (eV)
  ---------------------------------------------------
  alpha Z        PSCENC =      1018.74277820
  Ewald energy   TEWEN  =     96552.92838378
  -Hartree energ DENC   =   -131295.24779352
  -exchange      EXHF   =         0.00000000
  -V(xc)+E(xc)   XCENC  =       531.32722651
  PAW double counting   =     36433.57847492   -35665.97439730
  entropy T*S    EENTRO =         0.00000000
  eigenvalues    EBANDS =     -1039.63070949
  atomic energy  EATOM  =     33474.14589920
  Solvation  Ediel_sol  =         0.00000000
  ---------------------------------------------------
  free energy    TOTEN  =         9.86986229 eV

  energy without entropy =        9.86986229  energy(sigma->0) =        9.86986229


--------------------------------------------------------------------------------------------------------




--------------------------------------- Iteration      1(   3)  ---------------------------------------


     EDDAV:  cpu time    8.1254: real time    8.1255
 BZINTS: Fermi energy:    0.846394;  400.992978 electrons
         Band energy:-0.116939E+04;  BLOECHL correction:   -0.071635
 WARNING: Fermi level nearly degenerate with energies of tetrahedron. This may
     result in numerical instabilities because the density changes by tiny
     changes of the Fermi energy. If the calculation converges, the total
     energy will still be reliable. If you notice convergence issues, you can
     try to
     *) Use a Gamma centered k-point grid
     *) Use tetrahedron method without corrections ISMEAR = -4
     *) Don't use tetrahedron method
        ISMEAR = 0 for semiconductors, 1 or 2 for metals

       DOS:  cpu time    0.0083: real time    0.0084
    --------------------------------------------
      LOOP:  cpu time    8.1337: real time    8.1339

 eigenvalue-minimisations  :  5880
 total energy-change (2. order) :-0.1297547E+03  (-0.1255499E+03)
 number of electron     400.9999957 magnetization 
 augmentation part      400.9999957 magnetization 

 Free energy of the ion-electron system (eV)
  ---------------------------------------------------
  alpha Z        PSCENC =      1018.74277820
  Ewald energy   TEWEN  =     96552.92838378
  -Hartree energ DENC   =   -131295.24779352
  -exchange      EXHF   =         0.00000000
  -V(xc)+E(xc)   XCENC  =       531.32722651
  PAW double counting   =     36433.57847492   -35665.97439730
  entropy T*S    EENTRO =         0.00000000
  eigenvalues    EBANDS =     -1169.38540186
  atomic energy  EATOM  =     33474.14589920
  Solvation  Ediel_sol  =         0.00000000
  ---------------------------------------------------
  free energy    TOTEN  =      -119.88483008 eV

  energy without entropy =     -119.88483008  energy(sigma->0) =     -119.88483008


--------------------------------------------------------------------------------------------------------




--------------------------------------- Iteration      1(   4)  ---------------------------------------


     EDDAV:  cpu time    7.7347: real time    7.7348
 BZINTS: Fermi energy:    0.830318;  401.000000 electrons
         Band energy:-0.117203E+04;  BLOECHL correction:   -0.074097
       DOS:  cpu time    0.0100: real time    0.0100
    --------------------------------------------
      LOOP:  cpu time    7.7447: real time    7.7448

 eigenvalue-minimisations  :  5544
 total energy-change (2. order) :-0.2647934E+01  (-0.2641780E+01)
 number of electron     400.9999957 magnetization 
 augmentation part      400.9999957 magnetization 

 Free energy of the ion-electron system (eV)
  ---------------------------------------------------
  alpha Z        PSCENC =      1018.74277820
  Ewald energy   TEWEN  =     96552.92838378
  -Hartree energ DENC   =   -131295.24779352
  -exchange      EXHF   =         0.00000000
  -V(xc)+E(xc)   XCENC  =       531.32722651
  PAW double counting   =     36433.57847492   -35665.97439730
  entropy T*S    EENTRO =         0.00000000
  eigenvalues    EBANDS =     -1172.03333630
  atomic energy  EATOM  =     33474.14589920
  Solvation  Ediel_sol  =         0.00000000
  ---------------------------------------------------
  free energy    TOTEN  =      -122.53276452 eV

  energy without entropy =     -122.53276452  energy(sigma->0) =     -122.53276452


--------------------------------------------------------------------------------------------------------




--------------------------------------- Iteration      1(   5)  ---------------------------------------


     EDDAV:  cpu time    8.7264: real time    8.7265
 BZINTS: Fermi energy:    0.829978;  401.000000 electrons
         Band energy:-0.117212E+04;  BLOECHL correction:   -0.074116
       DOS:  cpu time    0.0094: real time    0.0094
    --------------------------------------------
      LOOP:  cpu time    8.7358: real time    8.7359

 eigenvalue-minimisations  :  6412
 total energy-change (2. order) :-0.8280743E-01  (-0.8279412E-01)
 number of electron     400.9999957 magnetization 
 augmentation part      400.9999957 magnetization 

 Free energy of the ion-electron system (eV)
  ---------------------------------------------------
  alpha Z        PSCENC =      1018.74277820
  Ewald energy   TEWEN  =     96552.92838378
  -Hartree energ DENC   =   -131295.24779352
  -exchange      EXHF   =         0.00000000
  -V(xc)+E(xc)   XCENC  =       531.32722651
  PAW double counting   =     36433.57847492   -35665.97439730
  entropy T*S    EENTRO =         0.00000000
  eigenvalues    EBANDS =     -1172.11614373
  atomic energy  EATOM  =     33474.14589920
  Solvation  Ediel_sol  =         0.00000000
  ---------------------------------------------------
  free energy    TOTEN  =      -122.61557195 eV

  energy without entropy =     -122.61557195  energy(sigma->0) =     -122.61557195


--------------------------------------------------------------------------------------------------------




--------------------------------------- Iteration      1(   6)  ---------------------------------------


    EDDIAG:  cpu time    1.4036: real time    1.4037
  RMM-DIIS:  cpu time    3.9830: real time    3.9831
    ORTHCH:  cpu time    0.2605: real time    0.2605
 BZINTS: Fermi energy:    0.829977;  401.000000 electrons
         Band energy:-0.117212E+04;  BLOECHL correction:   -0.074116
       DOS:  cpu time    0.0097: real time    0.0097
    --------------------------------------------
      LOOP:  cpu time    5.6568: real time    5.6570

 eigenvalue-minimisations  :  5108
 total energy-change (2. order) :-0.1710181E-02  (-0.1710180E-02)
 number of electron     400.9999957 magnetization 
 augmentation part      400.9999957 magnetization 

 Free energy of the ion-electron system (eV)
  ---------------------------------------------------
  alpha Z        PSCENC =      1018.74277820
  Ewald energy   TEWEN  =     96552.92838378
  -Hartree energ DENC   =   -131295.24779352
  -exchange      EXHF   =         0.00000000
  -V(xc)+E(xc)   XCENC  =       531.32722651
  PAW double counting   =     36433.57847492   -35665.97439730
  entropy T*S    EENTRO =         0.00000000
  eigenvalues    EBANDS =     -1172.11785391
  atomic energy  EATOM  =     33474.14589920
  Solvation  Ediel_sol  =         0.00000000
  ---------------------------------------------------
  free energy    TOTEN  =      -122.61728213 eV

  energy without entropy =     -122.61728213  energy(sigma->0) =     -122.61728213


--------------------------------------------------------------------------------------------------------




--------------------------------------- Iteration      1(   7)  ---------------------------------------


    EDDIAG:  cpu time    1.4043: real time    1.4044
  RMM-DIIS:  cpu time    5.3245: real time    5.3246
    ORTHCH:  cpu time    0.2610: real time    0.2610
 BZINTS: Fermi energy:    0.829977;  401.000000 electrons
         Band energy:-0.117212E+04;  BLOECHL correction:   -0.074117
       DOS:  cpu time    0.0099: real time    0.0099
    --------------------------------------------
      LOOP:  cpu time    6.9998: real time    6.9999

 eigenvalue-minimisations  :  6954
 total energy-change (2. order) :-0.5662706E-03  (-0.5641295E-03)
 number of electron     400.9999957 magnetization 
 augmentation part      400.9999957 magnetization 

 Free energy of the ion-electron system (eV)
  ---------------------------------------------------
  alpha Z        PSCENC =      1018.74277820
  Ewald energy   TEWEN  =     96552.92838378
  -Hartree energ DENC   =   -131295.24779352
  -exchange      EXHF   =         0.00000000
  -V(xc)+E(xc)   XCENC  =       531.32722651
  PAW double counting   =     36433.57847492   -35665.97439730
  entropy T*S    EENTRO =         0.00000000
  eigenvalues    EBANDS =     -1172.11842018
  atomic energy  EATOM  =     33474.14589920
  Solvation  Ediel_sol  =         0.00000000
  ---------------------------------------------------
  free energy    TOTEN  =      -122.61784840 eV

  energy without entropy =     -122.61784840  energy(sigma->0) =     -122.61784840


--------------------------------------------------------------------------------------------------------




--------------------------------------- Iteration      1(   8)  ---------------------------------------


    EDDIAG:  cpu time    1.4070: real time    1.4070
  RMM-DIIS:  cpu time    4.2828: real time    4.2829
    ORTHCH:  cpu time    0.2609: real time    0.2609
 BZINTS: Fermi energy:    0.829977;  401.000000 electrons
         Band energy:-0.117212E+04;  BLOECHL correction:   -0.074117
       DOS:  cpu time    0.0098: real time    0.0098
    --------------------------------------------
      LOOP:  cpu time    5.9604: real time    5.9605

 eigenvalue-minimisations  :  5479
 total energy-change (2. order) :-0.3543400E-04  (-0.3541543E-04)
 number of electron     400.9999957 magnetization 
 augmentation part      400.9999957 magnetization 

 Free energy of the ion-electron system (eV)
  ---------------------------------------------------
  alpha Z        PSCENC =      1018.74277820
  Ewald energy   TEWEN  =     96552.92838378
  -Hartree energ DENC   =   -131295.24779352
  -exchange      EXHF   =         0.00000000
  -V(xc)+E(xc)   XCENC  =       531.32722651
  PAW double counting   =     36433.57847492   -35665.97439730
  entropy T*S    EENTRO =         0.00000000
  eigenvalues    EBANDS =     -1172.11845562
  atomic energy  EATOM  =     33474.14589920
  Solvation  Ediel_sol  =         0.00000000
  ---------------------------------------------------
  free energy    TOTEN  =      -122.61788383 eV

  energy without entropy =     -122.61788383  energy(sigma->0) =     -122.61788383


--------------------------------------------------------------------------------------------------------




--------------------------------------- Iteration      1(   9)  ---------------------------------------


    EDDIAG:  cpu time    1.4041: real time    1.4070
  RMM-DIIS:  cpu time    3.5203: real time    3.5204
    ORTHCH:  cpu time    0.2605: real time    0.2605
 BZINTS: Fermi energy:    0.829977;  401.000000 electrons
         Band energy:-0.117212E+04;  BLOECHL correction:   -0.074117
       DOS:  cpu time    0.0101: real time    0.0101
    --------------------------------------------
      LOOP:  cpu time    5.1951: real time    5.1981

 eigenvalue-minimisations  :  3797
 total energy-change (2. order) :-0.5618640E-05  (-0.5589017E-05)
 number of electron     400.9999957 magnetization 
 augmentation part      400.9999957 magnetization 

 Free energy of the ion-electron system (eV)
  ---------------------------------------------------
  alpha Z        PSCENC =      1018.74277820
  Ewald energy   TEWEN  =     96552.92838378
  -Hartree energ DENC   =   -131295.24779352
  -exchange      EXHF   =         0.00000000
  -V(xc)+E(xc)   XCENC  =       531.32722651
  PAW double counting   =     36433.57847492   -35665.97439730
  entropy T*S    EENTRO =         0.00000000
  eigenvalues    EBANDS =     -1172.11846123
  atomic energy  EATOM  =     33474.14589920
  Solvation  Ediel_sol  =         0.00000000
  ---------------------------------------------------
  free energy    TOTEN  =      -122.61788945 eV

  energy without entropy =     -122.61788945  energy(sigma->0) =     -122.61788945


--------------------------------------------------------------------------------------------------------




 average (electrostatic) potential at core
  the test charge radii are     1.2098  1.1806  0.7215  0.5201
  (the norm of the test charge is              1.0000)
       1 -72.2562       2 -72.2063       3 -72.2062       4 -72.2063       5 -72.2178
       6 -72.2060       7 -72.2062       8 -72.2060       9 -72.2290      10 -72.5669
      11 -72.5201      12 -72.5667      13 -72.5201      14 -72.5197      15 -72.5516
      16 -72.5667      17 -72.5516      18 -72.5517      19 -72.4893      20 -72.5249
      21 -72.5247      22 -72.5212      23 -72.5247      24 -72.5208      25 -72.4895
      26 -72.4893      27 -72.5212      28 -72.1149      29 -72.1047      30 -72.1047
      31 -72.1047      32 -72.1044      33 -72.1047      34 -72.1044      35 -72.1156
      36 -72.1129      37 -74.2443      38 -38.8511
 
 
 
 E-fermi :   0.8300     XC(G=0):  -6.1784     alpha+bet : -5.8060

 Fermi energy:         0.8299769401

 k-point     1 :       0.0000    0.0000    0.0000
  band No.  band energies     occupation 
      1     -17.8139      2.00000
      2      -7.9802      2.00000
      3      -6.8311      2.00000
      4      -6.5001      2.00000
      5      -5.8695      2.00000
      6      -5.8194      2.00000
      7      -5.8194      2.00000
      8      -5.8143      2.00000
      9      -5.8104      2.00000
     10      -5.8104      2.00000
     11      -5.7952      2.00000
     12      -5.6801      2.00000
     13      -5.3388      2.00000
     14      -5.3275      2.00000
     15      -5.3275      2.00000
     16      -5.3213      2.00000
     17      -5.3213      2.00000
     18      -5.2756      2.00000
     19      -4.9526      2.00000
     20      -4.9526      2.00000
     21      -4.9496      2.00000
     22      -4.9307      2.00000
     23      -4.9298      2.00000
     24      -4.9298      2.00000
     25      -4.7822      2.00000
     26      -4.7821      2.00000
     27      -4.7812      2.00000
     28      -4.7563      2.00000
     29      -4.7563      2.00000
     30      -4.6989      2.00000
     31      -4.6164      2.00000
     32      -4.6164      2.00000
     33      -4.6032      2.00000
     34      -4.6032      2.00000
     35      -4.5853      2.00000
     36      -4.5815      2.00000
     37      -4.5815      2.00000
     38      -4.5709      2.00000
     39      -4.5633      2.00000
     40      -4.4693      2.00000
     41      -4.4693      2.00000
     42      -4.3910      2.00000
     43      -4.1152      2.00000
     44      -4.1151      2.00000
     45      -4.0519      2.00000
     46      -4.0497      2.00000
     47      -4.0497      2.00000
     48      -4.0316      2.00000
     49      -4.0287      2.00000
     50      -4.0287      2.00000
     51      -4.0109      2.00000
     52      -4.0109      2.00000
     53      -3.9606      2.00000
     54      -3.9504      2.00000
     55      -3.8755      2.00000
     56      -3.8304      2.00000
     57      -3.5232      2.00000
     58      -3.5189      2.00000
     59      -3.5164      2.00000
     60      -3.5164      2.00000
     61      -3.4826      2.00000
     62      -3.4826      2.00000
     63      -3.4811      2.00000
     64      -3.4551      2.00000
     65      -3.4551      2.00000
     66      -3.3833      2.00000
     67      -3.3833      2.00000
     68      -3.3445      2.00000
     69      -3.3445      2.00000
     70      -3.3444      2.00000
     71      -3.2748      2.00000
     72      -3.2748      2.00000
     73      -3.2640      2.00000
     74      -3.2541      2.00000
     75      -3.2540      2.00000
     76      -3.2448      2.00000
     77      -3.2416      2.00000
     78      -3.2416      2.00000
     79      -3.2343      2.00000
     80      -3.2197      2.00000
     81      -3.2197      2.00000
     82      -3.1781      2.00000
     83      -3.1781      2.00000
     84      -3.1383      2.00000
     85      -3.1359      2.00000
     86      -3.1358      2.00000
     87      -3.1237      2.00000
     88      -3.1236      2.00000
     89      -3.1200      2.00000
     90      -3.0806      2.00000
     91      -3.0414      2.00000
     92      -3.0414      2.00000
     93      -2.8676      2.00000
     94      -2.8676      2.00000
     95      -2.8629      2.00000
     96      -2.8628      2.00000
     97      -2.8563      2.00000
     98      -2.8563      2.00000
     99      -2.8413      2.00000
    100      -2.8413      2.00000
    101      -2.6566      2.00000
    102      -2.6565      2.00000
    103      -2.6468      2.00000
    104      -2.6401      2.00000
    105      -2.6401      2.00000
    106      -2.6041      2.00000
    107      -2.4979      2.00000
    108      -2.4979      2.00000
    109      -2.4290      2.00000
    110      -2.4290      2.00000
    111      -2.4279      2.00000
    112      -2.4193      2.00000
    113      -2.4187      2.00000
    114      -2.4186      2.00000
    115      -2.3931      2.00000
    116      -2.3253      2.00000
    117      -2.3030      2.00000
    118      -2.2501      2.00000
    119      -2.2501      2.00000
    120      -2.1807      2.00000
    121      -2.1488      2.00000
    122      -2.1487      2.00000
    123      -2.1224      2.00000
    124      -2.0925      2.00000
    125      -2.0925      2.00000
    126      -2.0742      2.00000
    127      -2.0742      2.00000
    128      -2.0130      2.00000
    129      -2.0130      2.00000
    130      -1.9619      2.00000
    131      -1.9618      2.00000
    132      -1.8843      2.00000
    133      -1.8842      2.00000
    134      -1.8808      2.00000
    135      -1.8758      2.00000
    136      -1.8666      2.00000
    137      -1.8666      2.00000
    138      -1.8586      2.00000
    139      -1.8349      2.00000
    140      -1.8348      2.00000
    141      -1.7728      2.00000
    142      -1.7728      2.00000
    143      -1.7248      2.00000
    144      -1.6365      2.00000
    145      -1.6365      2.00000
    146      -1.6151      2.00000
    147      -1.6151      2.00000
    148      -1.6092      2.00000
    149      -1.5827      2.00000
    150      -1.5827      2.00000
    151      -1.5782      2.00000
    152      -1.5668      2.00000
    153      -1.5655      2.00000
    154      -1.5654      2.00000
    155      -1.5405      2.00000
    156      -1.4645      2.00000
    157      -1.4645      2.00000
    158      -1.4399      2.00000
    159      -1.4255      2.00000
    160      -1.4229      2.00000
    161      -1.4228      2.00000
    162      -1.4182      2.00000
    163      -1.4157      2.00000
    164      -1.4021      2.00000
    165      -1.4021      2.00000
    166      -1.3593      2.00000
    167      -1.3593      2.00000
    168      -1.3392      2.00000
    169      -1.3392      2.00000
    170      -1.3159      2.00000
    171      -1.3159      2.00000
    172      -1.3076      2.00000
    173      -1.3031      2.00000
    174      -1.3031      2.00000
    175      -1.3023      2.00000
    176      -1.2992      2.00000
    177      -1.2448      2.00000
    178      -1.2448      2.00000
    179      -1.2320      2.00000
    180      -1.2187      2.00000
    181      -1.2081      2.00000
    182      -1.2081      2.00000
    183      -1.1836      2.00000
    184      -1.1769      2.00000
    185      -1.1755      2.00000
    186      -1.1755      2.00000
    187      -1.0520      2.00000
    188      -1.0520      2.00000
    189      -1.0068      2.00000
    190      -1.0068      2.00000
    191      -0.9700      2.00000
    192      -0.9658      2.00000
    193      -0.9583      2.00000
    194      -0.9583      2.00000
    195      -0.2490      2.00000
    196      -0.0538      2.00000
    197      -0.0029      2.00000
    198      -0.0029      2.00000
    199       0.2645      2.00000
    200       0.2645      2.00000
    201       0.2730      2.00000
    202       0.3828      2.00000
    203       0.3828      2.00000
    204       0.6668      2.00000
    205       0.6669      2.85182
    206       1.1335      0.00000
    207       1.5543      0.00000
    208       2.4017      0.00000
    209       2.4425      0.00000
    210       2.4425      0.00000
    211       2.5643      0.00000
    212       2.5643      0.00000
    213       3.2286      0.00000
    214       3.6200      0.00000
    215       3.6200      0.00000
    216       3.6783      0.00000
    217       3.6929      0.00000
    218       3.6929      0.00000
    219       3.8201      0.00000
    220       4.2741      0.00000
    221       4.8722      0.00000
    222       5.3565      0.00000
    223       5.4811      0.00000
    224       5.5166      0.00000
    225       5.5167      0.00000
    226       5.5208      0.00000
    227       5.5208      0.00000
    228       5.5310      0.00000
    229       5.6518      0.00000
    230       5.6518      0.00000
    231       5.7144      0.00000
    232       5.7145      0.00000
    233       5.8341      0.00000
    234       6.3005      0.00000
    235       6.5566      0.00000
    236       6.8861      0.00000
    237       6.9970      0.00000
    238       7.1692      0.00000
    239       7.1705      0.00000
    240       7.2124      0.00000
    241       7.2130      0.00000
    242       7.2157      0.00000
    243       7.2735      0.00000
    244       7.2752      0.00000
    245       7.3070      0.00000
    246       7.3884      0.00000
    247       7.4017      0.00000
    248       7.5081      0.00000
    249       7.5322      0.00000
    250       7.5580      0.00000
    251       7.6238      0.00000
    252       7.6653      0.00000

 k-point     2 :       0.1250   -0.0000    0.0000
  band No.  band energies     occupation 
      1     -17.8139      2.00000
      2      -7.9294      2.00000
      3      -6.7884      2.00000
      4      -6.4957      2.00000
      5      -6.0614      2.00000
      6      -5.8909      2.00000
      7      -5.8827      2.00000
      8      -5.8167      2.00000
      9      -5.7008      2.00000
     10      -5.7006      2.00000
     11      -5.6853      2.00000
     12      -5.6336      2.00000
[...]
  0.000   0.000   0.000   0.000   0.000   0.000   0.000   0.000   0.000   0.000   0.000   0.000   0.000   0.000   0.000   0.000
  0.000   0.000   0.000   0.000   0.000   0.000   0.000   0.000   0.000   0.000   0.000   0.000   0.000   0.000   0.000   0.000
  0.000   0.000   0.000   0.000   0.000   0.000   0.000   0.000   0.000   0.000   1.000   0.000   0.000   0.000   0.000   0.000
  0.000   0.000   0.000   0.000   0.000   0.000   0.000   0.000   0.000   0.000   0.000   0.000   0.000   0.000   0.000   0.000
  0.000   0.000   0.000   0.000   0.000   0.000   0.000   0.000   0.000   0.000   0.000   0.000   0.000   0.000   0.000   0.000
  0.000   0.000   0.000   0.000   0.000   0.000   0.000   0.000   0.000   0.000   0.000   0.000   0.000   0.000   0.000   0.000
  0.000   0.000   0.000   0.000   0.000   0.000   0.000   0.000   0.000   0.000   0.000   0.000   0.000   0.000   0.000   0.000
  0.000   0.000   0.000   0.000   0.000   0.000   0.000   0.000   0.000   0.000   0.000   0.000   0.000   0.000   0.000   0.000
  0.000   0.000   0.000   0.000   0.000   0.000   0.000   0.000   0.000   0.000   0.000   0.000   0.000   0.000   0.000   0.000
  0.000   0.000   0.000   0.000   0.000   0.000   0.000   0.000   0.000   0.000   0.000   0.000   0.000   0.000   0.000   0.000


------------------------ aborting loop because EDIFF is reached ----------------------------------------





 total charge

# of ion       s       p       d       tot
------------------------------------------
    1        0.544   0.238   8.769   9.551
    2        0.545   0.241   8.763   9.549
    3        0.545   0.241   8.763   9.549
    4        0.545   0.241   8.763   9.549
    5        0.542   0.243   8.761   9.545
    6        0.545   0.241   8.763   9.549
    7        0.545   0.241   8.763   9.549
    8        0.545   0.241   8.763   9.549
    9        0.541   0.240   8.765   9.546
   10        0.521   0.310   8.767   9.598
   11        0.520   0.307   8.776   9.603
   12        0.521   0.310   8.767   9.598
   13        0.520   0.307   8.776   9.603
   14        0.520   0.307   8.776   9.603
   15        0.514   0.307   8.776   9.598
   16        0.521   0.310   8.767   9.598
   17        0.514   0.307   8.776   9.598
   18        0.514   0.307   8.776   9.598
   19        0.515   0.304   8.773   9.592
   20        0.539   0.325   8.755   9.619
   21        0.539   0.325   8.755   9.619
   22        0.509   0.307   8.774   9.590
   23        0.539   0.325   8.755   9.619
   24        0.509   0.307   8.774   9.590
   25        0.515   0.304   8.773   9.592
   26        0.515   0.304   8.773   9.592
   27        0.509   0.307   8.774   9.590
   28        0.543   0.230   8.769   9.542
   29        0.538   0.234   8.768   9.540
   30        0.538   0.234   8.768   9.540
   31        0.538   0.234   8.768   9.540
   32        0.538   0.234   8.768   9.540
   33        0.538   0.234   8.768   9.540
   34        0.538   0.234   8.768   9.540
   35        0.536   0.232   8.767   9.535
   36        0.374   0.430   7.339   8.142
   37        1.541   3.521   0.000   5.062
   38        0.605   0.128   0.000   0.733
--------------------------------------------------
tot         21.086  13.687 314.223 348.996
 
    CHARGE:  cpu time    0.3340: real time    0.3341
    FORLOC:  cpu time    0.0110: real time    0.0110
    FORNL :  cpu time    1.4522: real time    1.4522
    STRESS:  cpu time    4.3449: real time    4.3452
    FORCOR:  cpu time    0.0429: real time    0.0429
    FORHAR:  cpu time    0.0175: real time    0.0177
    OFIELD:  cpu time    0.0002: real time    0.0002

  FORCE on cell =-STRESS in cart. coord.  units (eV):
  Direction    XX          YY          ZZ          XY          YZ          ZX
  --------------------------------------------------------------------------------------
  Alpha Z  1018.74278  1018.74278  1018.74278
  Ewald  119280.79831119280.79873************    -0.00033    -0.00008    -0.00012
  Hartree128162.80598128162.80598************     0.00001    -0.00002    -0.00003
  E(xc)   -1803.63968 -1803.63971 -1809.34886     0.00003    -0.00000    -0.00000
  Local  ************************259814.30064     0.00208     0.00000    -0.00003
  n-local  -113.38482   -58.84020   -59.62908    24.79067    -1.22149     1.49534
  augment  2434.92336  2434.92491  2444.30549    -0.00134     0.00003     0.00004
  Kinetic  5602.24232  5620.33519  5624.78757     7.83066     0.04319     0.43477
  Fock        0.00000     0.00000     0.00000     0.00000     0.00000     0.00000
  -------------------------------------------------------------------------------------
  Total     -21.06905   -21.06904     1.11945    -0.00000     0.00000     0.00000
  in kB     -22.60727   -22.60727     1.20118    -0.00000     0.00000     0.00000
  external pressure =      -14.67 kB  Pullay stress =        0.00 kB


 VOLUME and BASIS-vectors are now :
 -----------------------------------------------------------------------------
  energy-cutoff  :      500.00
  volume of cell :     1493.16
      direct lattice vectors                 reciprocal lattice vectors
     8.813512802  0.000000000  0.000000000     0.113462137 -0.065507406  0.000000000
     4.406756909  7.632725690  0.000000000     0.000000000  0.131014796  0.000000000
     0.000000000  0.000000000 22.196203232     0.000000000  0.000000000  0.045052750

  length of vectors
     8.813512802  8.813512802 22.196203232     0.131014796  0.131014796  0.045052750


 FORCES acting on ions
    electron-ion (+dipol)            ewald-force                    non-local-force                 convergence-correction
 -----------------------------------------------------------------------------------------------
   -.195E-04 -.161E-04 0.250E+04   0.519E-04 0.433E-04 -.249E+04   0.698E-17 0.365E-17 -.105E+01   -.203E-03 -.131E-03 -.199E+00
   0.188E+00 0.387E+00 0.250E+04   -.305E+00 -.420E+00 -.250E+04   0.389E-01 0.606E-01 -.272E+00   0.729E-01 -.104E-01 -.271E+00
   -.188E+00 0.387E+00 0.250E+04   0.305E+00 -.420E+00 -.250E+04   -.389E-01 0.606E-01 -.272E+00   -.726E-01 -.838E-02 -.271E+00
   0.429E+00 -.309E-01 0.250E+04   -.516E+00 -.539E-01 -.250E+04   0.720E-01 0.340E-02 -.272E+00   0.275E-01 0.683E-01 -.271E+00
   0.894E-05 -.230E-04 0.250E+04   0.951E-04 0.171E-05 -.250E+04   0.224E-17 0.927E-18 -.199E+00   0.430E-02 0.262E-02 -.207E+00
   -.429E+00 -.309E-01 0.250E+04   0.516E+00 -.540E-01 -.250E+04   -.720E-01 0.340E-02 -.272E+00   -.291E-01 0.692E-01 -.270E+00
   0.241E+00 -.356E+00 0.250E+04   -.211E+00 0.474E+00 -.250E+04   0.330E-01 -.640E-01 -.272E+00   -.435E-01 -.587E-01 -.271E+00
   -.241E+00 -.356E+00 0.250E+04   0.211E+00 0.474E+00 -.250E+04   -.330E-01 -.640E-01 -.272E+00   0.454E-01 -.598E-01 -.270E+00
   0.192E-04 -.416E-04 0.250E+04   0.166E-03 -.201E-04 -.250E+04   0.424E-17 0.851E-20 -.584E+00   -.464E-02 -.240E-02 -.232E+00
   0.405E+01 0.234E+01 0.859E+03   -.359E+01 -.207E+01 -.858E+03   -.365E+00 -.211E+00 -.727E+00   -.311E-01 -.181E-01 -.195E+00
   0.141E-04 0.438E+01 0.863E+03   0.148E-03 -.439E+01 -.863E+03   0.259E-08 0.388E-01 -.264E+00   0.380E-02 -.730E-01 -.219E+00
   -.405E+01 0.234E+01 0.859E+03   0.359E+01 -.207E+01 -.858E+03   0.365E+00 -.211E+00 -.727E+00   0.298E-01 -.166E-01 -.195E+00
   0.379E+01 -.219E+01 0.863E+03   -.380E+01 0.219E+01 -.863E+03   0.336E-01 -.194E-01 -.264E+00   -.610E-01 0.401E-01 -.219E+00
   -.379E+01 -.219E+01 0.863E+03   0.380E+01 0.219E+01 -.863E+03   -.336E-01 -.194E-01 -.264E+00   0.688E-01 0.396E-01 -.219E+00
   0.308E-04 0.538E+00 0.858E+03   0.236E-03 -.648E+00 -.858E+03   0.139E-08 0.209E-01 -.478E+00   -.240E-02 0.753E-01 -.191E+00
   -.215E-04 -.468E+01 0.859E+03   0.163E-03 0.415E+01 -.858E+03   0.281E-07 0.422E+00 -.727E+00   0.295E-03 0.341E-01 -.195E+00
   0.466E+00 -.269E+00 0.858E+03   -.561E+00 0.324E+00 -.858E+03   0.181E-01 -.105E-01 -.478E+00   0.642E-01 -.393E-01 -.191E+00
   -.466E+00 -.269E+00 0.858E+03   0.561E+00 0.324E+00 -.858E+03   -.181E-01 -.105E-01 -.478E+00   -.643E-01 -.374E-01 -.191E+00
   -.406E-04 0.148E+01 -.809E+03   0.532E-04 -.181E+01 0.808E+03   0.863E-08 0.130E+00 0.646E+00   -.534E-03 0.172E+00 -.799E-01
   0.147E+02 0.846E+01 -.774E+03   -.137E+02 -.789E+01 0.775E+03   -.843E+00 -.487E+00 -.792E+00   -.751E-01 -.435E-01 -.426E-01
   -.147E+02 0.846E+01 -.774E+03   0.137E+02 -.789E+01 0.775E+03   0.843E+00 -.487E+00 -.792E+00   0.760E-01 -.415E-01 -.429E-01
   0.503E+01 -.290E+01 -.802E+03   -.523E+01 0.302E+01 0.801E+03   0.297E+00 -.172E+00 0.611E+00   -.644E-01 0.327E-01 -.527E-01
   -.135E-04 -.169E+02 -.774E+03   0.144E-03 0.158E+02 0.775E+03   0.648E-07 0.973E+00 -.792E+00   0.178E-02 0.866E-01 -.428E-01
   -.503E+01 -.290E+01 -.802E+03   0.523E+01 0.302E+01 0.801E+03   -.297E+00 -.172E+00 0.611E+00   0.574E-01 0.332E-01 -.526E-01
   -.128E+01 -.742E+00 -.809E+03   0.157E+01 0.905E+00 0.808E+03   -.112E+00 -.648E-01 0.646E+00   -.147E+00 -.848E-01 -.802E-01
   0.128E+01 -.742E+00 -.809E+03   -.157E+01 0.905E+00 0.808E+03   0.112E+00 -.648E-01 0.646E+00   0.149E+00 -.863E-01 -.798E-01
   0.760E-05 0.581E+01 -.802E+03   0.200E-03 -.604E+01 0.801E+03   0.229E-07 0.343E+00 0.611E+00   -.438E-02 -.721E-01 -.526E-01
   -.113E-04 -.127E-04 -.245E+04   0.283E-04 0.342E-04 0.245E+04   0.195E-18 -.408E-17 0.373E+00   0.104E-03 0.416E-04 0.228E+00
   0.231E+02 0.394E+02 -.243E+04   -.230E+02 -.395E+02 0.242E+04   -.165E+00 -.673E-01 0.729E+00   -.358E-01 -.804E-01 0.910E-01
   -.231E+02 0.394E+02 -.243E+04   0.230E+02 -.395E+02 0.242E+04   0.165E+00 -.673E-01 0.729E+00   0.359E-01 -.783E-01 0.918E-01
   0.457E+02 0.283E+00 -.243E+04   -.457E+02 -.155E+00 0.242E+04   -.141E+00 -.109E+00 0.729E+00   -.874E-01 0.912E-02 0.911E-01
   -.457E+02 0.283E+00 -.243E+04   0.457E+02 -.155E+00 0.242E+04   0.141E+00 -.109E+00 0.729E+00   0.860E-01 0.102E-01 0.910E-01
   0.226E+02 -.397E+02 -.243E+04   -.227E+02 0.396E+02 0.242E+04   0.240E-01 0.176E+00 0.729E+00   -.498E-01 0.702E-01 0.917E-01
   -.226E+02 -.397E+02 -.243E+04   0.227E+02 0.396E+02 0.242E+04   -.240E-01 0.176E+00 0.729E+00   0.519E-01 0.693E-01 0.910E-01
   0.299E-04 -.282E-04 -.245E+04   0.146E-03 -.494E-04 0.245E+04   0.811E-17 0.855E-18 0.521E+00   -.477E-02 -.246E-02 0.690E-01
   0.171E-04 -.306E-05 -.174E+04   0.917E-04 0.821E-05 0.174E+04   0.180E-17 0.191E-17 -.760E+00   0.337E-02 0.205E-02 -.111E+00
   0.197E-03 -.963E-04 -.155E+04   0.189E-04 0.125E-05 0.153E+04   -.201E-17 0.861E-18 0.212E+02   0.374E-02 0.229E-02 -.585E-01
   0.780E-05 -.134E-04 -.310E+03   0.103E-05 0.930E-07 0.318E+03   0.156E-18 0.246E-18 -.836E+01   0.207E-03 0.126E-03 0.724E-01
 -----------------------------------------------------------------------------------------------
   -.484E-03 -.844E-03 -.621E+01   -.750E-13 0.269E-12 0.585E-11   0.164E-15 -.107E-15 0.109E+02   0.443E-02 0.331E-02 -.385E+01
 
 
 POSITION                                       TOTAL-FORCE (eV/Angst)
 -----------------------------------------------------------------------------------
      0.00000      0.00000      5.28038        -0.000000      0.000000     -0.089175
      2.93784      0.00000      5.28038        -0.004783      0.018064     -0.067461
      5.87568      0.00000      5.28038         0.004783      0.018064     -0.067461
      1.46892      2.54424      5.28038         0.013252     -0.013174     -0.067461
      4.40676      2.54424      5.28038        -0.000000      0.000000     -0.096058
      7.34459      2.54424      5.28038        -0.013252     -0.013174     -0.067461
      2.93784      5.08848      5.28038         0.018036     -0.004890     -0.067461
      5.87568      5.08848      5.28038        -0.018036     -0.004890     -0.067461
      8.81351      5.08848      5.28038        -0.000000      0.000000     -0.092660
      1.46892      0.84808      7.67911         0.062971      0.036357      0.129719
      4.40676      0.84808      7.67911        -0.000000     -0.048857      0.047138
      7.34459      0.84808      7.67911        -0.062971      0.036357      0.129719
      2.93784      3.39232      7.67911        -0.042311      0.024428      0.047138
      5.87568      3.39232      7.67911         0.042311      0.024428      0.047138
      8.81351      3.39232      7.67911        -0.000000     -0.013827      0.113372
      4.40676      5.93656      7.67911        -0.000000     -0.072713      0.129719
      7.34459      5.93656      7.67911        -0.011975      0.006913      0.113372
     10.28243      5.93656      7.67911         0.011975      0.006913      0.113372
      8.81351      1.69621     10.07295        -0.000000     -0.026197     -0.026922
      2.93663      1.69546     10.04742         0.062398      0.036025     -0.071459
      5.87688      1.69546     10.04742        -0.062398      0.036025     -0.071459
     10.27557      4.24437     10.06760         0.031084     -0.017946     -0.025505
      4.40676      4.24180     10.04742        -0.000000     -0.072051     -0.071459
      7.35146      4.24437     10.06760        -0.031084     -0.017946     -0.025505
     11.75131      6.78462     10.07295         0.022687      0.013099     -0.026922
      5.87571      6.78462     10.07295        -0.022687      0.013099     -0.026922
      8.81351      6.77672     10.06760         0.000000      0.035892     -0.025505
      0.00000      0.00000     12.49471        -0.000000      0.000000     -0.012109
      2.95476      0.03042     12.47845        -0.100618     -0.230192     -0.078530
      5.85875      0.03042     12.47845         0.100618     -0.230192     -0.078530
      1.50372      2.54369     12.47845        -0.249661      0.027958     -0.078530
      7.30979      2.54369     12.47845         0.249661      0.027958     -0.078530
      2.95572      5.05862     12.47845        -0.149043      0.202234     -0.078530
      5.85780      5.05862     12.47845         0.149043      0.202234     -0.078530
      8.81351      5.08848     12.49462        -0.000000      0.000000      0.030847
      4.40676      2.54424     12.26123        -0.000000      0.000000      0.612027
      4.40676      2.54424     14.20809        -0.000000      0.000000      0.093061
      4.40676      2.54424     15.17321        -0.000000      0.000000     -0.069010
 -----------------------------------------------------------------------------------
    total drift:                                0.003945      0.002465      0.817225


--------------------------------------------------------------------------------------------------------



  FREE ENERGIE OF THE ION-ELECTRON SYSTEM (eV)
  ---------------------------------------------------
  free  energy   TOTEN  =      -122.61788945 eV

  energy  without entropy=     -122.61788945  energy(sigma->0) =     -122.61788945
 


--------------------------------------------------------------------------------------------------------


    POTLOK:  cpu time    0.0461: real time    0.0462


--------------------------------------------------------------------------------------------------------


 stress matrix after NEB project (eV)
    -21.06905     -0.00000      0.00000
     -0.00000    -21.06904      0.00000
      0.00000      0.00000      1.11945
  FORCES: max atom, RMS     0.093061    0.018794
  FORCE total and by dimension    0.115857    0.093061
  Stress total and by dimension   29.817152   21.069046
     LOOP+:  cpu time   69.7543: real time   69.7652
 -----------------------------------------------------------------------------
|                                                                             |
|           W    W    AA    RRRRR   N    N  II  N    N   GGGG   !!!           |
|           W    W   A  A   R    R  NN   N  II  NN   N  G    G  !!!           |
|           W    W  A    A  R    R  N N  N  II  N N  N  G       !!!           |
|           W WW W  AAAAAA  RRRRR   N  N N  II  N  N N  G  GGG   !            |
|           WW  WW  A    A  R   R   N   NN  II  N   NN  G    G                |
|           W    W  A    A  R    R  N    N  II  N    N   GGGG   !!!           |
|                                                                             |
|     Tetrahedron method does not include variations of the Fermi             |
|     occupations, so forces and stress will be inaccurate. We suggest        |
|     using a different smearing scheme ISMEAR = 1 or 2 for metals in         |
|     relaxations.                                                            |
|                                                                             |
 -----------------------------------------------------------------------------

    4ORBIT:  cpu time    0.0000: real time    0.0000



 total charge

# of ion       s       p       d       tot
------------------------------------------
    1        0.544   0.238   8.769   9.551
    2        0.545   0.241   8.763   9.549
    3        0.545   0.241   8.763   9.549
    4        0.545   0.241   8.763   9.549
    5        0.542   0.243   8.761   9.545
    6        0.545   0.241   8.763   9.549
    7        0.545   0.241   8.763   9.549
    8        0.545   0.241   8.763   9.549
    9        0.541   0.240   8.765   9.546
   10        0.521   0.310   8.767   9.598
   11        0.520   0.307   8.776   9.603
   12        0.521   0.310   8.767   9.598
   13        0.520   0.307   8.776   9.603
   14        0.520   0.307   8.776   9.603
   15        0.514   0.307   8.776   9.598
   16        0.521   0.310   8.767   9.598
   17        0.514   0.307   8.776   9.598
   18        0.514   0.307   8.776   9.598
   19        0.515   0.304   8.773   9.592
   20        0.539   0.325   8.755   9.619
   21        0.539   0.325   8.755   9.619
   22        0.509   0.307   8.774   9.590
   23        0.539   0.325   8.755   9.619
   24        0.509   0.307   8.774   9.590
   25        0.515   0.304   8.773   9.592
   26        0.515   0.304   8.773   9.592
   27        0.509   0.307   8.774   9.590
   28        0.543   0.230   8.769   9.542
   29        0.538   0.234   8.768   9.540
   30        0.538   0.234   8.768   9.540
   31        0.538   0.234   8.768   9.540
   32        0.538   0.234   8.768   9.540
   33        0.538   0.234   8.768   9.540
   34        0.538   0.234   8.768   9.540
   35        0.536   0.232   8.767   9.535
   36        0.374   0.430   7.339   8.142
   37        1.541   3.521   0.000   5.062
   38        0.605   0.128   0.000   0.733
--------------------------------------------------
tot         21.086  13.687 314.223 348.996
 
 BZINTS: Fermi energy:    0.829977;  401.000000 electrons
         Band energy:-0.117212E+04;  BLOECHL correction:   -0.074117

 total amount of memory used by VASP MPI-rank0   123086. kBytes
=======================================================================

   base      :      30000. kBytes
   nonlr-proj:      13906. kBytes
   fftplans  :       4330. kBytes
   grid      :      18659. kBytes
   one-center:        590. kBytes
   wavefun   :      55601. kBytes
 
  
  
 General timing and accounting informations for this job:
 ========================================================
  
                  Total CPU time used (sec):       77.152
                            User time (sec):       74.232
                          System time (sec):        2.920
                         Elapsed time (sec):       77.549
  
                   Maximum memory used (kb):      380676.
                   Average memory used (kb):          N/A
  
                          Minor page faults:        68909
                          Major page faults:            0
                 Voluntary context switches:         4875
