PROCAR new format
# of k-points:   10         # of bands:  252         # of ions:   38

 k-point     1 :    0.00000000 0.00000000 0.00000000     weight = 0.01562500

band     1 # energy  -17.81391570 # occ.  2.00000000
 
ion      s      p      d    tot
    1  0.000  0.000  0.000  0.000
    2  0.000  0.000  0.000  0.000
    3  0.000  0.000  0.000  0.000
    4  0.000  0.000  0.000  0.000
    5  0.000  0.000  0.000  0.000
    6  0.000  0.000  0.000  0.000
    7  0.000  0.000  0.000  0.000
    8  0.000  0.000  0.000  0.000
    9  0.000  0.000  0.000  0.000
   10  0.000  0.000  0.000  0.000
   11  0.000  0.000  0.000  0.000
   12  0.000  0.000  0.000  0.000
   13  0.000  0.000  0.000  0.000
   14  0.000  0.000  0.000  0.000
   15  0.000  0.000  0.000  0.000
   16  0.000  0.000  0.000  0.000
   17  0.000  0.000  0.000  0.000
   18  0.000  0.000  0.000  0.000
   19  0.000  0.000  0.000  0.000
   20  0.000  0.000  0.000  0.000
   21  0.000  0.000  0.000  0.000
   22  0.000  0.000  0.000  0.000
   23  0.000  0.000  0.000  0.000
   24  0.000  0.000  0.000  0.000
   25  0.000  0.000  0.000  0.000
   26  0.000  0.000  0.000  0.000
   27  0.000  0.000  0.000  0.000
   28  0.000  0.000  0.000  0.000
   29  0.000  0.000  0.000  0.000
   30  0.000  0.000  0.000  0.000
   31  0.000  0.000  0.000  0.000
   32  0.000  0.000  0.000  0.000
   33  0.000  0.000  0.000  0.000
   34  0.000  0.000  0.000  0.000
   35  0.000  0.000  0.000  0.000
   36  0.006  0.010  0.014  0.030
   37  0.736  0.017  0.000  0.753
   38  0.120  0.024  0.000  0.144
tot    0.862  0.052  0.014  0.928
 
band     2 # energy   -7.98021648 # occ.  2.00000000
 
ion      s      p      d    tot
    1  0.007  0.001  0.000  0.008
    2  0.007  0.001  0.000  0.007
    3  0.007  0.001  0.000  0.007
    4  0.007  0.001  0.000  0.007
    5  0.007  0.001  0.000  0.007
    6  0.007  0.001  0.000  0.007
    7  0.007  0.001  0.000  0.007
    8  0.007  0.001  0.000  0.007
    9  0.007  0.001  0.000  0.007
   10  0.027  0.000  0.000  0.028
   11  0.027  0.000  0.000  0.028
   12  0.027  0.000  0.000  0.028
   13  0.027  0.000  0.000  0.028
   14  0.027  0.000  0.000  0.028
   15  0.027  0.000  0.000  0.028
   16  0.027  0.000  0.000  0.028
   17  0.027  0.000  0.000  0.028
   18  0.027  0.000  0.000  0.028
   19  0.024  0.000  0.000  0.024
   20  0.024  0.000  0.000  0.024
   21  0.024  0.000  0.000  0.024
   22  0.024  0.000  0.000  0.024
   23  0.024  0.000  0.000  0.024
   24  0.024  0.000  0.000  0.024
   25  0.024  0.000  0.000  0.024
   26  0.024  0.000  0.000  0.024
   27  0.024  0.000  0.000  0.024
   28  0.005  0.000  0.000  0.005
   29  0.005  0.000  0.000  0.005
   30  0.005  0.000  0.000  0.005
   31  0.005  0.000  0.000  0.005
   32  0.005  0.000  0.000  0.005
   33  0.005  0.000  0.000  0.005
   34  0.005  0.000  0.000  0.005
   35  0.005  0.000  0.000  0.005
   36  0.004  0.000  0.000  0.005
   37  0.000  0.002  0.000  0.002
   38  0.001  0.000  0.000  0.001
tot    0.565  0.013  0.004  0.582
 
band     3 # energy   -6.83107203 # occ.  2.00000000
 
ion      s      p      d    tot
    1  0.015  0.000  0.001  0.016
    2  0.015  0.000  0.001  0.016
    3  0.015  0.000  0.001  0.016
    4  0.015  0.000  0.001  0.016
    5  0.014  0.000  0.001  0.016
    6  0.015  0.000  0.001  0.016
    7  0.015  0.000  0.001  0.016
    8  0.015  0.000  0.001  0.016
    9  0.015  0.000  0.001  0.016
   10  0.009  0.001  0.002  0.013
   11  0.009  0.001  0.002  0.012
   12  0.009  0.001  0.002  0.013
   13  0.009  0.001  0.002  0.012
   14  0.009  0.001  0.002  0.012
   15  0.009  0.001  0.002  0.013
   16  0.009  0.001  0.002  0.013
   17  0.009  0.001  0.002  0.013
   18  0.009  0.001  0.002  0.013
   19  0.012  0.001  0.003  0.016
   20  0.013  0.001  0.003  0.018
   21  0.013  0.001  0.003  0.018
   22  0.012  0.001  0.003  0.015
   23  0.013  0.001  0.003  0.018
   24  0.012  0.001  0.003  0.015
   25  0.012  0.001  0.003  0.016
   26  0.012  0.001  0.003  0.016
   27  0.012  0.001  0.003  0.015
   28  0.012  0.000  0.000  0.013
   29  0.012  0.000  0.000  0.013
   30  0.012  0.000  0.000  0.013
   31  0.012  0.000  0.000  0.013
   32  0.012  0.000  0.000  0.013
   33  0.012  0.000  0.000  0.013
   34  0.012  0.000  0.000  0.013
   35  0.012  0.000  0.000  0.013
   36  0.023  0.001  0.014  0.039
   37  0.002  0.068  0.000  0.070
   38  0.024  0.003  0.000  0.026
tot    0.469  0.099  0.073  0.641
 
band     4 # energy   -6.50007861 # occ.  2.00000000
 
ion      s      p      d    tot
    1  0.004  0.000  0.000  0.004
    2  0.003  0.000  0.000  0.003
    3  0.003  0.000  0.000  0.003
    4  0.003  0.000  0.000  0.003
    5  0.003  0.000  0.000  0.003
    6  0.003  0.000  0.000  0.003
    7  0.003  0.000  0.000  0.003
    8  0.003  0.000  0.000  0.003
    9  0.002  0.000  0.000  0.002
   10  0.001  0.000  0.000  0.002
   11  0.001  0.000  0.000  0.001
   12  0.001  0.000  0.000  0.002
   13  0.001  0.000  0.000  0.001
   14  0.001  0.000  0.000  0.001
   15  0.000  0.000  0.001  0.001
   16  0.001  0.000  0.000  0.002
   17  0.000  0.000  0.001  0.001
   18  0.000  0.000  0.001  0.001
   19  0.005  0.000  0.002  0.007
   20  0.000  0.001  0.006  0.007
   21  0.000  0.001  0.006  0.007
   22  0.008  0.000  0.001  0.009
   23  0.000  0.001  0.006  0.007
   24  0.008  0.000  0.001  0.009
   25  0.005  0.000  0.002  0.007
   26  0.005  0.000  0.002  0.007
   27  0.008  0.000  0.001  0.009
   28  0.003  0.000  0.000  0.003
   29  0.001  0.000  0.001  0.002
   30  0.001  0.000  0.001  0.002
   31  0.001  0.000  0.001  0.002
   32  0.001  0.000  0.001  0.002
   33  0.001  0.000  0.001  0.002
   34  0.001  0.000  0.001  0.002
   35  0.004  0.000  0.000  0.004
   36  0.030  0.024  0.130  0.184
   37  0.020  0.401  0.000  0.421
   38  0.135  0.014  0.000  0.149
tot    0.266  0.447  0.168  0.881
 
band     5 # energy   -5.86949961 # occ.  2.00000000
 
ion      s      p      d    tot
    1  0.016  0.000  0.023  0.040
    2  0.020  0.000  0.020  0.040
    3  0.020  0.000  0.020  0.040
    4  0.020  0.000  0.020  0.040
    5  0.016  0.000  0.019  0.035
    6  0.020  0.000  0.020  0.040
    7  0.020  0.000  0.020  0.040
    8  0.020  0.000  0.020  0.040
    9  0.030  0.000  0.017  0.047
   10  0.011  0.001  0.023  0.034
   11  0.013  0.001  0.021  0.035
   12  0.011  0.001  0.023  0.034
   13  0.013  0.001  0.021  0.035
   14  0.013  0.001  0.021  0.035
   15  0.002  0.001  0.026  0.028
   16  0.011  0.001  0.023  0.034
   17  0.002  0.001  0.026  0.028
   18  0.002  0.001  0.026  0.028
   19  0.000  0.001  0.003  0.004
   20  0.001  0.001  0.003  0.005
   21  0.001  0.001  0.003  0.005
   22  0.001  0.001  0.001  0.003
   23  0.001  0.001  0.003  0.005
   24  0.001  0.001  0.001  0.003
   25  0.000  0.001  0.003  0.004
   26  0.000  0.001  0.003  0.004
   27  0.001  0.001  0.001  0.003
   28  0.004  0.000  0.000  0.004
   29  0.002  0.000  0.001  0.003
   30  0.002  0.000  0.001  0.003
   31  0.002  0.000  0.001  0.003
   32  0.002  0.000  0.001  0.003
   33  0.002  0.000  0.001  0.003
   34  0.002  0.000  0.001  0.003
   35  0.004  0.000  0.000  0.004
   36  0.000  0.000  0.001  0.001
   37  0.000  0.000  0.000  0.000
   38  0.000  0.000  0.000  0.000
tot    0.289  0.013  0.414  0.716
 
band     6 # energy   -5.81944560 # occ.  2.00000000
 
ion      s      p      d    tot
    1  0.000  0.000  0.008  0.008
    2  0.006  0.001  0.004  0.011
    3  0.006  0.001  0.003  0.011
    4  0.006  0.001  0.004  0.011
    5  0.000  0.001  0.009  0.010
    6  0.000  0.000  0.003  0.004
    7  0.006  0.001  0.003  0.011
    8  0.000  0.000  0.003  0.004
    9  0.000  0.000  0.001  0.002
   10  0.000  0.000  0.038  0.038
   11  0.046  0.002  0.015  0.062
   12  0.020  0.001  0.013  0.035
   13  0.046  0.001  0.015  0.062
   14  0.000  0.003  0.032  0.034
   15  0.005  0.001  0.012  0.019
   16  0.020  0.001  0.013  0.035
   17  0.005  0.001  0.013  0.019
   18  0.000  0.004  0.002  0.007
   19  0.003  0.001  0.011  0.015
   20  0.000  0.003  0.026  0.028
   21  0.039  0.002  0.013  0.053
   22  0.020  0.001  0.011  0.032
   23  0.038  0.002  0.013  0.053
   24  0.000  0.000  0.032  0.032
   25  0.000  0.004  0.004  0.007
   26  0.003  0.001  0.011  0.015
   27  0.020  0.001  0.011  0.032
   28  0.000  0.000  0.001  0.001
   29  0.000  0.000  0.002  0.002
   30  0.005  0.001  0.002  0.008
   31  0.000  0.000  0.002  0.002
   32  0.004  0.001  0.003  0.007
   33  0.004  0.001  0.002  0.008
   34  0.003  0.001  0.003  0.007
   35  0.000  0.000  0.005  0.005
   36  0.000  0.001  0.004  0.005
   37  0.000  0.000  0.000  0.000
   38  0.000  0.000  0.000  0.000
tot    0.305  0.043  0.347  0.695
 
band     7 # energy   -5.81940800 # occ.  2.00000000
 
ion      s      p      d    tot
    1  0.000  0.000  0.008  0.008
    2  0.002  0.001  0.003  0.006
    3  0.002  0.001  0.004  0.006
    4  0.002  0.001  0.003  0.006
    5  0.000  0.001  0.009  0.010
    6  0.008  0.001  0.004  0.013
    7  0.002  0.001  0.004  0.006
    8  0.008  0.001  0.004  0.013
    9  0.000  0.000  0.001  0.002
   10  0.027  0.002  0.005  0.034
   11  0.016  0.002  0.026  0.044
   12  0.007  0.001  0.030  0.037
   13  0.015  0.002  0.026  0.044
   14  0.061  0.001  0.009  0.071
   15  0.002  0.003  0.006  0.011
   16  0.007  0.001  0.029  0.037
   17  0.002  0.003  0.006  0.011
   18  0.007  0.000  0.016  0.023
   19  0.001  0.003  0.006  0.010
   20  0.051  0.001  0.009  0.062
   21  0.013  0.002  0.022  0.036
   22  0.007  0.000  0.025  0.032
   23  0.013  0.002  0.021  0.037
   24  0.026  0.002  0.004  0.031
   25  0.004  0.000  0.013  0.017
   26  0.001  0.003  0.006  0.009
   27  0.007  0.001  0.025  0.032
   28  0.000  0.000  0.001  0.001
   29  0.005  0.001  0.003  0.009
   30  0.001  0.000  0.003  0.004
   31  0.005  0.001  0.003  0.009
   32  0.002  0.000  0.002  0.004
   33  0.001  0.000  0.003  0.004
   34  0.002  0.000  0.002  0.004
   35  0.000  0.000  0.005  0.005
   36  0.000  0.001  0.004  0.005
   37  0.000  0.000  0.000  0.000
   38  0.000  0.000  0.000  0.000
tot    0.305  0.043  0.347  0.695
 
band     8 # energy   -5.81429309 # occ.  2.00000000
 
ion      s      p      d    tot
    1  0.017  0.002  0.001  0.019
    2  0.000  0.001  0.006  0.007
    3  0.000  0.001  0.006  0.007
    4  0.000  0.001  0.006  0.007
    5  0.008  0.001  0.002  0.011
    6  0.000  0.001  0.006  0.007
    7  0.000  0.001  0.006  0.007
    8  0.000  0.001  0.006  0.007
    9  0.001  0.000  0.000  0.001
   10  0.030  0.003  0.007  0.039
   11  0.013  0.000  0.028  0.042
   12  0.028  0.003  0.007  0.037
   13  0.013  0.000  0.028  0.042
   14  0.014  0.000  0.028  0.042
   15  0.005  0.002  0.015  0.022
   16  0.028  0.003  0.007  0.037
   17  0.005  0.002  0.015  0.022
   18  0.005  0.002  0.015  0.022
   19  0.025  0.003  0.002  0.030
   20  0.000  0.001  0.020  0.021
   21  0.000  0.001  0.020  0.021
   22  0.015  0.000  0.021  0.037
   23  0.000  0.001  0.020  0.021
   24  0.015  0.000  0.021  0.037
   25  0.023  0.003  0.002  0.029
   26  0.025  0.003  0.002  0.030
   27  0.015  0.000  0.021  0.037
   28  0.006  0.001  0.001  0.007
   29  0.000  0.000  0.004  0.004
   30  0.000  0.000  0.004  0.004
   31  0.000  0.000  0.004  0.004
   32  0.000  0.000  0.004  0.005
   33  0.000  0.000  0.004  0.004
   34  0.000  0.000  0.004  0.005
   35  0.010  0.001  0.001  0.012
   36  0.000  0.001  0.000  0.001
   37  0.000  0.003  0.000  0.003
   38  0.001  0.000  0.000  0.001
tot    0.304  0.045  0.344  0.693
 
band     9 # energy   -5.81039292 # occ.  2.00000000
 
ion      s      p      d    tot
    1  0.000  0.001  0.005  0.006
    2  0.006  0.001  0.004  0.011
    3  0.007  0.001  0.003  0.011
    4  0.006  0.001  0.004  0.011
    5  0.000  0.000  0.003  0.003
    6  0.000  0.000  0.003  0.004
    7  0.007  0.001  0.003  0.011
    8  0.000  0.000  0.003  0.004
    9  0.000  0.001  0.011  0.012
   10  0.037  0.000  0.016  0.053
   11  0.000  0.002  0.015  0.017
   12  0.009  0.003  0.011  0.024
   13  0.000  0.002  0.015  0.017
   14  0.002  0.001  0.011  0.014
   15  0.015  0.001  0.035  0.051
   16  0.010  0.003  0.011  0.024
   17  0.014  0.001  0.036  0.051
   18  0.057  0.002  0.004  0.063
   19  0.012  0.001  0.028  0.041
   20  0.003  0.001  0.009  0.014
   21  0.001  0.001  0.013  0.015
   22  0.006  0.003  0.011  0.021
   23  0.001  0.001  0.013  0.015
   24  0.027  0.000  0.013  0.041
   25  0.048  0.002  0.004  0.054
   26  0.011  0.001  0.029  0.041
   27  0.007  0.003  0.011  0.021
   28  0.000  0.001  0.007  0.007
   29  0.000  0.000  0.002  0.002
   30  0.004  0.001  0.002  0.006
   31  0.000  0.000  0.002  0.002
   32  0.004  0.001  0.003  0.007
   33  0.004  0.001  0.002  0.006
   34  0.003  0.001  0.003  0.007
   35  0.000  0.001  0.003  0.003
   36  0.000  0.000  0.001  0.001
   37  0.000  0.000  0.000  0.000
   38  0.000  0.000  0.000  0.000
tot    0.302  0.042  0.350  0.693
 
band    10 # energy   -5.81035009 # occ.  2.00000000
 
ion      s      p      d    tot
    1  0.000  0.001  0.005  0.006
    2  0.003  0.001  0.003  0.006
    3  0.002  0.001  0.004  0.006
    4  0.002  0.001  0.003  0.006
    5  0.000  0.000  0.003  0.003
    6  0.008  0.001  0.004  0.014
    7  0.002  0.001  0.004  0.006
    8  0.008  0.001  0.004  0.014
    9  0.000  0.001  0.011  0.012
   10  0.000  0.004  0.010  0.014
   11  0.001  0.001  0.012  0.015
   12  0.029  0.001  0.014  0.044
   13  0.001  0.001  0.012  0.015
   14  0.000  0.002  0.016  0.018
   15  0.042  0.001  0.015  0.059
   16  0.028  0.001  0.014  0.044
   17  0.043  0.001  0.014  0.059
   18  0.000  0.000  0.046  0.047
   19  0.035  0.002  0.012  0.049
   20  0.000  0.001  0.015  0.016
   21  0.003  0.001  0.011  0.014
   22  0.020  0.001  0.013  0.034
   23  0.003  0.001  0.011  0.014
   24  0.000  0.004  0.010  0.014
   25  0.000  0.001  0.037  0.037
   26  0.036  0.002  0.012  0.049
   27  0.020  0.001  0.013  0.034
   28  0.000  0.001  0.007  0.007
   29  0.005  0.001  0.002  0.008
   30  0.001  0.000  0.002  0.004
   31  0.005  0.001  0.002  0.008
   32  0.001  0.000  0.002  0.003
   33  0.001  0.000  0.002  0.004
   34  0.001  0.000  0.002  0.003
   35  0.000  0.001  0.003  0.003
   36  0.000  0.000  0.001  0.001
   37  0.000  0.000  0.000  0.000
   38  0.000  0.000  0.000  0.000
tot    0.302  0.042  0.350  0.693
 
band    11 # energy   -5.79523130 # occ.  2.00000000
 
ion      s      p      d    tot
    1  0.003  0.000  0.000  0.003
    2  0.001  0.001  0.006  0.008
    3  0.001  0.001  0.006  0.008
    4  0.001  0.001  0.006  0.008
    5  0.013  0.001  0.000  0.014
    6  0.001  0.001  0.006  0.008
    7  0.001  0.001  0.006  0.008
    8  0.001  0.001  0.006  0.008
    9  0.008  0.002  0.006  0.016
   10  0.000  0.001  0.029  0.030
   11  0.012  0.003  0.009  0.024
   12  0.000  0.001  0.029  0.030
   13  0.012  0.003  0.009  0.024
   14  0.012  0.003  0.009  0.024
   15  0.032  0.001  0.017  0.050
   16  0.000  0.001  0.029  0.030
   17  0.032  0.001  0.017  0.050
   18  0.032  0.001  0.017  0.050
   19  0.001  0.000  0.027  0.028
   20  0.030  0.002  0.005  0.036
   21  0.030  0.002  0.005  0.037
   22  0.001  0.002  0.016  0.019
   23  0.030  0.002  0.005  0.037
   24  0.001  0.002  0.016  0.020
   25  0.001  0.000  0.027  0.028
   26  0.001  0.000  0.027  0.028
   27  0.001  0.002  0.016  0.019
   28  0.008  0.000  0.000  0.008
   29  0.001  0.000  0.005  0.006
   30  0.001  0.000  0.005  0.006
   31  0.001  0.000  0.005  0.006
   32  0.001  0.000  0.005  0.007
   33  0.001  0.000  0.005  0.006
   34  0.001  0.000  0.005  0.007
   35  0.004  0.000  0.002  0.006
   36  0.000  0.005  0.000  0.005
   37  0.001  0.008  0.000  0.009
   38  0.003  0.000  0.000  0.003
tot    0.283  0.046  0.384  0.712
 
band    12 # energy   -5.68014130 # occ.  2.00000000
 
ion      s      p      d    tot
    1  0.002  0.000  0.000  0.002
    2  0.000  0.000  0.001  0.002
    3  0.000  0.000  0.001  0.002
    4  0.000  0.000  0.001  0.002
    5  0.003  0.000  0.000  0.003
    6  0.000  0.000  0.001  0.002
    7  0.000  0.000  0.001  0.002
    8  0.000  0.000  0.001  0.002
    9  0.001  0.000  0.001  0.003
   10  0.001  0.000  0.007  0.008
   11  0.003  0.001  0.002  0.005
   12  0.001  0.000  0.007  0.008
   13  0.003  0.001  0.002  0.005
   14  0.003  0.001  0.002  0.005
   15  0.005  0.001  0.006  0.011
   16  0.001  0.000  0.007  0.008
   17  0.005  0.001  0.006  0.011
   18  0.005  0.001  0.006  0.011
   19  0.004  0.001  0.019  0.024
   20  0.001  0.000  0.025  0.026
   21  0.001  0.000  0.025  0.026
   22  0.010  0.002  0.022  0.034
   23  0.001  0.000  0.025  0.026
   24  0.010  0.002  0.022  0.034
   25  0.004  0.001  0.019  0.024
   26  0.004  0.001  0.019  0.024
   27  0.010  0.002  0.022  0.034
   28  0.027  0.000  0.023  0.050
   29  0.023  0.000  0.019  0.042
   30  0.023  0.000  0.019  0.042
   31  0.023  0.000  0.019  0.042
   32  0.023  0.000  0.019  0.042
   33  0.023  0.000  0.019  0.042
   34  0.023  0.000  0.019  0.042
   35  0.026  0.000  0.021  0.047
   36  0.006  0.000  0.016  0.023
   37  0.000  0.002  0.000  0.003
   38  0.001  0.000  0.000  0.001
tot    0.279  0.017  0.424  0.720
 
band    13 # energy   -5.33881917 # occ.  2.00000000
 
ion      s      p      d    tot
    1  0.016  0.002  0.002  0.020
    2  0.000  0.001  0.009  0.009
    3  0.000  0.001  0.009  0.009
    4  0.000  0.001  0.009  0.009
    5  0.000  0.000  0.002  0.002
    6  0.000  0.001  0.009  0.009
    7  0.000  0.001  0.009  0.009
    8  0.000  0.001  0.009  0.009
    9  0.016  0.001  0.000  0.017
   10  0.009  0.002  0.011  0.021
   11  0.003  0.000  0.039  0.043
   12  0.009  0.002  0.011  0.021
   13  0.003  0.000  0.039  0.043
   14  0.003  0.000  0.039  0.042
   15  0.002  0.001  0.030  0.033
   16  0.009  0.002  0.011  0.021
   17  0.002  0.001  0.030  0.033
   18  0.002  0.001  0.030  0.033
   19  0.006  0.001  0.012  0.019
   20  0.001  0.000  0.043  0.044
   21  0.001  0.000  0.043  0.044
   22  0.013  0.001  0.021  0.035
   23  0.001  0.000  0.043  0.044
   24  0.013  0.001  0.021  0.035
   25  0.006  0.001  0.012  0.019
   26  0.006  0.001  0.012  0.019
   27  0.013  0.001  0.021  0.035
   28  0.012  0.001  0.001  0.014
   29  0.000  0.001  0.006  0.006
   30  0.000  0.001  0.006  0.007
   31  0.000  0.001  0.006  0.006
   32  0.000  0.001  0.006  0.006
   33  0.000  0.001  0.006  0.007
   34  0.000  0.001  0.006  0.006
   35  0.010  0.001  0.002  0.014
   36  0.000  0.000  0.001  0.001
   37  0.000  0.000  0.000  0.000
   38  0.000  0.000  0.000  0.000
tot    0.158  0.031  0.559  0.747
 
band    14 # energy   -5.32749015 # occ.  2.00000000
 
ion      s      p      d    tot
    1  0.000  0.001  0.004  0.005
    2  0.010  0.001  0.004  0.015
    3  0.002  0.000  0.005  0.007
    4  0.010  0.001  0.004  0.015
    5  0.000  0.001  0.013  0.014
    6  0.002  0.001  0.005  0.009
    7  0.002  0.000  0.005  0.007
    8  0.003  0.001  0.005  0.009
    9  0.000  0.000  0.009  0.009
   10  0.010  0.002  0.008  0.020
   11  0.004  0.000  0.039  0.044
   12  0.002  0.001  0.044  0.047
   13  0.004  0.000  0.040  0.044
   14  0.016  0.001  0.013  0.031
   15  0.000  0.001  0.014  0.015
   16  0.003  0.001  0.043  0.047
   17  0.000  0.001  0.014  0.015
   18  0.001  0.000  0.024  0.025
   19  0.003  0.001  0.017  0.022
   20  0.024  0.001  0.005  0.031
   21  0.006  0.000  0.051  0.058
   22  0.000  0.001  0.028  0.029
   23  0.006  0.000  0.051  0.057
   24  0.002  0.001  0.015  0.017
   25  0.014  0.000  0.022  0.036
   26  0.003  0.001  0.017  0.022
   27  0.000  0.001  0.028  0.029
   28  0.000  0.001  0.008  0.009
   29  0.008  0.001  0.004  0.013
   30  0.000  0.001  0.004  0.005
   31  0.008  0.001  0.004  0.013
   32  0.004  0.001  0.003  0.008
   33  0.001  0.001  0.004  0.005
   34  0.004  0.001  0.003  0.008
   35  0.000  0.000  0.003  0.004
   36  0.000  0.002  0.004  0.006
   37  0.000  0.000  0.000  0.000
   38  0.000  0.000  0.000  0.000
tot    0.154  0.030  0.566  0.750
 
band    15 # energy   -5.32747391 # occ.  2.00000000
 
ion      s      p      d    tot
    1  0.000  0.001  0.004  0.005
    2  0.000  0.000  0.005  0.006
    3  0.007  0.001  0.005  0.014
    4  0.000  0.000  0.005  0.006
    5  0.000  0.001  0.013  0.014
    6  0.007  0.001  0.004  0.012
    7  0.007  0.001  0.005  0.013
    8  0.007  0.001  0.004  0.012
    9  0.000  0.000  0.009  0.009
   10  0.000  0.000  0.055  0.056
   11  0.012  0.001  0.022  0.035
   12  0.008  0.002  0.019  0.029
   13  0.012  0.001  0.022  0.035
   14  0.000  0.000  0.048  0.048
   15  0.001  0.001  0.020  0.022
   16  0.008  0.002  0.020  0.029
   17  0.001  0.001  0.021  0.022
   18  0.000  0.001  0.011  0.012
   19  0.010  0.000  0.020  0.031
   20  0.000  0.000  0.066  0.066
   21  0.018  0.001  0.020  0.040
   22  0.001  0.001  0.019  0.021
   23  0.018  0.001  0.021  0.040
   24  0.000  0.001  0.032  0.034
   25  0.000  0.001  0.016  0.017
   26  0.010  0.000  0.020  0.031
   27  0.001  0.001  0.019  0.021
   28  0.000  0.001  0.008  0.009
   29  0.001  0.000  0.004  0.005
   30  0.008  0.001  0.004  0.012
   31  0.001  0.000  0.004  0.005
   32  0.004  0.001  0.004  0.009
   33  0.008  0.001  0.004  0.012
   34  0.004  0.001  0.004  0.009
   35  0.000  0.000  0.003  0.004
   36  0.000  0.002  0.004  0.006
   37  0.000  0.000  0.000  0.000
   38  0.000  0.000  0.000  0.000
tot    0.154  0.030  0.566  0.750
 
band    16 # energy   -5.32130910 # occ.  2.00000000
 
ion      s      p      d    tot
    1  0.000  0.000  0.014  0.015
    2  0.010  0.001  0.005  0.016
    3  0.003  0.000  0.005  0.008
    4  0.010  0.001  0.005  0.016
    5  0.000  0.000  0.004  0.005
    6  0.002  0.001  0.006  0.009
    7  0.003  0.000  0.005  0.008
    8  0.002  0.001  0.006  0.009
    9  0.000  0.001  0.009  0.010
   10  0.000  0.001  0.023  0.024
   11  0.002  0.001  0.019  0.022
   12  0.005  0.000  0.022  0.028
   13  0.002  0.001  0.019  0.022
   14  0.000  0.001  0.026  0.027
   15  0.013  0.002  0.021  0.036
   16  0.005  0.000  0.023  0.028
   17  0.013  0.002  0.021  0.035
   18  0.000  0.000  0.065  0.065
   19  0.011  0.001  0.019  0.031
   20  0.000  0.002  0.012  0.013
   21  0.001  0.000  0.020  0.022
   22  0.019  0.001  0.021  0.041
   23  0.001  0.000  0.020  0.022
   24  0.000  0.000  0.042  0.042
   25  0.000  0.001  0.061  0.061
   26  0.011  0.001  0.019  0.031
   27  0.019  0.001  0.021  0.041
   28  0.000  0.001  0.004  0.005
   29  0.006  0.001  0.004  0.011
   30  0.001  0.000  0.004  0.005
   31  0.006  0.001  0.004  0.011
   32  0.003  0.001  0.002  0.006
   33  0.001  0.000  0.004  0.005
   34  0.003  0.001  0.002  0.006
   35  0.000  0.001  0.008  0.010
   36  0.000  0.000  0.002  0.002
   37  0.000  0.000  0.000  0.000
   38  0.000  0.000  0.000  0.000
tot    0.152  0.029  0.569  0.750
 
band    17 # energy   -5.32128351 # occ.  2.00000000
 
ion      s      p      d    tot
    1  0.000  0.000  0.014  0.015
    2  0.000  0.000  0.005  0.006
    3  0.008  0.001  0.005  0.014
    4  0.000  0.000  0.005  0.006
    5  0.000  0.000  0.004  0.005
    6  0.008  0.001  0.005  0.014
    7  0.008  0.001  0.005  0.014
    8  0.008  0.001  0.005  0.014
    9  0.000  0.001  0.009  0.010
   10  0.007  0.000  0.022  0.029
   11  0.001  0.001  0.024  0.026
   12  0.002  0.001  0.023  0.025
   13  0.001  0.001  0.024  0.026
   14  0.002  0.001  0.017  0.021
   15  0.004  0.001  0.050  0.055
   16  0.002  0.001  0.023  0.025
   17  0.004  0.001  0.051  0.055
   18  0.017  0.002  0.007  0.026
   19  0.004  0.001  0.047  0.051
   20  0.002  0.000  0.023  0.024
   21  0.000  0.001  0.015  0.016
   22  0.006  0.000  0.035  0.042
   23  0.000  0.001  0.015  0.016
   24  0.026  0.001  0.014  0.041
   25  0.014  0.001  0.005  0.021
   26  0.003  0.001  0.047  0.051
   27  0.006  0.000  0.035  0.042
   28  0.000  0.001  0.004  0.005
   29  0.000  0.000  0.003  0.004
   30  0.006  0.001  0.003  0.010
   31  0.000  0.000  0.003  0.004
   32  0.004  0.001  0.004  0.009
   33  0.006  0.001  0.003  0.010
   34  0.004  0.001  0.004  0.009
   35  0.000  0.001  0.008  0.010
   36  0.000  0.000  0.002  0.002
   37  0.000  0.000  0.000  0.000
   38  0.000  0.000  0.000  0.000
tot    0.152  0.029  0.569  0.750
 
band    18 # energy   -5.27564040 # occ.  2.00000000
 
ion      s      p      d    tot
    1  0.010  0.000  0.001  0.011
    2  0.000  0.001  0.009  0.010
    3  0.000  0.001  0.009  0.010
    4  0.000  0.001  0.009  0.010
    5  0.018  0.002  0.001  0.020
    6  0.000  0.001  0.009  0.010
    7  0.000  0.001  0.009  0.010
    8  0.000  0.001  0.009  0.010
    9  0.001  0.000  0.002  0.004
   10  0.000  0.000  0.044  0.044
   11  0.004  0.002  0.017  0.022
   12  0.000  0.000  0.044  0.044
   13  0.004  0.002  0.017  0.022
   14  0.004  0.002  0.017  0.022
   15  0.004  0.001  0.023  0.027
   16  0.000  0.000  0.044  0.044
   17  0.004  0.001  0.023  0.027
   18  0.004  0.001  0.023  0.027
   19  0.007  0.000  0.051  0.059
   20  0.013  0.001  0.004  0.018
   21  0.013  0.001  0.004  0.018
   22  0.001  0.000  0.032  0.033
   23  0.013  0.001  0.004  0.018
   24  0.001  0.000  0.032  0.033
   25  0.007  0.000  0.051  0.059
   26  0.007  0.000  0.051  0.059
   27  0.001  0.000  0.032  0.033
   28  0.000  0.000  0.007  0.007
   29  0.000  0.000  0.005  0.006
   30  0.000  0.000  0.005  0.006
   31  0.000  0.000  0.005  0.006
   32  0.000  0.000  0.005  0.006
   33  0.000  0.000  0.005  0.006
   34  0.000  0.000  0.005  0.006
   35  0.002  0.000  0.000  0.003
   36  0.004  0.005  0.001  0.010
   37  0.001  0.005  0.000  0.006
   38  0.002  0.000  0.000  0.002
tot    0.129  0.031  0.611  0.771
 
band    19 # energy   -4.95264791 # occ.  2.00000000
 
ion      s      p      d    tot
    1  0.000  0.001  0.016  0.017
    2  0.013  0.001  0.013  0.026
    3  0.002  0.001  0.012  0.015
    4  0.013  0.001  0.013  0.026
    5  0.000  0.000  0.036  0.036
    6  0.004  0.000  0.018  0.022
    7  0.002  0.001  0.012  0.015
    8  0.004  0.000  0.018  0.022
    9  0.000  0.002  0.012  0.013
   10  0.000  0.000  0.008  0.008
   11  0.000  0.001  0.033  0.034
   12  0.000  0.000  0.018  0.019
   13  0.000  0.001  0.033  0.034
   14  0.000  0.000  0.037  0.037
   15  0.000  0.000  0.052  0.053
   16  0.000  0.000  0.018  0.019
   17  0.000  0.000  0.052  0.053
   18  0.000  0.000  0.048  0.048
   19  0.001  0.000  0.011  0.012
   20  0.000  0.000  0.012  0.012
   21  0.001  0.000  0.024  0.026
   22  0.000  0.000  0.040  0.041
   23  0.001  0.000  0.024  0.026
   24  0.000  0.000  0.029  0.029
   25  0.000  0.000  0.013  0.013
   26  0.001  0.000  0.011  0.012
   27  0.000  0.000  0.040  0.041
   28  0.000  0.000  0.015  0.015
   29  0.003  0.001  0.006  0.010
   30  0.008  0.000  0.010  0.018
   31  0.003  0.001  0.006  0.010
   32  0.001  0.000  0.009  0.010
   33  0.008  0.000  0.010  0.018
   34  0.001  0.000  0.009  0.010
   35  0.000  0.001  0.019  0.019
   36  0.000  0.002  0.002  0.003
   37  0.000  0.000  0.000  0.000
   38  0.000  0.000  0.000  0.000
tot    0.068  0.016  0.738  0.823
 
band    20 # energy   -4.95264039 # occ.  2.00000000
 
ion      s      p      d    tot
    1  0.000  0.001  0.016  0.017
    2  0.000  0.001  0.015  0.016
    3  0.011  0.001  0.017  0.028
    4  0.000  0.001  0.015  0.016
    5  0.000  0.000  0.036  0.036
    6  0.009  0.001  0.010  0.020
    7  0.011  0.001  0.017  0.028
    8  0.009  0.001  0.010  0.020
    9  0.000  0.002  0.012  0.013
   10  0.000  0.000  0.022  0.023
   11  0.000  0.000  0.036  0.036
   12  0.000  0.000  0.011  0.011
   13  0.000  0.000  0.036  0.036
   14  0.000  0.001  0.032  0.032
   15  0.000  0.000  0.049  0.049
   16  0.000  0.000  0.011  0.011
   17  0.000  0.000  0.049  0.049
   18  0.000  0.000  0.054  0.054
   19  0.000  0.000  0.012  0.013
   20  0.002  0.000  0.028  0.030
   21  0.000  0.000  0.016  0.016
   22  0.000  0.000  0.033  0.033
   23  0.000  0.000  0.016  0.016
   24  0.000  0.000  0.044  0.044
   25  0.001  0.000  0.011  0.012
   26  0.000  0.000  0.012  0.013
   27  0.000  0.000  0.033  0.033
   28  0.000  0.000  0.015  0.015
   29  0.005  0.000  0.010  0.015
   30  0.000  0.000  0.007  0.007
   31  0.005  0.000  0.010  0.015
   32  0.007  0.001  0.008  0.016
   33  0.000  0.000  0.007  0.007
   34  0.007  0.001  0.008  0.016
   35  0.000  0.001  0.019  0.019
   36  0.000  0.002  0.002  0.003
   37  0.000  0.000  0.000  0.000
   38  0.000  0.000  0.000  0.000
tot    0.068  0.016  0.738  0.823
 
band    21 # energy   -4.94957926 # occ.  2.00000000
 
ion      s      p      d    tot
    1  0.023  0.001  0.001  0.024
    2  0.000  0.001  0.022  0.023
    3  0.000  0.001  0.022  0.023
    4  0.000  0.001  0.022  0.023
    5  0.018  0.000  0.014  0.033
    6  0.000  0.001  0.022  0.023
    7  0.000  0.001  0.022  0.023
    8  0.000  0.001  0.022  0.023
    9  0.000  0.000  0.007  0.008
   10  0.000  0.000  0.030  0.030
   11  0.000  0.000  0.035  0.035
   12  0.000  0.000  0.030  0.031
   13  0.000  0.000  0.035  0.035
   14  0.000  0.000  0.036  0.036
   15  0.000  0.000  0.037  0.037
   16  0.000  0.000  0.030  0.031