PROCAR new format
# of k-points:   10         # of bands:  252         # of ions:   37

 k-point     1 :    0.00000000 0.00000000 0.00000000     weight = 0.01562500

band     1 # energy   -6.42762644 # occ.  2.00000000
 
ion      s      p      d    tot
    1  0.005  0.001  0.000  0.006
    2  0.005  0.000  0.000  0.005
    3  0.005  0.000  0.000  0.005
    4  0.005  0.000  0.000  0.005
    5  0.005  0.000  0.000  0.005
    6  0.005  0.000  0.000  0.005
    7  0.005  0.000  0.000  0.005
    8  0.005  0.000  0.000  0.005
    9  0.005  0.000  0.000  0.005
   10  0.021  0.000  0.000  0.022
   11  0.021  0.000  0.000  0.022
   12  0.021  0.000  0.000  0.022
   13  0.021  0.000  0.000  0.022
   14  0.021  0.000  0.000  0.022
   15  0.019  0.000  0.000  0.020
   16  0.021  0.000  0.000  0.022
   17  0.019  0.000  0.000  0.020
   18  0.019  0.000  0.000  0.020
   19  0.022  0.000  0.000  0.023
   20  0.029  0.000  0.001  0.030
   21  0.029  0.000  0.001  0.030
   22  0.022  0.000  0.000  0.022
   23  0.029  0.000  0.001  0.030
   24  0.022  0.000  0.000  0.022
   25  0.022  0.000  0.000  0.023
   26  0.022  0.000  0.000  0.023
   27  0.022  0.000  0.000  0.022
   28  0.006  0.001  0.000  0.007
   29  0.008  0.001  0.000  0.009
   30  0.008  0.001  0.000  0.009
   31  0.008  0.001  0.000  0.009
   32  0.008  0.001  0.000  0.009
   33  0.008  0.001  0.000  0.009
   34  0.008  0.001  0.000  0.009
   35  0.006  0.000  0.000  0.006
   36  0.023  0.002  0.000  0.025
   37  0.001  0.000  0.000  0.001
tot    0.529  0.013  0.009  0.551
 
band     2 # energy   -5.59279680 # occ.  2.00000000
 
ion      s      p      d    tot
    1  0.008  0.000  0.001  0.009
    2  0.010  0.000  0.001  0.011
    3  0.010  0.000  0.001  0.011
    4  0.010  0.000  0.001  0.011
    5  0.010  0.001  0.000  0.011
    6  0.010  0.000  0.001  0.011
    7  0.010  0.000  0.001  0.011
    8  0.010  0.000  0.001  0.011
    9  0.010  0.001  0.000  0.012
   10  0.012  0.001  0.012  0.025
   11  0.014  0.001  0.009  0.024
   12  0.012  0.001  0.012  0.025
   13  0.014  0.001  0.009  0.024
   14  0.014  0.001  0.009  0.024
   15  0.015  0.001  0.008  0.024
   16  0.012  0.001  0.012  0.025
   17  0.015  0.001  0.008  0.024
   18  0.015  0.001  0.008  0.024
   19  0.004  0.001  0.007  0.013
   20  0.011  0.002  0.011  0.024
   21  0.011  0.002  0.011  0.024
   22  0.004  0.001  0.006  0.011
   23  0.011  0.002  0.011  0.024
   24  0.004  0.001  0.006  0.011
   25  0.004  0.001  0.007  0.013
   26  0.004  0.001  0.007  0.013
   27  0.004  0.001  0.006  0.011
   28  0.007  0.000  0.003  0.010
   29  0.011  0.000  0.006  0.018
   30  0.011  0.000  0.006  0.018
   31  0.011  0.000  0.006  0.018
   32  0.011  0.000  0.006  0.018
   33  0.011  0.000  0.006  0.018
   34  0.011  0.000  0.006  0.018
   35  0.007  0.000  0.002  0.009
   36  0.048  0.001  0.000  0.049
   37  0.002  0.000  0.000  0.002
tot    0.400  0.029  0.209  0.637
 
band     3 # energy   -5.36106336 # occ.  2.00000000
 
ion      s      p      d    tot
    1  0.000  0.000  0.005  0.005
    2  0.001  0.000  0.002  0.003
    3  0.001  0.000  0.002  0.003
    4  0.001  0.000  0.002  0.003
    5  0.001  0.000  0.001  0.002
    6  0.001  0.000  0.002  0.003
    7  0.001  0.000  0.002  0.003
    8  0.001  0.000  0.002  0.003
    9  0.002  0.000  0.001  0.003
   10  0.002  0.000  0.017  0.018
   11  0.001  0.000  0.017  0.017
   12  0.002  0.000  0.017  0.018
   13  0.001  0.000  0.017  0.017
   14  0.001  0.000  0.017  0.017
   15  0.000  0.000  0.009  0.009
   16  0.002  0.000  0.017  0.018
   17  0.000  0.000  0.009  0.009
   18  0.000  0.000  0.009  0.009
   19  0.007  0.000  0.023  0.029
   20  0.001  0.000  0.074  0.075
   21  0.001  0.000  0.074  0.075
   22  0.006  0.000  0.018  0.024
   23  0.001  0.000  0.074  0.075
   24  0.006  0.000  0.018  0.024
   25  0.007  0.000  0.022  0.029
   26  0.007  0.000  0.023  0.029
   27  0.006  0.000  0.018  0.024
   28  0.002  0.000  0.012  0.014
   29  0.007  0.000  0.027  0.034
   30  0.007  0.000  0.027  0.034
   31  0.007  0.000  0.027  0.034
   32  0.007  0.000  0.027  0.034
   33  0.007  0.000  0.027  0.034
   34  0.007  0.000  0.027  0.034
   35  0.002  0.000  0.012  0.014
   36  0.043  0.000  0.005  0.048
   37  0.001  0.000  0.000  0.001
tot    0.144  0.005  0.679  0.828
 
band     4 # energy   -5.20062632 # occ.  2.00000000
 
ion      s      p      d    tot
    1  0.012  0.001  0.000  0.013
    2  0.002  0.000  0.006  0.008
    3  0.002  0.000  0.006  0.008
    4  0.002  0.000  0.006  0.008
    5  0.000  0.000  0.004  0.004
    6  0.002  0.000  0.006  0.008
    7  0.002  0.000  0.006  0.008
    8  0.002  0.000  0.006  0.008
    9  0.000  0.000  0.003  0.004
   10  0.004  0.000  0.026  0.031
   11  0.000  0.000  0.010  0.010
   12  0.004  0.000  0.026  0.031
   13  0.000  0.000  0.010  0.010
   14  0.000  0.000  0.010  0.010
   15  0.003  0.001  0.001  0.004
   16  0.004  0.000  0.026  0.031
   17  0.003  0.001  0.001  0.004
   18  0.003  0.001  0.001  0.004
   19  0.000  0.001  0.034  0.035
   20  0.004  0.000  0.118  0.122
   21  0.004  0.000  0.118  0.122
   22  0.015  0.000  0.004  0.020
   23  0.004  0.000  0.118  0.122
   24  0.015  0.000  0.004  0.020
   25  0.000  0.001  0.034  0.035
   26  0.000  0.001  0.034  0.035
   27  0.015  0.000  0.004  0.020
   28  0.003  0.000  0.000  0.003
   29  0.002  0.000  0.005  0.007
   30  0.002  0.000  0.005  0.007
   31  0.002  0.000  0.005  0.007
   32  0.002  0.000  0.005  0.007
   33  0.002  0.000  0.005  0.007
   34  0.002  0.000  0.005  0.007
   35  0.011  0.001  0.000  0.012
   36  0.006  0.003  0.011  0.020
   37  0.001  0.000  0.000  0.001
tot    0.137  0.015  0.660  0.811
 
band     5 # energy   -5.15142273 # occ.  2.00000000
 
ion      s      p      d    tot
    1  0.000  0.000  0.006  0.006
    2  0.000  0.000  0.002  0.002
    3  0.000  0.000  0.002  0.002
    4  0.000  0.000  0.002  0.002
    5  0.000  0.000  0.003  0.003
    6  0.001  0.000  0.002  0.003
    7  0.000  0.000  0.002  0.002
    8  0.001  0.000  0.002  0.003
    9  0.000  0.000  0.001  0.001
   10  0.005  0.001  0.017  0.022
   11  0.000  0.000  0.023  0.023
   12  0.001  0.001  0.020  0.021
   13  0.000  0.000  0.023  0.024
   14  0.000  0.000  0.021  0.021
   15  0.001  0.000  0.008  0.009
   16  0.002  0.001  0.019  0.022
   17  0.001  0.000  0.007  0.008
   18  0.004  0.001  0.009  0.013
   19  0.008  0.001  0.034  0.043
   20  0.022  0.000  0.013  0.035
   21  0.003  0.000  0.166  0.170
   22  0.000  0.001  0.035  0.036
   23  0.008  0.000  0.125  0.134
   24  0.000  0.000  0.034  0.035
   25  0.022  0.000  0.041  0.063
   26  0.003  0.001  0.031  0.036
   27  0.000  0.001  0.035  0.035
   28  0.000  0.000  0.006  0.006
   29  0.001  0.000  0.003  0.004
   30  0.000  0.000  0.009  0.009
   31  0.001  0.000  0.004  0.005
   32  0.000  0.000  0.007  0.007
   33  0.000  0.000  0.008  0.009
   34  0.000  0.000  0.006  0.006
   35  0.000  0.000  0.000  0.000
   36  0.000  0.001  0.004  0.006
   37  0.000  0.000  0.000  0.000
tot    0.084  0.013  0.728  0.826
 
band     6 # energy   -5.15141905 # occ.  2.00000000
 
ion      s      p      d    tot
    1  0.000  0.000  0.006  0.006
    2  0.000  0.000  0.002  0.002
    3  0.001  0.000  0.002  0.002
    4  0.001  0.000  0.002  0.003
    5  0.000  0.000  0.003  0.003
    6  0.000  0.000  0.002  0.002
    7  0.001  0.000  0.002  0.003
    8  0.000  0.000  0.002  0.002
    9  0.000  0.000  0.001  0.001
   10  0.000  0.001  0.020  0.021
   11  0.000  0.000  0.022  0.022
   12  0.004  0.001  0.017  0.022
   13  0.000  0.000  0.022  0.022
   14  0.000  0.000  0.024  0.024
   15  0.002  0.000  0.008  0.011
   16  0.003  0.001  0.018  0.022
   17  0.003  0.000  0.009  0.012
   18  0.000  0.000  0.007  0.007
   19  0.014  0.001  0.037  0.051
   20  0.000  0.000  0.190  0.191
   21  0.019  0.000  0.037  0.056
   22  0.000  0.000  0.034  0.035
   23  0.014  0.000  0.077  0.092
   24  0.000  0.001  0.035  0.036
   25  0.000  0.001  0.030  0.031
   26  0.019  0.000  0.039  0.059
   27  0.000  0.001  0.034  0.035
   28  0.000  0.000  0.006  0.006
   29  0.000  0.000  0.009  0.009
   30  0.001  0.000  0.003  0.004
   31  0.000  0.000  0.008  0.008
   32  0.001  0.000  0.005  0.006
   33  0.000  0.000  0.004  0.005
   34  0.001  0.000  0.006  0.007
   35  0.000  0.000  0.000  0.000
   36  0.000  0.001  0.004  0.006
   37  0.000  0.000  0.000  0.000
tot    0.084  0.013  0.728  0.826
 
band     7 # energy   -5.13852470 # occ.  2.00000000
 
ion      s      p      d    tot
    1  0.013  0.000  0.010  0.023
    2  0.010  0.000  0.023  0.033
    3  0.010  0.000  0.023  0.033
    4  0.010  0.000  0.023  0.033
    5  0.014  0.000  0.032  0.047
    6  0.010  0.000  0.023  0.033
    7  0.010  0.000  0.023  0.033
    8  0.010  0.000  0.023  0.033
    9  0.006  0.000  0.021  0.028
   10  0.000  0.001  0.010  0.011
   11  0.002  0.000  0.041  0.043
   12  0.000  0.001  0.010  0.011
   13  0.002  0.000  0.041  0.043
   14  0.002  0.000  0.041  0.043
   15  0.002  0.000  0.024  0.027
   16  0.000  0.001  0.010  0.011
   17  0.002  0.000  0.024  0.027
   18  0.002  0.000  0.024  0.027
   19  0.003  0.000  0.005  0.008
   20  0.001  0.000  0.044  0.045
   21  0.001  0.000  0.044  0.045
   22  0.000  0.000  0.011  0.012
   23  0.001  0.000  0.044  0.045
   24  0.000  0.000  0.011  0.012
   25  0.003  0.000  0.005  0.008
   26  0.003  0.000  0.005  0.008
   27  0.000  0.000  0.011  0.012
   28  0.002  0.000  0.000  0.002
   29  0.000  0.000  0.010  0.010
   30  0.000  0.000  0.010  0.010
   31  0.000  0.000  0.010  0.010
   32  0.000  0.000  0.010  0.010
   33  0.000  0.000  0.010  0.010
   34  0.000  0.000  0.010  0.010
   35  0.000  0.000  0.001  0.001
   36  0.006  0.000  0.002  0.009
   37  0.000  0.000  0.000  0.000
tot    0.128  0.007  0.670  0.805
 
band     8 # energy   -5.11897215 # occ.  2.00000000
 
ion      s      p      d    tot
    1  0.000  0.000  0.005  0.005
    2  0.000  0.000  0.002  0.002
    3  0.001  0.000  0.006  0.007
    4  0.000  0.000  0.002  0.002
    5  0.000  0.000  0.009  0.009
    6  0.002  0.001  0.005  0.008
    7  0.001  0.000  0.006  0.007
    8  0.002  0.001  0.005  0.007
    9  0.000  0.000  0.001  0.001
   10  0.010  0.001  0.013  0.024
   11  0.009  0.001  0.066  0.076
   12  0.002  0.000  0.076  0.078
   13  0.008  0.001  0.069  0.077
   14  0.033  0.001  0.017  0.050
   15  0.001  0.001  0.014  0.016
   16  0.003  0.000  0.073  0.076
   17  0.001  0.001  0.013  0.015
   18  0.005  0.000  0.035  0.040
   19  0.000  0.000  0.018  0.018
   20  0.015  0.001  0.044  0.059
   21  0.003  0.001  0.034  0.039
   22  0.002  0.000  0.023  0.026
   23  0.004  0.001  0.035  0.040
   24  0.010  0.001  0.006  0.017
   25  0.000  0.000  0.015  0.015
   26  0.000  0.000  0.018  0.018
   27  0.003  0.000  0.022  0.025
   28  0.000  0.000  0.001  0.001
   29  0.002  0.000  0.006  0.008
   30  0.001  0.000  0.004  0.006
   31  0.002  0.000  0.006  0.008
   32  0.000  0.000  0.003  0.003
   33  0.001  0.000  0.004  0.006
   34  0.000  0.000  0.003  0.003
   35  0.000  0.000  0.006  0.006
   36  0.000  0.001  0.005  0.005
   37  0.000  0.000  0.000  0.000
tot    0.120  0.016  0.670  0.807
 
band     9 # energy   -5.11896795 # occ.  2.00000000
 
ion      s      p      d    tot
    1  0.000  0.000  0.005  0.005
    2  0.001  0.001  0.007  0.009
    3  0.001  0.000  0.003  0.004
    4  0.002  0.001  0.007  0.009
    5  0.000  0.000  0.009  0.009
    6  0.000  0.000  0.004  0.004
    7  0.001  0.000  0.003  0.004
    8  0.000  0.000  0.004  0.004
    9  0.000  0.000  0.001  0.001
   10  0.000  0.000  0.094  0.095
   11  0.024  0.001  0.035  0.060
   12  0.008  0.001  0.032  0.040
   13  0.025  0.001  0.033  0.058
   14  0.000  0.001  0.084  0.085
   15  0.004  0.000  0.027  0.031
   16  0.007  0.001  0.035  0.043
   17  0.004  0.000  0.028  0.032
   18  0.000  0.002  0.006  0.008
   19  0.000  0.000  0.016  0.016
   20  0.000  0.001  0.032  0.033
   21  0.012  0.001  0.041  0.053
   22  0.008  0.001  0.011  0.020
   23  0.011  0.001  0.041  0.052
   24  0.000  0.000  0.028  0.028
   25  0.000  0.000  0.019  0.019
   26  0.000  0.000  0.016  0.016
   27  0.007  0.001  0.012  0.020
   28  0.000  0.000  0.001  0.001
   29  0.000  0.000  0.003  0.003
   30  0.001  0.000  0.005  0.006
   31  0.000  0.000  0.003  0.003
   32  0.002  0.000  0.006  0.008
   33  0.001  0.000  0.005  0.006
   34  0.002  0.000  0.006  0.008
   35  0.000  0.000  0.006  0.006
   36  0.000  0.001  0.005  0.005
   37  0.000  0.000  0.000  0.000
tot    0.120  0.016  0.670  0.807
 
band    10 # energy   -5.10128628 # occ.  2.00000000
 
ion      s      p      d    tot
    1  0.000  0.000  0.001  0.001
    2  0.000  0.000  0.007  0.007
    3  0.000  0.000  0.007  0.007
    4  0.000  0.000  0.007  0.007
    5  0.005  0.001  0.001  0.007
    6  0.000  0.000  0.007  0.007
    7  0.000  0.000  0.007  0.007
    8  0.000  0.000  0.007  0.007
    9  0.000  0.000  0.008  0.008
   10  0.008  0.001  0.008  0.017
   11  0.013  0.001  0.038  0.052
   12  0.008  0.001  0.008  0.017
   13  0.013  0.001  0.038  0.052
   14  0.013  0.001  0.038  0.052
   15  0.002  0.000  0.048  0.050
   16  0.008  0.001  0.008  0.017
   17  0.002  0.000  0.048  0.050
   18  0.002  0.000  0.048  0.050
   19  0.012  0.001  0.028  0.040
   20  0.006  0.001  0.024  0.031
   21  0.006  0.001  0.024  0.031
   22  0.000  0.000  0.033  0.034
   23  0.006  0.001  0.024  0.031
   24  0.000  0.000  0.033  0.034
   25  0.012  0.001  0.028  0.040
   26  0.012  0.001  0.028  0.040
   27  0.000  0.000  0.033  0.034
   28  0.003  0.001  0.003  0.007
   29  0.000  0.000  0.008  0.008
   30  0.000  0.000  0.008  0.008
   31  0.000  0.000  0.008  0.008
   32  0.000  0.000  0.008  0.008
   33  0.000  0.000  0.008  0.008
   34  0.000  0.000  0.008  0.008
   35  0.001  0.000  0.000  0.002
   36  0.001  0.000  0.000  0.001
   37  0.000  0.000  0.000  0.000
tot    0.135  0.019  0.639  0.793
 
band    11 # energy   -5.08445240 # occ.  2.00000000
 
ion      s      p      d    tot
    1  0.002  0.000  0.032  0.035
    2  0.004  0.000  0.013  0.017
    3  0.004  0.000  0.013  0.017
    4  0.004  0.000  0.013  0.017
    5  0.001  0.000  0.003  0.005
    6  0.004  0.000  0.013  0.017
    7  0.004  0.000  0.013  0.017
    8  0.004  0.000  0.013  0.017
    9  0.014  0.001  0.003  0.018
   10  0.004  0.000  0.052  0.056
   11  0.003  0.000  0.025  0.029
   12  0.004  0.000  0.052  0.056
   13  0.003  0.000  0.025  0.029
   14  0.003  0.000  0.025  0.029
   15  0.003  0.001  0.006  0.009
   16  0.004  0.000  0.052  0.056
   17  0.003  0.001  0.006  0.009
   18  0.003  0.001  0.006  0.009
   19  0.000  0.000  0.017  0.017
   20  0.004  0.000  0.014  0.018
   21  0.004  0.000  0.014  0.018
   22  0.002  0.000  0.021  0.023
   23  0.004  0.000  0.014  0.018
   24  0.002  0.000  0.021  0.023
   25  0.000  0.000  0.017  0.017
   26  0.000  0.000  0.017  0.017
   27  0.002  0.000  0.021  0.023
   28  0.016  0.000  0.012  0.028
   29  0.004  0.000  0.019  0.024
   30  0.004  0.000  0.019  0.024
   31  0.004  0.000  0.019  0.024
   32  0.004  0.000  0.019  0.024
   33  0.004  0.000  0.019  0.024
   34  0.004  0.000  0.019  0.024
   35  0.003  0.000  0.017  0.019
   36  0.000  0.001  0.001  0.002
   37  0.000  0.000  0.000  0.000
tot    0.131  0.009  0.663  0.803
 
band    12 # energy   -5.07096684 # occ.  2.00000000
 
ion      s      p      d    tot
    1  0.000  0.001  0.007  0.007
    2  0.004  0.001  0.005  0.010
    3  0.003  0.000  0.004  0.007
    4  0.004  0.001  0.006  0.010
    5  0.000  0.000  0.008  0.009
    6  0.000  0.000  0.007  0.007
    7  0.002  0.000  0.004  0.007
    8  0.000  0.000  0.006  0.007
    9  0.000  0.000  0.011  0.011
   10  0.016  0.000  0.013  0.029
   11  0.000  0.000  0.014  0.015
   12  0.005  0.000  0.028  0.033
   13  0.000  0.000  0.015  0.016
   14  0.000  0.000  0.022  0.022
   15  0.002  0.000  0.043  0.044
   16  0.003  0.000  0.030  0.034
   17  0.003  0.000  0.038  0.041
   18  0.010  0.000  0.013  0.023
   19  0.002  0.000  0.068  0.069
   20  0.002  0.000  0.048  0.051
   21  0.001  0.001  0.026  0.028
   22  0.006  0.000  0.046  0.052
   23  0.000  0.001  0.022  0.023
   24  0.020  0.000  0.010  0.030
   25  0.009  0.000  0.012  0.021
   26  0.003  0.000  0.059  0.062
   27  0.004  0.000  0.053  0.057
   28  0.000  0.000  0.012  0.012
   29  0.000  0.000  0.010  0.011
   30  0.002  0.000  0.006  0.008
   31  0.001  0.000  0.011  0.012
   32  0.005  0.001  0.008  0.014
   33  0.002  0.000  0.005  0.008
   34  0.005  0.001  0.007  0.013
   35  0.000  0.001  0.006  0.006
   36  0.000  0.000  0.003  0.004
   37  0.000  0.000  0.000  0.000
tot    0.113  0.013  0.687  0.813
 
band    13 # energy   -5.07096030 # occ.  2.00000000
 
ion      s      p      d    tot
    1  0.000  0.001  0.007  0.007
    2  0.000  0.000  0.005  0.006
    3  0.002  0.001  0.007  0.009
    4  0.001  0.000  0.005  0.006
    5  0.000  0.000  0.008  0.009
    6  0.004  0.001  0.004  0.009
    7  0.002  0.001  0.007  0.010
    8  0.004  0.001  0.004  0.010
    9  0.000  0.000  0.011  0.011
   10  0.000  0.000  0.034  0.035
   11  0.000  0.000  0.020  0.020
   12  0.011  0.000  0.020  0.031
   13  0.000  0.000  0.019  0.019
   14  0.000  0.000  0.013  0.013
   15  0.008  0.000  0.019  0.028
   16  0.013  0.000  0.017  0.030
   17  0.007  0.000  0.024  0.031
   18  0.000  0.000  0.049  0.049
   19  0.007  0.000  0.025  0.032
   20  0.000  0.001  0.016  0.017
   21  0.001  0.000  0.038  0.040
   22  0.014  0.000  0.027  0.040
   23  0.002  0.000  0.042  0.045
   24  0.000  0.000  0.062  0.063
   25  0.000  0.000  0.080  0.080
   26  0.006  0.000  0.034  0.040
   27  0.016  0.000  0.020  0.036
   28  0.000  0.000  0.012  0.012
   29  0.005  0.001  0.006  0.011
   30  0.003  0.001  0.010  0.014
   31  0.004  0.001  0.005  0.010
   32  0.000  0.000  0.008  0.008
   33  0.003  0.001  0.010  0.014
   34  0.000  0.000  0.009  0.009
   35  0.000  0.001  0.006  0.006
   36  0.000  0.000  0.003  0.004
   37  0.000  0.000  0.000  0.000
tot    0.113  0.013  0.687  0.813
 
band    14 # energy   -5.06508826 # occ.  2.00000000
 
ion      s      p      d    tot
    1  0.000  0.000  0.000  0.001
    2  0.000  0.000  0.006  0.006
    3  0.000  0.000  0.006  0.006
    4  0.000  0.000  0.006  0.006
    5  0.001  0.000  0.000  0.001
    6  0.000  0.000  0.006  0.006
    7  0.000  0.000  0.006  0.006
    8  0.000  0.000  0.006  0.006
    9  0.001  0.000  0.011  0.012
   10  0.000  0.000  0.043  0.043
   11  0.001  0.000  0.003  0.004
   12  0.000  0.000  0.043  0.043
   13  0.001  0.000  0.003  0.004
   14  0.001  0.000  0.003  0.004
   15  0.004  0.000  0.049  0.053
   16  0.000  0.000  0.043  0.043
   17  0.004  0.000  0.049  0.053
   18  0.004  0.000  0.048  0.053
   19  0.005  0.000  0.039  0.044
   20  0.001  0.000  0.023  0.024
   21  0.001  0.000  0.023  0.024
   22  0.001  0.000  0.059  0.059
   23  0.001  0.000  0.023  0.024
   24  0.001  0.000  0.059  0.059
   25  0.004  0.000  0.039  0.044
   26  0.005  0.000  0.039  0.044
   27  0.001  0.000  0.059  0.059
   28  0.001  0.000  0.005  0.005
   29  0.001  0.000  0.014  0.014
   30  0.001  0.000  0.013  0.014
   31  0.001  0.000  0.014  0.014
   32  0.001  0.000  0.013  0.014
   33  0.001  0.000  0.013  0.014
   34  0.001  0.000  0.013  0.014
   35  0.004  0.000  0.012  0.017
   36  0.001  0.001  0.001  0.003
   37  0.000  0.000  0.000  0.000
tot    0.047  0.008  0.790  0.846
 
band    15 # energy   -5.05524570 # occ.  2.00000000
 
ion      s      p      d    tot
    1  0.000  0.000  0.007  0.007
    2  0.000  0.000  0.009  0.009
    3  0.001  0.000  0.006  0.007
    4  0.000  0.000  0.009  0.009
    5  0.000  0.000  0.001  0.001
    6  0.001  0.000  0.005  0.006
    7  0.001  0.000  0.005  0.007
    8  0.001  0.000  0.004  0.005
    9  0.000  0.000  0.012  0.013
   10  0.005  0.000  0.046  0.051
   11  0.000  0.000  0.055  0.055
   12  0.002  0.000  0.021  0.023
   13  0.000  0.000  0.050  0.051
   14  0.001  0.000  0.020  0.022
   15  0.002  0.000  0.085  0.088
   16  0.001  0.000  0.018  0.019
   17  0.004  0.000  0.076  0.080
   18  0.012  0.000  0.016  0.028
   19  0.000  0.000  0.055  0.055
   20  0.000  0.000  0.039  0.039
   21  0.000  0.000  0.017  0.017
   22  0.001  0.000  0.036  0.037
   23  0.000  0.000  0.013  0.013
   24  0.002  0.000  0.033  0.035
   25  0.002  0.000  0.010  0.012
   26  0.000  0.000  0.049  0.049
   27  0.000  0.000  0.037  0.037
   28  0.000  0.000  0.010  0.011
   29  0.002  0.000  0.007  0.009
   30  0.001  0.000  0.005  0.006
   31  0.002  0.000  0.008  0.010
   32  0.000  0.000  0.008  0.008
   33  0.001  0.000  0.005  0.006
   34  0.000  0.000  0.007  0.008
   35  0.000  0.000  0.015  0.015
   36  0.000  0.000  0.000  0.001
   37  0.000  0.000  0.000  0.000
tot    0.043  0.007  0.800  0.849
 
band    16 # energy   -5.05523338 # occ.  2.00000000
 
ion      s      p      d    tot
    1  0.000  0.000  0.007  0.007
    2  0.001  0.000  0.004  0.005
    3  0.001  0.000  0.006  0.007
    4  0.001  0.000  0.004  0.006
    5  0.000  0.000  0.001  0.001
    6  0.000  0.000  0.008  0.009
    7  0.000  0.000  0.007  0.008
    8  0.000  0.000  0.008  0.009
    9  0.000  0.000  0.012  0.013
   10  0.000  0.000  0.011  0.011
   11  0.001  0.000  0.028  0.030
   12  0.004  0.000  0.035  0.039
   13  0.001  0.000  0.033  0.034
   14  0.000  0.000  0.063  0.063
   15  0.009  0.000  0.033  0.043
   16  0.004  0.000  0.039  0.043
   17  0.008  0.000  0.042  0.051
   18  0.000  0.000  0.102  0.102
   19  0.001  0.000  0.021  0.023
   20  0.000  0.000  0.007  0.007
   21  0.000  0.000  0.029  0.029
   22  0.002  0.000  0.034  0.036
   23  0.000  0.000  0.033  0.033
   24  0.000  0.000  0.038  0.038
   25  0.000  0.000  0.065  0.065
   26  0.001  0.000  0.027  0.028
   27  0.002  0.000  0.034  0.035
   28  0.000  0.000  0.010  0.011
   29  0.000  0.000  0.006  0.006
   30  0.001  0.000  0.008  0.009
   31  0.000  0.000  0.006  0.006
   32  0.001  0.000  0.006  0.007
   33  0.001  0.000  0.008  0.010
   34  0.002  0.000  0.006  0.008
   35  0.000  0.000  0.015  0.015
   36  0.000  0.000  0.000  0.001
   37  0.000  0.000  0.000  0.000
tot    0.043  0.007  0.800  0.849
 
band    17 # energy   -4.94571800 # occ.  2.00000000
 
ion      s      p      d    tot
    1  0.000  0.000  0.001  0.001
    2  0.001  0.001  0.006  0.007
    3  0.000  0.000  0.006  0.006
    4  0.001  0.001  0.006  0.007
    5  0.000  0.001  0.016  0.017
    6  0.001  0.000  0.005  0.006
    7  0.000  0.000  0.006  0.006
    8  0.001  0.000  0.005  0.006
    9  0.000  0.000  0.008  0.008
   10  0.001  0.001  0.021  0.023
   11  0.001  0.000  0.067  0.069
   12  0.000  0.000  0.018  0.019
   13  0.001  0.000  0.068  0.070
   14  0.004  0.000  0.045  0.049
   15  0.001  0.000  0.010  0.011
   16  0.000  0.000  0.018  0.019
   17  0.001  0.000  0.010  0.010
   18  0.003  0.001  0.021  0.025
   19  0.000  0.000  0.009  0.009
   20  0.002  0.000  0.075  0.078
   21  0.001  0.000  0.114  0.115
   22  0.000  0.000  0.028  0.029
   23  0.001  0.000  0.112  0.113
   24  0.000  0.001  0.021  0.023
   25  0.001  0.001  0.027  0.029
   26  0.000  0.000  0.008  0.008
   27  0.000  0.000  0.028  0.028
   28  0.000  0.000  0.005  0.005
   29  0.001  0.000  0.007  0.008
   30  0.000  0.000  0.010  0.010
   31  0.001  0.000  0.007  0.008
   32  0.001  0.001  0.009  0.011
   33  0.000  0.000  0.010  0.010
   34  0.001  0.001  0.009  0.011
   35  0.000  0.000  0.001  0.001
   36  0.000  0.003  0.007  0.009
   37  0.000  0.000  0.000  0.000
tot    0.025  0.017  0.825  0.867
 
band    18 # energy   -4.94570870 # occ.  2.00000000
 
ion      s      p      d    tot
    1  0.000  0.000  0.001  0.001
    2  0.000  0.000  0.006  0.006
    3  0.001  0.001  0.005  0.007
    4  0.000  0.000  0.006  0.006
    5  0.000  0.001  0.016  0.017
    6  0.000  0.000  0.006  0.007
    7  0.001  0.001  0.005  0.007
    8  0.000  0.000  0.006  0.007
    9  0.000  0.000  0.008  0.008
   10  0.000  0.000  0.018  0.018
   11  0.003  0.000  0.054  0.056
   12  0.001  0.001  0.020  0.022
   13  0.003  0.000  0.052  0.055
   14  0.000  0.001  0.075  0.076
   15  0.002  0.000  0.017  0.020
   16  0.000  0.001  0.020  0.021
   17  0.002  0.000  0.018  0.021
   18  0.000  0.000  0.006  0.006
   19  0.001  0.001  0.020  0.022
   20  0.000  0.000  0.126  0.126
   21  0.002  0.000  0.087  0.089
   22  0.000  0.001  0.023  0.025
   23  0.002  0.000  0.089  0.091
   24  0.000  0.000  0.030  0.030
   25  0.000  0.000  0.002  0.002
   26  0.001  0.001  0.021  0.023
   27  0.000  0.001  0.024  0.025
   28  0.000  0.000  0.005  0.005
   29  0.001  0.001  0.010  0.012
   30  0.001  0.001  0.007  0.009
   31  0.001  0.001  0.010  0.012
   32  0.000  0.000  0.008  0.008
   33  0.001  0.001  0.007  0.010
   34  0.000  0.000  0.008  0.008
   35  0.000  0.000  0.001  0.001
   36  0.000  0.003  0.007  0.009
   37  0.000  0.000  0.000  0.000
tot    0.025  0.017  0.825  0.867
 
band    19 # energy   -4.94001817 # occ.  2.00000000
 
ion      s      p      d    tot
    1  0.000  0.000  0.000  0.000
    2  0.000  0.000  0.003  0.003
    3  0.000  0.000  0.003  0.003
    4  0.000  0.000  0.003  0.003
    5  0.001  0.001  0.018  0.019
    6  0.000  0.000  0.003  0.003
    7  0.000  0.000  0.003  0.003
    8  0.000  0.000  0.003  0.003
    9  0.000  0.000  0.005  0.006
   10  0.000  0.000  0.010  0.010
   11  0.000  0.001  0.086  0.087
   12  0.000  0.000  0.010  0.010
   13  0.000  0.001  0.086  0.087
   14  0.000  0.001  0.086  0.087
   15  0.001  0.001  0.032  0.034
   16  0.000  0.000  0.010  0.010
   17  0.001  0.001  0.032  0.034
   18  0.001  0.001  0.032  0.034
   19  0.001  0.000  0.014  0.015
   20  0.002  0.000  0.065  0.067
   21  0.002  0.000  0.065  0.067
   22  0.003  0.000  0.019  0.023
   23  0.002  0.000  0.064  0.067
   24  0.003  0.000  0.019  0.023
   25  0.001  0.000  0.014  0.015
   26  0.001  0.000  0.014  0.015
   27  0.003  0.000  0.019  0.023
   28  0.006  0.001  0.000  0.007
   29  0.000  0.001  0.015  0.016
   30  0.000  0.001  0.015  0.016
   31  0.000  0.001  0.015  0.016
   32  0.000  0.001  0.015  0.016
   33  0.000  0.001  0.015  0.016
   34  0.000  0.001  0.015  0.016
   35  0.003  0.001  0.001  0.005
   36  0.001  0.000  0.003  0.005
   37  0.000  0.000  0.000  0.000
tot    0.034  0.013  0.815  0.863
 
band    20 # energy   -4.90338088 # occ.  2.00000000
 
ion      s      p      d    tot
    1  0.000  0.000  0.002  0.002
    2  0.000  0.001  0.014  0.015
    3  0.000  0.001  0.014  0.015
    4  0.000  0.001  0.014  0.015
    5  0.006  0.001  0.000  0.007
    6  0.000  0.001  0.014  0.015
    7  0.000  0.001  0.014  0.015
    8  0.000  0.001  0.014  0.015
    9  0.004  0.001  0.000  0.005
   10  0.002  0.000  0.038  0.041
   11  0.000  0.000  0.026  0.027
   12  0.002  0.000  0.038  0.041
   13  0.000  0.000  0.026  0.027
   14  0.000  0.000  0.026  0.027
   15  0.005  0.000  0.013  0.019
   16  0.002  0.000  0.038  0.041
   17  0.005  0.000  0.013  0.019
   18  0.005  0.000  0.013  0.019
   19  0.000  0.000  0.063  0.063
   20  0.000  0.000  0.012  0.013
   21  0.000  0.000  0.012  0.013
   22  0.000  0.001  0.040  0.041
   23  0.000  0.000  0.012  0.013
   24  0.000  0.001  0.040  0.041
   25  0.000  0.000  0.063  0.063
   26  0.000  0.000  0.063  0.063
   27  0.000  0.001  0.040  0.041
   28  0.001  0.000  0.029  0.030
   29  0.001  0.000  0.014  0.015
   30  0.001  0.000  0.014  0.015
   31  0.001  0.000  0.014  0.015
   32  0.001  0.000  0.014  0.015
   33  0.001  0.000  0.014  0.015
   34  0.001  0.000  0.014  0.015
   35  0.005  0.001  0.001  0.007
   36  0.003  0.001  0.000  0.004
   37  0.000  0.000  0.000  0.000
tot    0.050  0.017  0.779  0.845
 
band    21 # energy   -4.88706608 # occ.  2.00000000
 
ion      s      p      d    tot
    1  0.000  0.001  0.016  0.017
    2  0.001  0.001  0.005  0.007
    3  0.000  0.000  0.009  0.010
    4  0.001  0.001  0.006  0.007
    5  0.000  0.000  0.002  0.002
    6  0.000  0.000  0.004  0.005
    7  0.000  0.000  0.009  0.010
    8  0.001  0.000  0.004  0.005
    9  0.000  0.000  0.003  0.003
   10  0.000  0.000  0.065  0.065
   11  0.000  0.001  0.021  0.022
   12  0.001  0.000  0.061  0.063
   13  0.000  0.001  0.022  0.023
   14  0.000  0.000  0.002  0.002
   15  0.000  0.000  0.032  0.032
   16  0.001  0.000  0.062  0.063
   17  0.000  0.000  0.029  0.030
   18  0.000  0.000  0.069  0.069
   19  0.002  0.000  0.044  0.046
   20  0.000  0.000  0.002  0.002
   21  0.001  0.001  0.039  0.040
   22  0.003  0.000  0.033  0.035
   23  0.001  0.001  0.036  0.038
   24  0.000  0.000  0.029  0.029
   25  0.000  0.000  0.075  0.075
   26  0.002  0.000  0.042  0.044
   27  0.002  0.000  0.032  0.035
   28  0.000  0.001  0.014  0.015
   29  0.001  0.000  0.006  0.007
   30  0.000  0.000  0.011  0.011
   31  0.001  0.000  0.006  0.007
   32  0.002  0.001  0.008  0.010
   33  0.000  0.000  0.011  0.011
   34  0.002  0.001  0.007  0.010
   35  0.000  0.001  0.013  0.013
   36  0.000  0.000  0.001  0.001