 vasp.6.2.0 18Jan21 (build Jun 12 2021 23:27:24) complex                        
  
 executed on             LinuxIFC date 2022.05.28  01:26:33
 running on   28 total cores
 distrk:  each k-point on   28 cores,    1 groups
 distr:  one band on NCORE=   1 cores,   28 groups


--------------------------------------------------------------------------------------------------------


 INCAR:
   ISMEAR = -5
   SIGMA = 0.1
   ISPIN = 1
   EDIFF = 1.d-5
   EDIFFG = -0.01
   NSW = 0
   NELM = 150
   ENCUT = 500
   ISIF = 2
   IBRION = 2
   LREAL = Auto
   ALGO = Fast
   ICHARG = 11
   LORBIT = 10
   LCHARG = .F.
   LWAVE = .F.

 POTCAR:    PAW_PBE Ag 02Apr2005                  
 POTCAR:    PAW_PBE Cr 06Sep2000                  
 POTCAR:    PAW_PBE C 08Apr2002                   
 POTCAR:    PAW_PBE O 08Apr2002                   
 -----------------------------------------------------------------------------
|                                                                             |
|           W    W    AA    RRRRR   N    N  II  N    N   GGGG   !!!           |
|           W    W   A  A   R    R  NN   N  II  NN   N  G    G  !!!           |
|           W    W  A    A  R    R  N N  N  II  N N  N  G       !!!           |
|           W WW W  AAAAAA  RRRRR   N  N N  II  N  N N  G  GGG   !            |
|           WW  WW  A    A  R   R   N   NN  II  N   NN  G    G                |
|           W    W  A    A  R    R  N    N  II  N    N   GGGG   !!!           |
|                                                                             |
|     For optimal performance we recommend to set                             |
|       NCORE = 2 up to number-of-cores-per-socket                            |
|     NCORE specifies how many cores store one orbital (NPAR=cpu/NCORE).      |
|     This setting can greatly improve the performance of VASP for DFT.       |
|     The default, NCORE=1 might be grossly inefficient on modern             |
|     multi-core architectures or massively parallel machines. Do your        |
|     own testing! More info at https://www.vasp.at/wiki/index.php/NCORE      |
|     Unfortunately you need to use the default for GW and RPA                |
|     calculations (for HF NCORE is supported but not extensively tested      |
|     yet).                                                                   |
|                                                                             |
 -----------------------------------------------------------------------------

 POTCAR:    PAW_PBE Ag 02Apr2005                  
   VRHFIN =Ag : s1 d10                                                                              
   LEXCH  = PE                                                                                      
   EATOM  =  1037.2675 eV,   76.2370 Ry                                                             
                                                                                                    
   TITEL  = PAW_PBE Ag 02Apr2005                                                                    
   LULTRA =        F    use ultrasoft PP ?                                                          
   IUNSCR =        1    unscreen: 0-lin 1-nonlin 2-no                                               
   RPACOR =    2.000    partial core radius                                                         
   POMASS =  107.868; ZVAL   =   11.000    mass and valenz                                          
   RCORE  =    2.500    outmost cutoff radius                                                       
   RWIGS  =    2.840; RWIGS  =    1.503    wigner-seitz radius (au A)                               
   ENMAX  =  249.844; ENMIN  =  187.383 eV                                                          
   ICORE  =        3    local potential                                                             
   LCOR   =        T    correct aug charges                                                         
   LPAW   =        T    paw PP                                                                      
   EAUG   =  412.496                                                                                
   DEXC   =    0.000                                                                                
   RMAX   =    2.560    core radius for proj-oper                                                   
   RAUG   =    1.300    factor for augmentation sphere                                              
   RDEP   =    2.576    radius for radial grids                                                     
   RDEPT  =    2.072    core radius for aug-charge                                                  
                                                                                                    
   Atomic configuration                                                                             
   12 entries                                                                                       
     n  l   j            E        occ.                                                              
     1  0  0.50    -25324.9161   2.0000                                                             
     2  0  0.50     -3728.5341   2.0000                                                             
     2  1  1.50     -3344.0404   6.0000                                                             
     3  0  0.50      -683.5581   2.0000                                                             
     3  1  1.50      -557.3225   6.0000                                                             
     3  2  2.50      -358.3853  10.0000                                                             
     4  0  0.50       -95.0341   2.0000                                                             
     4  1  1.50       -58.5511   6.0000                                                             
     4  2  2.50        -7.4440  10.0000                                                             
     5  0  0.50        -4.4045   1.0000                                                             
     5  1  0.50        -1.3606   0.0000                                                             
     4  3  2.50        -1.3606   0.0000                                                             
   Description                                                                                      
     l       E           TYP  RCUT    TYP  RCUT                                                     
     2     -7.4439781     23  2.400                                                                 
     2     -8.8045607     23  2.400                                                                 
     0     -4.4044681     23  2.400                                                                 
     0      1.9520038     23  2.400                                                                 
     1     -1.3605826     23  2.500                                                                 
     1     27.2116520     23  2.500                                                                 
     3     -4.0817478     23  2.400                                                                 
  local pseudopotential read in
  partial core-charges read in
  partial kinetic energy density read in
  atomic valenz-charges read in
  non local Contribution for L=           2  read in
    real space projection operators read in
  non local Contribution for L=           2  read in
    real space projection operators read in
  non local Contribution for L=           0  read in
    real space projection operators read in
  non local Contribution for L=           0  read in
    real space projection operators read in
  non local Contribution for L=           1  read in
    real space projection operators read in
  non local Contribution for L=           1  read in
    real space projection operators read in
    PAW grid and wavefunctions read in
 
   number of l-projection  operators is LMAX  =           6
   number of lm-projection operators is LMMAX =          18
 
 POTCAR:    PAW_PBE Cr 06Sep2000                  
   VRHFIN =Cr : d5 s1                                                                               
   LEXCH  = PE                                                                                      
   EATOM  =   276.8859 eV,   20.3505 Ry                                                             
                                                                                                    
   TITEL  = PAW_PBE Cr 06Sep2000                                                                    
   LULTRA =        F    use ultrasoft PP ?                                                          
   IUNSCR =        1    unscreen: 0-lin 1-nonlin 2-no                                               
   RPACOR =    2.080    partial core radius                                                         
   POMASS =   51.996; ZVAL   =    6.000    mass and valenz                                          
   RCORE  =    2.500    outmost cutoff radius                                                       
   RWIGS  =    2.500; RWIGS  =    1.323    wigner-seitz radius (au A)                               
   ENMAX  =  227.080; ENMIN  =  170.310 eV                                                          
   RCLOC  =    1.721    cutoff for local pot                                                        
   LCOR   =        T    correct aug charges                                                         
   LPAW   =        T    paw PP                                                                      
   EAUG   =  402.108                                                                                
   DEXC   =    0.000                                                                                
   RMAX   =    2.552    core radius for proj-oper                                                   
   RAUG   =    1.300    factor for augmentation sphere                                              
   RDEP   =    2.609    radius for radial grids                                                     
   RDEPT  =    2.065    core radius for aug-charge                                                  
                                                                                                    
   Atomic configuration                                                                             
    9 entries                                                                                       
     n  l   j            E        occ.                                                              
     1  0  0.50     -5880.4963   2.0000                                                             
     2  0  0.50      -667.0865   2.0000                                                             
     2  1  1.50      -560.6250   6.0000                                                             
     3  0  0.50       -73.9860   2.0000                                                             
     3  1  1.50       -45.4378   6.0000                                                             
     3  2  2.50        -2.9137   5.0000                                                             
     4  0  0.50        -4.0071   1.0000                                                             
     4  1  0.50        -1.2789   0.0000                                                             
     4  3  2.50        -1.3606   0.0000                                                             
   Description                                                                                      
     l       E           TYP  RCUT    TYP  RCUT                                                     
     2     -2.9136677     23  2.500                                                                 
     2     -4.2742503     23  2.500                                                                 
     0     -4.0071322     23  2.500                                                                 
     0      9.4498801     23  2.500                                                                 
     1     -5.4423304     23  2.500                                                                 
     1     27.2116520     23  2.500                                                                 
  local pseudopotential read in
  partial core-charges read in
  partial kinetic energy density read in
  atomic valenz-charges read in
  non local Contribution for L=           2  read in
    real space projection operators read in
  non local Contribution for L=           2  read in
    real space projection operators read in
  non local Contribution for L=           0  read in
    real space projection operators read in
  non local Contribution for L=           0  read in
    real space projection operators read in
  non local Contribution for L=           1  read in
    real space projection operators read in
  non local Contribution for L=           1  read in
    real space projection operators read in
    PAW grid and wavefunctions read in
 
   number of l-projection  operators is LMAX  =           6
   number of lm-projection operators is LMMAX =          18
 
 POTCAR:    PAW_PBE C 08Apr2002                   
   VRHFIN =C: s2p2                                                                                  
   LEXCH  = PE                                                                                      
   EATOM  =   147.1560 eV,   10.8157 Ry                                                             
                                                                                                    
   TITEL  = PAW_PBE C 08Apr2002                                                                     
   LULTRA =        F    use ultrasoft PP ?                                                          
   IUNSCR =        1    unscreen: 0-lin 1-nonlin 2-no                                               
   RPACOR =    1.200    partial core radius                                                         
   POMASS =   12.011; ZVAL   =    4.000    mass and valenz                                          
   RCORE  =    1.500    outmost cutoff radius                                                       
   RWIGS  =    1.630; RWIGS  =    0.863    wigner-seitz radius (au A)                               
   ENMAX  =  400.000; ENMIN  =  300.000 eV                                                          
   ICORE  =        2    local potential                                                             
   LCOR   =        T    correct aug charges                                                         
   LPAW   =        T    paw PP                                                                      
   EAUG   =  644.873                                                                                
   DEXC   =    0.000                                                                                
   RMAX   =    1.529    core radius for proj-oper                                                   
   RAUG   =    1.300    factor for augmentation sphere                                              
   RDEP   =    1.501    radius for radial grids                                                     
   RDEPT  =    1.300    core radius for aug-charge                                                  
                                                                                                    
   Atomic configuration                                                                             
    4 entries                                                                                       
     n  l   j            E        occ.                                                              
     1  0  0.50      -273.3789   2.0000                                                             
     2  0  0.50       -13.7508   2.0000                                                             
     2  1  0.50        -5.2854   2.0000                                                             
     3  2  1.50        -5.4423   0.0000                                                             
   Description                                                                                      
     l       E           TYP  RCUT    TYP  RCUT                                                     
     0    -13.7508458     23  1.200                                                                 
     0     -8.2022199     23  1.200                                                                 
     1     -5.2854383     23  1.500                                                                 
     1     34.0145650     23  1.500                                                                 
     2     -5.4423304      7  1.500                                                                 
  local pseudopotential read in
  partial core-charges read in
  partial kinetic energy density read in
  atomic valenz-charges read in
  non local Contribution for L=           0  read in
    real space projection operators read in
  non local Contribution for L=           0  read in
    real space projection operators read in
  non local Contribution for L=           1  read in
    real space projection operators read in
  non local Contribution for L=           1  read in
    real space projection operators read in
    PAW grid and wavefunctions read in
 
   number of l-projection  operators is LMAX  =           4
   number of lm-projection operators is LMMAX =           8
 
 POTCAR:    PAW_PBE O 08Apr2002                   
   VRHFIN =O: s2p4                                                                                  
   LEXCH  = PE                                                                                      
   EATOM  =   432.3788 eV,   31.7789 Ry                                                             
                                                                                                    
   TITEL  = PAW_PBE O 08Apr2002                                                                     
   LULTRA =        F    use ultrasoft PP ?                                                          
   IUNSCR =        1    unscreen: 0-lin 1-nonlin 2-no                                               
   RPACOR =    1.200    partial core radius                                                         
   POMASS =   16.000; ZVAL   =    6.000    mass and valenz                                          
   RCORE  =    1.520    outmost cutoff radius                                                       
   RWIGS  =    1.550; RWIGS  =    0.820    wigner-seitz radius (au A)                               
   ENMAX  =  400.000; ENMIN  =  300.000 eV                                                          
   ICORE  =        2    local potential                                                             
   LCOR   =        T    correct aug charges                                                         
   LPAW   =        T    paw PP                                                                      
   EAUG   =  605.392                                                                                
   DEXC   =    0.000                                                                                
   RMAX   =    1.553    core radius for proj-oper                                                   
   RAUG   =    1.300    factor for augmentation sphere                                              
   RDEP   =    1.550    radius for radial grids                                                     
   RDEPT  =    1.329    core radius for aug-charge                                                  
                                                                                                    
   Atomic configuration                                                                             
    4 entries                                                                                       
     n  l   j            E        occ.                                                              
     1  0  0.50      -514.6923   2.0000                                                             
     2  0  0.50       -23.9615   2.0000                                                             
     2  1  0.50        -9.0305   4.0000                                                             
     3  2  1.50        -9.5241   0.0000                                                             
   Description                                                                                      
     l       E           TYP  RCUT    TYP  RCUT                                                     
     0    -23.9615318     23  1.200                                                                 
     0     -9.5240782     23  1.200                                                                 
     1     -9.0304911     23  1.520                                                                 
     1      8.1634956     23  1.520                                                                 
     2     -9.5240782      7  1.500                                                                 
  local pseudopotential read in
  partial core-charges read in
  partial kinetic energy density read in
  kinetic energy density of atom read in
  atomic valenz-charges read in
  non local Contribution for L=           0  read in
    real space projection operators read in
  non local Contribution for L=           0  read in
    real space projection operators read in
  non local Contribution for L=           1  read in
    real space projection operators read in
  non local Contribution for L=           1  read in
    real space projection operators read in
    PAW grid and wavefunctions read in
 
   number of l-projection  operators is LMAX  =           4
   number of lm-projection operators is LMMAX =           8
 
 Optimization of the real space projectors (new method)

 maximal supplied QI-value         = 15.12
 optimisation between [QCUT,QGAM] = [ 11.34, 22.83] = [ 36.00,145.93] Ry 
 Optimized for a Real-space Cutoff    1.43 Angstroem

   l    n(q)    QCUT    max X(q) W(low)/X(q) W(high)/X(q)  e(spline) 
   2      9    11.338    53.897    0.16E-03    0.20E-03    0.28E-06
   2      9    11.338    52.416    0.16E-03    0.20E-03    0.29E-06
   0     10    11.338   122.045    0.31E-04    0.76E-04    0.15E-06
   0     10    11.338    73.629    0.30E-04    0.72E-04    0.15E-06
   1      9    11.338    15.255    0.20E-03    0.19E-04    0.17E-06
   1      9    11.338     9.562    0.16E-03    0.15E-04    0.14E-06
 Optimization of the real space projectors (new method)

 maximal supplied QI-value         = 15.12
 optimisation between [QCUT,QGAM] = [ 11.34, 22.83] = [ 36.00,145.93] Ry 
 Optimized for a Real-space Cutoff    1.43 Angstroem

   l    n(q)    QCUT    max X(q) W(low)/X(q) W(high)/X(q)  e(spline) 
   2      9    11.338    94.395    0.18E-03    0.10E-02    0.64E-06
   2      9    11.338    88.078    0.18E-03    0.10E-02    0.65E-06
   0     10    11.338    50.173    0.13E-03    0.16E-03    0.96E-07
   0     10    11.338    24.906    0.12E-03    0.14E-03    0.88E-07
   1      9    11.338    12.133    0.13E-03    0.15E-03    0.24E-06
   1      9    11.338     7.290    0.10E-03    0.10E-03    0.18E-06
 Optimization of the real space projectors (new method)

 maximal supplied QI-value         = 25.13
 optimisation between [QCUT,QGAM] = [ 11.31, 22.87] = [ 35.82,146.48] Ry 
 Optimized for a Real-space Cutoff    1.00 Angstroem

   l    n(q)    QCUT    max X(q) W(low)/X(q) W(high)/X(q)  e(spline) 
   0      7    11.310   115.676    0.43E-03    0.13E-02    0.19E-06
   0      7    11.310    87.132    0.43E-03    0.13E-02    0.18E-06
   1      6    11.310     4.429    0.42E-03    0.74E-03    0.11E-06
   1      6    11.310     2.733    0.34E-03    0.55E-03    0.92E-07
 Optimization of the real space projectors (new method)

 maximal supplied QI-value         = 24.76
 optimisation between [QCUT,QGAM] = [ 11.39, 22.77] = [ 36.31,145.25] Ry 
 Optimized for a Real-space Cutoff    1.00 Angstroem

   l    n(q)    QCUT    max X(q) W(low)/X(q) W(high)/X(q)  e(spline) 
   0      7    11.387    20.381    0.39E-03    0.13E-02    0.15E-06
   0      7    11.387    15.268    0.42E-03    0.14E-02    0.17E-06
   1      6    11.387     5.964    0.41E-03    0.11E-02    0.17E-06
   1      6    11.387     5.382    0.39E-03    0.87E-03    0.15E-06
  PAW_PBE Ag 02Apr2005                  :
 energy of atom  1       EATOM=-1037.2675
 kinetic energy error for atom=    0.0052 (will be added to EATOM!!)
  PAW_PBE Cr 06Sep2000                  :
 energy of atom  2       EATOM= -276.8859
 kinetic energy error for atom=    0.0012 (will be added to EATOM!!)
  PAW_PBE C 08Apr2002                   :
 energy of atom  3       EATOM= -147.1560
 kinetic energy error for atom=    0.0076 (will be added to EATOM!!)
  PAW_PBE O 08Apr2002                   :
 energy of atom  4       EATOM= -432.3788
 kinetic energy error for atom=    0.0224 (will be added to EATOM!!)
 
 
 POSCAR: Ag-Cr-CO2
  positions in direct lattice
  velocities in cartesian coordinates
 exchange correlation table for  LEXCH =        8
   RHO(1)=    0.500       N(1)  =     2000
   RHO(2)=  100.500       N(2)  =     4000

 VTST: version 3.2, (02/03/18)

 CHAIN: initializing optimizer
 
 OPT: Using VASP Conjugate-Gradient optimizer
 CHAIN: Read ICHAIN            0
 
 POSCAR: Ag-Cr-CO2
  positions in direct lattice
  velocities in cartesian coordinates
 


--------------------------------------------------------------------------------------------------------


 ion  position               nearest neighbor table
   1  0.000  0.000  0.217-   2 2.93   8 2.93   7 2.93   6 2.93   4 2.93  12 2.93  16 2.93  10 2.93
                             3 2.93
   2  0.333  0.000  0.217-   1 2.93   8 2.93   9 2.93   3 2.93   4 2.93   5 2.93  10 2.93  17 2.93
                            11 2.93
   3  0.667  0.000  0.217-   9 2.93   2 2.93   5 2.93  11 2.93   7 2.93  18 2.93   1 2.93   6 2.93
                            12 2.93
   4  0.000  0.333  0.217-   5 2.93   6 2.93   2 2.93   1 2.93   7 2.93  13 2.93  15 2.93   9 2.93
                            10 2.93
   5  0.333  0.333  0.217-   4 2.93   3 2.93   7 2.93   2 2.93   8 2.93  14 2.93  13 2.93  11 2.93
                             6 2.93
   6  0.667  0.333  0.217-   4 2.93   9 2.93   1 2.93  15 2.93   8 2.93  12 2.93   3 2.93   5 2.93
                            14 2.93
   7  0.000  0.667  0.217-   8 2.93   1 2.93   5 2.93   3 2.93   4 2.93  16 2.93  18 2.93  13 2.93
                             9 2.93
   8  0.333  0.667  0.217-   7 2.93   1 2.93   2 2.93   9 2.93   5 2.93  16 2.93   6 2.93  17 2.93
                            14 2.93
   9  0.667  0.667  0.217-   3 2.93   2 2.93   8 2.93   6 2.93  17 2.93   4 2.93  15 2.93   7 2.93
                            18 2.93
  10  0.111  0.111  0.315-  20 2.91  19 2.92  26 2.92  12 2.93  16 2.93  15 2.93  17 2.93  13 2.93
                            11 2.93   2 2.93   1 2.93   4 2.93
  11  0.444  0.111  0.315-  21 2.90  20 2.90  27 2.92  14 2.93  17 2.93  18 2.93   3 2.93  12 2.93
                            13 2.93  10 2.93   5 2.93   2 2.93
  12  0.778  0.111  0.315-  21 2.91  25 2.92  19 2.92  10 2.93  16 2.93  18 2.93  15 2.93  11 2.93
                             1 2.93  14 2.93   6 2.93   3 2.93
  13  0.111  0.444  0.315-  20 2.90  23 2.90  22 2.92  15 2.93  14 2.93  18 2.93  10 2.93  11 2.93
                            16 2.93   4 2.93   5 2.93   7 2.93
  14  0.444  0.444  0.315-  23 2.90  21 2.90  24 2.92  13 2.93  11 2.93  16 2.93   5 2.93  12 2.93
                            17 2.93   8 2.93  15 2.93   6 2.93
  15  0.778  0.444  0.315-  24 2.92  22 2.92  19 2.92  13 2.93  10 2.93  12 2.93  17 2.93  18 2.93
                             4 2.93   6 2.93   9 2.93  14 2.93
  16  0.111  0.778  0.315-  23 2.91  26 2.92  25 2.92  18 2.93  12 2.93  10 2.93  14 2.93  17 2.93
                            13 2.93   7 2.93   8 2.93   1 2.93
  17  0.444  0.778  0.315-  27 2.92  24 2.92  26 2.92  11 2.93  10 2.93   9 2.93  18 2.93  15 2.93
                            16 2.93   2 2.93  14 2.93   8 2.93
  18  0.778  0.778  0.315-  22 2.92  27 2.92  25 2.92  16 2.93  12 2.93  13 2.93  11 2.93  17 2.93
                            15 2.93   7 2.93   3 2.93   9 2.93
  19  0.889  0.222  0.413-  28 2.91  15 2.92  10 2.92  12 2.92  24 2.93  22 2.93  26 2.93  25 2.93
                            20 2.94  21 2.94  32 2.96  31 2.96
  20  0.223  0.223  0.412-  36 2.73  13 2.90  11 2.90  21 2.91  23 2.91  10 2.91  31 2.91  29 2.91
                            27 2.93  22 2.93  19 2.94  26 2.94
  21  0.554  0.223  0.412-  36 2.73  11 2.90  14 2.90  20 2.91  23 2.91  12 2.91  30 2.91  32 2.91
                            27 2.93  24 2.93  25 2.94  19 2.94
  22  0.888  0.556  0.413-  35 2.91  18 2.92  15 2.92  13 2.92  24 2.92  27 2.92  25 2.93  19 2.93
                            33 2.93  31 2.93  23 2.93  20 2.93
  23  0.223  0.554  0.412-  36 2.73  14 2.90  13 2.90  21 2.91  20 2.91  16 2.91  34 2.91  33 2.91
                            22 2.93  24 2.93  26 2.94  25 2.94
  24  0.556  0.556  0.413-  35 2.91  15 2.92  17 2.92  14 2.92  27 2.92  22 2.92  19 2.93  26 2.93
                            32 2.93  34 2.93  23 2.93  21 2.93
  25  0.889  0.889  0.413-  28 2.91  18 2.92  16 2.92  12 2.92  22 2.93  27 2.93  26 2.93  19 2.93
                            23 2.94  21 2.94  33 2.96  30 2.96
  26  0.222  0.889  0.413-  28 2.91  17 2.92  16 2.92  10 2.92  27 2.93  24 2.93  25 2.93  19 2.93
                            23 2.94  20 2.94  34 2.96  29 2.96
  27  0.556  0.888  0.413-  35 2.91  17 2.92  18 2.92  11 2.92  24 2.92  22 2.92  26 2.93  25 2.93
                            29 2.93  30 2.93  20 2.93  21 2.93
  28  0.000  0.000  0.510-  26 2.91  25 2.91  19 2.91  29 2.96  34 2.96  33 2.96  32 2.96  31 2.96
                            30 2.96
  29  0.333  0.007  0.511-  37 2.77  30 2.87  31 2.87  36 2.88  20 2.91  27 2.93  26 2.96  35 2.96
                            28 2.96  34 3.06
  30  0.659  0.007  0.511-  29 2.87  32 2.87  36 2.88  21 2.91  27 2.93  25 2.96  35 2.96  28 2.96
                            33 3.06
  31  0.007  0.333  0.511-  37 2.62  33 2.87  29 2.87  36 2.88  20 2.91  22 2.93  19 2.96  35 2.96
                            28 2.96  32 3.06
  32  0.659  0.333  0.511-  34 2.87  30 2.87  36 2.88  21 2.91  24 2.93  19 2.96  35 2.96  28 2.96
                            31 3.06
  33  0.007  0.659  0.511-  31 2.87  34 2.87  36 2.88  23 2.91  22 2.93  25 2.96  35 2.96  28 2.96
                            30 3.06
  34  0.333  0.659  0.511-  32 2.87  33 2.87  36 2.88  23 2.91  24 2.93  26 2.96  35 2.96  28 2.96
                            29 3.06
  35  0.667  0.667  0.510-  24 2.91  27 2.91  22 2.91  30 2.96  32 2.96  29 2.96  34 2.96  31 2.96
                            33 2.96
  36  0.333  0.333  0.500-  39 1.93  37 1.98  21 2.73  20 2.73  23 2.73  31 2.88  33 2.88  30 2.88
                            29 2.88  34 2.88  32 2.88
  37  0.265  0.296  0.574-  38 1.23  39 1.32  36 1.98  31 2.62  29 2.77
  38  0.190  0.261  0.610-  37 1.23
  39  0.374  0.359  0.577-  37 1.32  36 1.93
 
  LATTYP: Found a hexagonal cell.
 ALAT       =     8.7913665772
 C/A-ratio  =     2.7703738524
  
  Lattice vectors:
  
 A1 = (  -4.3956832886,  -7.6135467898,   0.0000000000)
 A2 = (   8.7913665771,   0.0000000000,   0.0000000000)
 A3 = (   0.0000000000,   0.0000000000,  24.3553720923)


Analysis of symmetry for initial positions (statically):
=====================================================================
 Subroutine PRICEL returns:
 Original cell was already a primitive cell.
 

 Routine SETGRP: Setting up the symmetry group for a 
 hexagonal supercell.


 Subroutine GETGRP returns: Found  1 space group operations
 (whereof  1 operations were pure point group operations)
 out of a pool of 24 trial point group operations.


The static configuration has the point symmetry C_1 .


Analysis of symmetry for dynamics (positions and initial velocities):
=====================================================================
 Subroutine PRICEL returns:
 Original cell was already a primitive cell.
 

 Routine SETGRP: Setting up the symmetry group for a 
 hexagonal supercell.


 Subroutine GETGRP returns: Found  1 space group operations
 (whereof  1 operations were pure point group operations)
 out of a pool of 24 trial point group operations.


The dynamic configuration has the point symmetry C_1 .


Analysis of constrained symmetry for selective dynamics:
=====================================================================
 Subroutine PRICEL returns:
 Original cell was already a primitive cell.
 

 Routine SETGRP: Setting up the symmetry group for a 
 hexagonal supercell.


 Subroutine GETGRP returns: Found  1 space group operations
 (whereof  1 operations were pure point group operations)
 out of a pool of 24 trial point group operations.


The constrained configuration has the point symmetry C_1 .


 Subroutine INISYM returns: Found  1 space group operations
 (whereof  1 operations are pure point group operations),
 and found     1 'primitive' translations


----------------------------------------------------------------------------------------

                                     Primitive cell                                     

  volume of cell :    1630.1898

  direct lattice vectors                    reciprocal lattice vectors
     8.791366577  0.000000000  0.000000000     0.113747958 -0.065672414  0.000000000
     4.395683289  7.613546790  0.000000000     0.000000000  0.131344829  0.000000000
     0.000000000  0.000000000 24.355372092     0.000000000  0.000000000  0.041058703

  length of vectors
     8.791366577  8.791366577 24.355372092     0.131344829  0.131344829  0.041058703

  position of ions in fractional coordinates (direct lattice)
     0.000000000  0.000000000  0.216879796
     0.333333313  0.000000000  0.216879796
     0.666666627  0.000000000  0.216879796
     1.000000000  0.333333343  0.216879796
     0.333333313  0.333333343  0.216879796
     0.666666687  0.333333343  0.216879796
     1.000000000  0.666666687  0.216879796
     0.333333313  0.666666687  0.216879796
     0.666666627  0.666666687  0.216879796
     0.111111104  0.111111112  0.315121252
     0.444444448  0.111111112  0.315121252
     0.777777791  0.111111112  0.315121252
     0.111111097  0.444444448  0.315121252
     0.444444418  0.444444448  0.315121252
     0.777777791  0.444444448  0.315121252
     0.111111104  0.777777791  0.315121252
     0.444444448  0.777777791  0.315121252
     0.777777791  0.777777791  0.315121252
     0.888767793  0.222464430  0.412985244
     0.222890716  0.222890731  0.412191854
     0.554218509  0.222890731  0.412191854
     0.888473127  0.555763466  0.412812382
     0.222890731  0.554218569  0.412191854
     0.555763466  0.555763466  0.412812382
     0.888767793  0.888767793  0.412985244
     0.222464400  0.888767793  0.412985244
     0.555763406  0.888473127  0.412812382
     0.000000000  0.000000000  0.510212984
     0.333374766  0.007169798  0.511032835
     0.659455376  0.007169798  0.511032835
     0.007169798  0.333374796  0.511032835
     0.659455436  0.333374796  0.511032835
     0.007169798  0.659455436  0.511032835
     0.333374766  0.659455436  0.511032835
     0.666666627  0.666666687  0.510321095
     0.333333313  0.333333343  0.500377973
     0.264918316  0.296231474  0.574402746
     0.189824415  0.260833616  0.610343089
     0.373840707  0.358524405  0.576880100

  ion indices of the primitive-cell ions
   primitive index   ion index
                 1           1
                 2           2
                 3           3
                 4           4
                 5           5
                 6           6
                 7           7
                 8           8
                 9           9
                10          10
                11          11
                12          12
                13          13
                14          14
                15          15
                16          16
                17          17
                18          18
                19          19
                20          20
                21          21
                22          22
                23          23
                24          24
                25          25
                26          26
                27          27
                28          28
                29          29
                30          30
                31          31
                32          32
                33          33
                34          34
                35          35
                36          36
                37          37
                38          38
                39          39

----------------------------------------------------------------------------------------

 
 
 KPOINTS: Automatic mesh                          

Automatic generation of k-mesh.
 Grid dimensions read from file:
 generate k-points for:    8    8    1

 Generating k-lattice:

  Cartesian coordinates                     Fractional coordinates (reciprocal lattice)
     0.014218495 -0.008209052  0.000000000     0.125000000 -0.000000000  0.000000000
     0.000000000  0.016418104  0.000000000     0.000000000  0.125000000  0.000000000
     0.000000000  0.000000000  0.041058703     0.000000000  0.000000000  1.000000000

  Length of vectors
     0.016418104  0.016418104  0.041058703

  Shift w.r.t. Gamma in fractional coordinates (k-lattice)
     0.000000000  0.000000000  0.000000000

 TETIRR: Found    192 inequivalent tetrahedra from      384
 
 Subroutine IBZKPT returns following result:
 ===========================================
 
 Found     34 irreducible k-points:
 
 Following reciprocal coordinates:
            Coordinates               Weight
  0.000000  0.000000  0.000000      1.000000
  0.125000  0.000000  0.000000      2.000000
  0.125000  0.125000  0.000000      2.000000
  0.000000  0.125000  0.000000      2.000000
  0.250000  0.000000  0.000000      2.000000
  0.250000  0.250000  0.000000      2.000000
  0.000000  0.250000  0.000000      2.000000
  0.375000  0.000000  0.000000      2.000000
  0.375000  0.375000  0.000000      2.000000
  0.000000  0.375000  0.000000      2.000000
  0.500000  0.000000  0.000000      1.000000
  0.500000  0.500000  0.000000      1.000000
  0.000000  0.500000  0.000000      1.000000
  0.250000  0.125000  0.000000      2.000000
  0.125000  0.250000  0.000000      2.000000
 -0.125000  0.125000  0.000000      2.000000
  0.375000  0.125000  0.000000      2.000000
  0.250000  0.375000  0.000000      2.000000
 -0.125000  0.250000  0.000000      2.000000
  0.250000 -0.125000  0.000000      2.000000
 -0.125000 -0.375000  0.000000      2.000000
 -0.375000 -0.250000  0.000000      2.000000
  0.500000  0.125000  0.000000      2.000000
  0.375000  0.500000  0.000000      2.000000
 -0.125000  0.375000  0.000000      2.000000
  0.375000 -0.125000  0.000000      2.000000
 -0.125000  0.500000  0.000000      2.000000
  0.500000 -0.375000  0.000000      2.000000
  0.500000  0.250000  0.000000      2.000000
  0.250000  0.500000  0.000000      2.000000
 -0.250000  0.250000  0.000000      2.000000
 -0.375000  0.250000  0.000000      2.000000
  0.375000 -0.375000  0.000000      2.000000
 -0.250000  0.375000  0.000000      2.000000
 
 Following cartesian coordinates:
            Coordinates               Weight
  0.000000  0.000000  0.000000      1.000000
  0.014218 -0.008209  0.000000      2.000000
  0.014218  0.008209  0.000000      2.000000
  0.000000  0.016418  0.000000      2.000000
  0.028437 -0.016418  0.000000      2.000000
  0.028437  0.016418  0.000000      2.000000
  0.000000  0.032836  0.000000      2.000000
  0.042655 -0.024627  0.000000      2.000000
  0.042655  0.024627  0.000000      2.000000
  0.000000  0.049254  0.000000      2.000000
  0.056874 -0.032836  0.000000      1.000000
  0.056874  0.032836  0.000000      1.000000
  0.000000  0.065672  0.000000      1.000000
  0.028437 -0.000000  0.000000      2.000000
  0.014218  0.024627  0.000000      2.000000
 -0.014218  0.024627  0.000000      2.000000
  0.042655 -0.008209  0.000000      2.000000
  0.028437  0.032836  0.000000      2.000000
 -0.014218  0.041045  0.000000      2.000000
  0.028437 -0.032836  0.000000      2.000000
 -0.014218 -0.041045  0.000000      2.000000
 -0.042655 -0.008209  0.000000      2.000000
  0.056874 -0.016418  0.000000      2.000000
  0.042655  0.041045  0.000000      2.000000
 -0.014218  0.057463  0.000000      2.000000
  0.042655 -0.041045  0.000000      2.000000
 -0.014218  0.073881  0.000000      2.000000
  0.056874 -0.082091  0.000000      2.000000
  0.056874 -0.000000  0.000000      2.000000
  0.028437  0.049254  0.000000      2.000000
 -0.028437  0.049254  0.000000      2.000000
 -0.042655  0.057463  0.000000      2.000000
  0.042655 -0.073881  0.000000      2.000000
 -0.028437  0.065672  0.000000      2.000000
 


--------------------------------------------------------------------------------------------------------




 Dimension of arrays:
   k-points           NKPTS =     34   k-points in BZ     NKDIM =     34   number of bands    NBANDS=    252
   number of dos      NEDOS =    301   number of ions     NIONS =     39
   non local maximal  LDIM  =      6   non local SUM 2l+1 LMDIM =     18
   total plane-waves  NPLWV = 322560
   max r-space proj   IRMAX =   2481   max aug-charges    IRDMAX=  10307
   dimension x,y,z NGX =    48 NGY =   48 NGZ =  140
   dimension x,y,z NGXF=    96 NGYF=   96 NGZF=  280
   support grid    NGXF=    96 NGYF=   96 NGZF=  280
   ions per type =              35   1   1   2
   NGX,Y,Z   is equivalent  to a cutoff of   9.08,  9.08,  9.56 a.u.
   NGXF,Y,Z  is equivalent  to a cutoff of  18.15, 18.15, 19.11 a.u.

 SYSTEM =  unknown system                          
 POSCAR =  Ag-Cr-CO2                               

 Startparameter for this run:
   NWRITE =      2    write-flag & timer
   PREC   = normal    normal or accurate (medium, high low for compatibility)
   ISTART =      0    job   : 0-new  1-cont  2-samecut
   ICHARG =     11    charge: 1-file 2-atom 10-const
   ISPIN  =      1    spin polarized calculation?
   LNONCOLLINEAR =      F non collinear calculations
   LSORBIT =      F    spin-orbit coupling
   INIWAV =      1    electr: 0-lowe 1-rand  2-diag
   LASPH  =      F    aspherical Exc in radial PAW
   METAGGA=      F    non-selfconsistent MetaGGA calc.

 Electronic Relaxation 1
   ENCUT  =  500.0 eV  36.75 Ry    6.06 a.u.  16.03 16.03 44.41*2*pi/ulx,y,z
   ENINI  =  500.0     initial cutoff
   ENAUG  =  644.9 eV  augmentation charge cutoff
   NELM   =    150;   NELMIN=  2; NELMDL= -5     # of ELM steps 
   EDIFF  = 0.1E-04   stopping-criterion for ELM
   LREAL  =      T    real-space projection
   NLSPLINE    = F    spline interpolate recip. space projectors
   LCOMPAT=      F    compatible to vasp.4.4
   GGA_COMPAT  = T    GGA compatible to vasp.4.4-vasp.4.6
   LMAXPAW     = -100 max onsite density
   LMAXMIX     =    2 max onsite mixed and CHGCAR
   VOSKOWN=      0    Vosko Wilk Nusair interpolation
   ROPT   =   -0.00050  -0.00050  -0.00050  -0.00050
 Ionic relaxation
   EDIFFG = -.1E-01   stopping-criterion for IOM
   NSW    =      0    number of steps for IOM
   NBLOCK =      1;   KBLOCK =      1    inner block; outer block 
   IBRION =     -1    ionic relax: 0-MD 1-quasi-New 2-CG
   NFREE  =      1    steps in history (QN), initial steepest desc. (CG)
   ISIF   =      2    stress and relaxation
   IWAVPR =     10    prediction:  0-non 1-charg 2-wave 3-comb
   ISYM   =      2    0-nonsym 1-usesym 2-fastsym
   LCORR  =      T    Harris-Foulkes like correction to forces

   POTIM  = 0.5000    time-step for ionic-motion
   TEIN   =    0.0    initial temperature
   TEBEG  =    0.0;   TEEND  =   0.0 temperature during run
   SMASS  =  -3.00    Nose mass-parameter (am)
   estimated Nose-frequenzy (Omega)   =  0.10E-29 period in steps = 0.13E+47 mass=  -0.177E-26a.u.
   SCALEE = 1.0000    scale energy and forces
   NPACO  =    256;   APACO  = 16.0  distance and # of slots for P.C.
   PSTRESS=    0.0 pullay stress

  Mass of Ions in am
   POMASS = 107.87 52.00 12.01 16.00
  Ionic Valenz
   ZVAL   =  11.00  6.00  4.00  6.00
  Atomic Wigner-Seitz radii
   RWIGS  =  -1.00 -1.00 -1.00 -1.00
  virtual crystal weights 
   VCA    =   1.00  1.00  1.00  1.00
   NELECT =     407.0000    total number of electrons
   NUPDOWN=      -1.0000    fix difference up-down

 DOS related values:
   EMIN   =  10.00;   EMAX   =-10.00  energy-range for DOS
   EFERMI =   0.00
   ISMEAR =    -5;   SIGMA  =   0.10  broadening in eV -4-tet -1-fermi 0-gaus

 Electronic relaxation 2 (details)
   IALGO  =     68    algorithm
   LDIAG  =      T    sub-space diagonalisation (order eigenvalues)
   LSUBROT=      F    optimize rotation matrix (better conditioning)
   TURBO    =      0    0=normal 1=particle mesh
   IRESTART =      0    0=no restart 2=restart with 2 vectors
   NREBOOT  =      0    no. of reboots
   NMIN     =      0    reboot dimension
   EREF     =   0.00    reference energy to select bands
   IMIX   =      4    mixing-type and parameters
     AMIX     =   0.40;   BMIX     =  1.00
     AMIX_MAG =   1.60;   BMIX_MAG =  1.00
     AMIN     =   0.10
     WC   =   100.;   INIMIX=   1;  MIXPRE=   1;  MAXMIX= -45

 Intra band minimization:
   WEIMIN = 0.0000     energy-eigenvalue tresh-hold
   EBREAK =  0.99E-08  absolut break condition
   DEPER  =   0.30     relativ break condition  

   TIME   =   0.40     timestep for ELM

  volume/ion in A,a.u.               =      41.80       282.08
  Fermi-wavevector in a.u.,A,eV,Ry     =   1.030845  1.948016 14.458128  1.062642
  Thomas-Fermi vector in A             =   2.164964
 
 Write flags
   LWAVE        =      F    write WAVECAR
   LDOWNSAMPLE  =      F    k-point downsampling of WAVECAR
   LCHARG       =      F    write CHGCAR
   LVTOT        =      F    write LOCPOT, total local potential
   LVHAR        =      F    write LOCPOT, Hartree potential only
   LELF         =      F    write electronic localiz. function (ELF)
   LORBIT       =     10    0 simple, 1 ext, 2 COOP (PROOUT), +10 PAW based schemes


 Dipole corrections
   LMONO  =      F    monopole corrections only (constant potential shift)
   LDIPOL =      F    correct potential (dipole corrections)
   IDIPOL =      0    1-x, 2-y, 3-z, 4-all directions 
   EPSILON=  1.0000000 bulk dielectric constant

 Exchange correlation treatment:
   GGA     =    --    GGA type
   LEXCH   =     8    internal setting for exchange type
   VOSKOWN=      0    Vosko Wilk Nusair interpolation
   LHFCALC =     F    Hartree Fock is set to
   LHFONE  =     F    Hartree Fock one center treatment
   AEXX    =    0.0000 exact exchange contribution

 Linear response parameters
   LEPSILON=     F    determine dielectric tensor
   LRPA    =     F    only Hartree local field effects (RPA)
   LNABLA  =     F    use nabla operator in PAW spheres
   LVEL    =     F    velocity operator in full k-point grid
   LINTERFAST=   F  fast interpolation
   KINTER  =     0    interpolate to denser k-point grid
   CSHIFT  =0.1000    complex shift for real part using Kramers Kronig
   OMEGAMAX=  -1.0    maximum frequency
   DEG_THRESHOLD= 0.2000000E-02 threshold for treating states as degnerate
   RTIME   =   -0.100 relaxation time in fs
  (WPLASMAI=    0.000 imaginary part of plasma frequency in eV, 0.658/RTIME)
   DFIELD  = 0.0000000 0.0000000 0.0000000 field for delta impulse in time
 
 Orbital magnetization related:
   ORBITALMAG=     F  switch on orbital magnetization
   LCHIMAG   =     F  perturbation theory with respect to B field
   DQ        =  0.001000  dq finite difference perturbation B field
   LLRAUG    =     F  two centre corrections for induced B field



--------------------------------------------------------------------------------------------------------


 Static calculation
 charge density and potential remain constant during run
 non-spin polarized calculation
 RMM-DIIS sequential band-by-band and
  variant of blocked Davidson during initial phase
 perform sub-space diagonalisation
    before iterative eigenvector-optimisation
 no mixing
 using additional bands           48
 real space projection scheme for non local part
 use partial core corrections
 calculate Harris-corrections to forces 
   (improved forces if not selfconsistent)
 use gradient corrections 
 WARNING: stress and forces are not correct
  (second derivative of E(xc) not defined)
 use of overlap-Matrix (Vanderbilt PP)
 Fermi weights with tetrahedron method with Bloechl corrections


--------------------------------------------------------------------------------------------------------


  energy-cutoff  :      500.00
  volume of cell :     1630.19
      direct lattice vectors                 reciprocal lattice vectors
     8.791366577  0.000000000  0.000000000     0.113747958 -0.065672414  0.000000000
     4.395683289  7.613546790  0.000000000     0.000000000  0.131344829  0.000000000
     0.000000000  0.000000000 24.355372092     0.000000000  0.000000000  0.041058703

  length of vectors
     8.791366577  8.791366577 24.355372092     0.131344829  0.131344829  0.041058703


 
 k-points in units of 2pi/SCALE and weight: Automatic mesh                          
   0.00000000  0.00000000  0.00000000       0.016
   0.01421849 -0.00820905  0.00000000       0.031
   0.01421849  0.00820905  0.00000000       0.031
   0.00000000  0.01641810  0.00000000       0.031
   0.02843699 -0.01641810  0.00000000       0.031
   0.02843699  0.01641810  0.00000000       0.031
   0.00000000  0.03283621  0.00000000       0.031
   0.04265548 -0.02462716  0.00000000       0.031
   0.04265548  0.02462716  0.00000000       0.031
   0.00000000  0.04925431  0.00000000       0.031
   0.05687398 -0.03283621  0.00000000       0.016
   0.05687398  0.03283621  0.00000000       0.016
   0.00000000  0.06567241  0.00000000       0.016
   0.02843699 -0.00000000  0.00000000       0.031
   0.01421849  0.02462716  0.00000000       0.031
  -0.01421849  0.02462716  0.00000000       0.031
   0.04265548 -0.00820905  0.00000000       0.031
   0.02843699  0.03283621  0.00000000       0.031
  -0.01421849  0.04104526  0.00000000       0.031
   0.02843699 -0.03283621  0.00000000       0.031
  -0.01421849 -0.04104526  0.00000000       0.031
  -0.04265548 -0.00820905  0.00000000       0.031
   0.05687398 -0.01641810  0.00000000       0.031
   0.04265548  0.04104526  0.00000000       0.031
  -0.01421849  0.05746336  0.00000000       0.031
   0.04265548 -0.04104526  0.00000000       0.031
  -0.01421849  0.07388147  0.00000000       0.031
   0.05687398 -0.08209052  0.00000000       0.031
   0.05687398 -0.00000000  0.00000000       0.031
   0.02843699  0.04925431  0.00000000       0.031
  -0.02843699  0.04925431  0.00000000       0.031
  -0.04265548  0.05746336  0.00000000       0.031
   0.04265548 -0.07388147  0.00000000       0.031
  -0.02843699  0.06567241  0.00000000       0.031
 
 k-points in reciprocal lattice and weights: Automatic mesh                          
   0.00000000  0.00000000  0.00000000       0.016
   0.12500000  0.00000000  0.00000000       0.031
   0.12500000  0.12500000  0.00000000       0.031
   0.00000000  0.12500000  0.00000000       0.031
   0.25000000  0.00000000  0.00000000       0.031
   0.25000000  0.25000000  0.00000000       0.031
   0.00000000  0.25000000  0.00000000       0.031
   0.37500000  0.00000000  0.00000000       0.031
   0.37500000  0.37500000  0.00000000       0.031
   0.00000000  0.37500000  0.00000000       0.031
   0.50000000  0.00000000  0.00000000       0.016
   0.50000000  0.50000000  0.00000000       0.016
   0.00000000  0.50000000  0.00000000       0.016
   0.25000000  0.12500000  0.00000000       0.031
   0.12500000  0.25000000  0.00000000       0.031
  -0.12500000  0.12500000  0.00000000       0.031
   0.37500000  0.12500000  0.00000000       0.031
   0.25000000  0.37500000  0.00000000       0.031
  -0.12500000  0.25000000  0.00000000       0.031
   0.25000000 -0.12500000  0.00000000       0.031
  -0.12500000 -0.37500000  0.00000000       0.031
  -0.37500000 -0.25000000  0.00000000       0.031
   0.50000000  0.12500000  0.00000000       0.031
   0.37500000  0.50000000  0.00000000       0.031
  -0.12500000  0.37500000  0.00000000       0.031
   0.37500000 -0.12500000  0.00000000       0.031
  -0.12500000  0.50000000  0.00000000       0.031
   0.50000000 -0.37500000  0.00000000       0.031
   0.50000000  0.25000000  0.00000000       0.031
   0.25000000  0.50000000  0.00000000       0.031
  -0.25000000  0.25000000  0.00000000       0.031
  -0.37500000  0.25000000  0.00000000       0.031
   0.37500000 -0.37500000  0.00000000       0.031
  -0.25000000  0.37500000  0.00000000       0.031
 
 position of ions in fractional coordinates (direct lattice) 
   0.00000000  0.00000000  0.21687980
   0.33333331  0.00000000  0.21687980
   0.66666663  0.00000000  0.21687980
   0.00000000  0.33333334  0.21687980
   0.33333331  0.33333334  0.21687980
   0.66666669  0.33333334  0.21687980
   0.00000000  0.66666669  0.21687980
   0.33333331  0.66666669  0.21687980
   0.66666663  0.66666669  0.21687980
   0.11111110  0.11111111  0.31512125
   0.44444445  0.11111111  0.31512125
   0.77777779  0.11111111  0.31512125
   0.11111110  0.44444445  0.31512125
   0.44444442  0.44444445  0.31512125
   0.77777779  0.44444445  0.31512125
   0.11111110  0.77777779  0.31512125
   0.44444445  0.77777779  0.31512125
   0.77777779  0.77777779  0.31512125
   0.88876779  0.22246443  0.41298524
   0.22289072  0.22289073  0.41219185
   0.55421851  0.22289073  0.41219185
   0.88847313  0.55576347  0.41281238
   0.22289073  0.55421857  0.41219185
   0.55576347  0.55576347  0.41281238
   0.88876779  0.88876779  0.41298524
   0.22246440  0.88876779  0.41298524
   0.55576341  0.88847313  0.41281238
   0.00000000  0.00000000  0.51021298
   0.33337477  0.00716980  0.51103283
   0.65945538  0.00716980  0.51103283
   0.00716980  0.33337480  0.51103283
   0.65945544  0.33337480  0.51103283
   0.00716980  0.65945544  0.51103283
   0.33337477  0.65945544  0.51103283
   0.66666663  0.66666669  0.51032109
   0.33333331  0.33333334  0.50037797
   0.26491832  0.29623147  0.57440275
   0.18982442  0.26083362  0.61034309
   0.37384071  0.35852441  0.57688010
 
 position of ions in cartesian coordinates  (Angst):
   0.00000000  0.00000000  5.28218814
   2.93045535  0.00000000  5.28218814
   5.86091070  0.00000000  5.28218814
   1.46522781  2.53784900  5.28218814
   4.39568315  2.53784900  5.28218814
   7.32613904  2.53784900  5.28218814
   2.93045562  5.07569801  5.28218814
   5.86091096  5.07569801  5.28218814
   8.79136632  5.07569801  5.28218814
   1.46522770  0.84594965  7.67489535
   4.39568332  0.84594965  7.67489535
   7.32613893  0.84594965  7.67489535
   2.93045542  3.38379860  7.67489535
   5.86091083  3.38379860  7.67489535
   8.79136671  3.38379860  7.67489535
   4.39568328  5.92164760  7.67489535
   7.32613890  5.92164760  7.67489535
  10.25659451  5.92164760  7.67489535
   8.79136665  1.69374335 10.05840929
   2.93927105  1.69698901 10.03908597
   5.85209513  1.69698901 10.03908597
  10.25385314  4.23133116 10.05419916
   4.39568342  4.21956900 10.03908597
   7.32888055  4.23133116 10.05419916
  11.72022521  6.76667518 10.05840929
   5.86250783  6.76667518 10.05840929
   8.79136631  6.76443172 10.05419916
   0.00000000  0.00000000 12.42642706
   2.96233593  0.05458759 12.44639484
   5.82903012  0.05458759 12.44639484
   1.52844234  2.53816460 12.44639484
   7.26292450  2.53816460 12.44639484
   2.96178957  5.02079482 12.44639484
   5.82957701  5.02079482 12.44639484
   8.79136632  5.07569801 12.42906015
   4.39568315  2.53784900 12.18689171
   3.63113377  2.25537219 13.98979262
   2.81535798  1.98586894 14.86513304
   4.86253043  2.72964233 14.05012949
 


--------------------------------------------------------------------------------------------------------


 k-point   1 :   0.0000 0.0000 0.0000  plane waves:   41243
 k-point   2 :   0.1250 0.0000 0.0000  plane waves:   41326
 k-point   3 :   0.1250 0.1250 0.0000  plane waves:   41326
 k-point   4 :   0.0000 0.1250 0.0000  plane waves:   41326
 k-point   5 :   0.2500 0.0000 0.0000  plane waves:   41336
 k-point   6 :   0.2500 0.2500 0.0000  plane waves:   41336
 k-point   7 :   0.0000 0.2500 0.0000  plane waves:   41336
 k-point   8 :   0.3750 0.0000 0.0000  plane waves:   41410
 k-point   9 :   0.3750 0.3750 0.0000  plane waves:   41410
 k-point  10 :   0.0000 0.3750 0.0000  plane waves:   41410
 k-point  11 :   0.5000 0.0000 0.0000  plane waves:   41412
 k-point  12 :   0.5000 0.5000 0.0000  plane waves:   41412
 k-point  13 :   0.0000 0.5000 0.0000  plane waves:   41412
 k-point  14 :   0.2500 0.1250 0.0000  plane waves:   41324
 k-point  15 :   0.1250 0.2500 0.0000  plane waves:   41324
 k-point  16 :  -0.1250 0.1250 0.0000  plane waves:   41324
 k-point  17 :   0.3750 0.1250 0.0000  plane waves:   41412
 k-point  18 :   0.2500 0.3750 0.0000  plane waves:   41412
 k-point  19 :  -0.1250 0.2500 0.0000  plane waves:   41412
 k-point  20 :   0.2500-0.1250 0.0000  plane waves:   41412
 k-point  21 :  -0.1250-0.3750 0.0000  plane waves:   41412
 k-point  22 :  -0.3750-0.2500 0.0000  plane waves:   41412
 k-point  23 :   0.5000 0.1250 0.0000  plane waves:   41392
 k-point  24 :   0.3750 0.5000 0.0000  plane waves:   41392
 k-point  25 :  -0.1250 0.3750 0.0000  plane waves:   41392
 k-point  26 :   0.3750-0.1250 0.0000  plane waves:   41392
 k-point  27 :  -0.1250 0.5000 0.0000  plane waves:   41392
 k-point  28 :   0.5000-0.3750 0.0000  plane waves:   41392
 k-point  29 :   0.5000 0.2500 0.0000  plane waves:   41436
 k-point  30 :   0.2500 0.5000 0.0000  plane waves:   41436
 k-point  31 :  -0.2500 0.2500 0.0000  plane waves:   41436
 k-point  32 :  -0.3750 0.2500 0.0000  plane waves:   41434
 k-point  33 :   0.3750-0.3750 0.0000  plane waves:   41434
 k-point  34 :  -0.2500 0.3750 0.0000  plane waves:   41434

 maximum and minimum number of plane-waves per node :     41436    41243

 maximum number of plane-waves:     41436
 maximum index in each direction: 
   IXMAX=   16   IYMAX=   16   IZMAX=   44
   IXMIN=  -16   IYMIN=  -16   IZMIN=  -44


 serial   3D FFT for wavefunctions
 parallel 3D FFT for charge:
    minimum data exchange during FFTs selected (reduces bandwidth)


 total amount of memory used by VASP MPI-rank0   277613. kBytes
=======================================================================

   base      :      30000. kBytes
   nonlr-proj:      15296. kBytes
   fftplans  :       4808. kBytes
   grid      :      20723. kBytes
   one-center:        606. kBytes
   wavefun   :     206180. kBytes
 
     INWAV:  cpu time    0.0000: real time    0.0001
 initial charge density was supplied:
 number of electron     407.0000127 magnetization 
 keeping initial charge density in first step


--------------------------------------------------------------------------------------------------------


 Maximum index for non-local projection operator         2380
 Maximum index for augmentation-charges          718 (set IRDMAX)


--------------------------------------------------------------------------------------------------------


 First call to EWALD:  gamma=   0.151
 Maximum number of real-space cells 4x 4x 2
 Maximum number of reciprocal cells 2x 2x 5

    FEWALD:  cpu time    0.0013: real time    0.0014


--------------------------------------- Iteration      1(   1)  ---------------------------------------


    POTLOK:  cpu time    0.0489: real time    0.0492
    SETDIJ:  cpu time    0.0047: real time    0.0048
     EDDAV:  cpu time   26.6969: real time   26.6987
 BZINTS: Fermi energy:    9.714489;  407.000000 electrons
         Band energy: 0.104607E+04;  BLOECHL correction:   -0.019349
       DOS:  cpu time    0.0610: real time    0.0611
    --------------------------------------------
      LOOP:  cpu time   26.8116: real time   26.8138

 eigenvalue-minimisations  : 17136
 total energy-change (2. order) : 0.2570647E+04  (-0.1857954E+05)
 number of electron     407.0000127 magnetization 
 augmentation part      407.0000127 magnetization 

 Free energy of the ion-electron system (eV)
  ---------------------------------------------------
  alpha Z        PSCENC =       709.57635901
  Ewald energy   TEWEN  =    129978.32298796
  -Hartree energ DENC   =   -167969.35473820
  -exchange      EXHF   =         0.00000000
  -V(xc)+E(xc)   XCENC  =      -338.69644561
  PAW double counting   =     40052.55098719   -38500.74754570
  entropy T*S    EENTRO =         0.00000000
  eigenvalues    EBANDS =      1046.06836153
  atomic energy  EATOM  =     37592.92680875
  Solvation  Ediel_sol  =         0.00000000
  ---------------------------------------------------
  free energy    TOTEN  =      2570.64677495 eV

  energy without entropy =     2570.64677495  energy(sigma->0) =     2570.64677495


--------------------------------------------------------------------------------------------------------




--------------------------------------- Iteration      1(   2)  ---------------------------------------


     EDDAV:  cpu time   27.8920: real time   27.8923
 BZINTS: Fermi energy:    1.081388;  407.000000 electrons
         Band energy:-0.151870E+04;  BLOECHL correction:   -0.020977
       DOS:  cpu time    0.0586: real time    0.0586
    --------------------------------------------
      LOOP:  cpu time   27.9506: real time   27.9509

 eigenvalue-minimisations  : 18032
 total energy-change (2. order) :-0.2564766E+04  (-0.2447532E+04)
 number of electron     407.0000127 magnetization 
 augmentation part      407.0000127 magnetization 

 Free energy of the ion-electron system (eV)
  ---------------------------------------------------
  alpha Z        PSCENC =       709.57635901
  Ewald energy   TEWEN  =    129978.32298796
  -Hartree energ DENC   =   -167969.35473820
  -exchange      EXHF   =         0.00000000
  -V(xc)+E(xc)   XCENC  =      -338.69644561
  PAW double counting   =     40052.55098719   -38500.74754570
  entropy T*S    EENTRO =         0.00000000
  eigenvalues    EBANDS =     -1518.69758352
  atomic energy  EATOM  =     37592.92680875
  Solvation  Ediel_sol  =         0.00000000
  ---------------------------------------------------
  free energy    TOTEN  =         5.88082989 eV

  energy without entropy =        5.88082989  energy(sigma->0) =        5.88082989


--------------------------------------------------------------------------------------------------------




--------------------------------------- Iteration      1(   3)  ---------------------------------------


     EDDAV:  cpu time   31.9853: real time   31.9855
 BZINTS: Fermi energy:    0.254505;  407.000000 electrons
         Band energy:-0.164010E+04;  BLOECHL correction:   -0.018458
       DOS:  cpu time    0.0549: real time    0.0549
    --------------------------------------------
      LOOP:  cpu time   32.0402: real time   32.0404

 eigenvalue-minimisations  : 21336
 total energy-change (2. order) :-0.1214020E+03  (-0.1184425E+03)
 number of electron     407.0000127 magnetization 
 augmentation part      407.0000127 magnetization 

 Free energy of the ion-electron system (eV)
  ---------------------------------------------------
  alpha Z        PSCENC =       709.57635901
  Ewald energy   TEWEN  =    129978.32298796
  -Hartree energ DENC   =   -167969.35473820
  -exchange      EXHF   =         0.00000000
  -V(xc)+E(xc)   XCENC  =      -338.69644561
  PAW double counting   =     40052.55098719   -38500.74754570
  entropy T*S    EENTRO =         0.00000000
  eigenvalues    EBANDS =     -1640.09953480
  atomic energy  EATOM  =     37592.92680875
  Solvation  Ediel_sol  =         0.00000000
  ---------------------------------------------------
  free energy    TOTEN  =      -115.52112138 eV

  energy without entropy =     -115.52112138  energy(sigma->0) =     -115.52112138


--------------------------------------------------------------------------------------------------------




--------------------------------------- Iteration      1(   4)  ---------------------------------------


     EDDAV:  cpu time   28.8446: real time   28.8448
 BZINTS: Fermi energy:    0.236748;  407.000000 electrons
         Band energy:-0.164307E+04;  BLOECHL correction:   -0.018354
       DOS:  cpu time    0.0555: real time    0.0555
    --------------------------------------------
      LOOP:  cpu time   28.9001: real time   28.9003

 eigenvalue-minimisations  : 18788
 total energy-change (2. order) :-0.2968627E+01  (-0.2954676E+01)
 number of electron     407.0000127 magnetization 
 augmentation part      407.0000127 magnetization 

 Free energy of the ion-electron system (eV)
  ---------------------------------------------------
  alpha Z        PSCENC =       709.57635901
  Ewald energy   TEWEN  =    129978.32298796
  -Hartree energ DENC   =   -167969.35473820
  -exchange      EXHF   =         0.00000000
  -V(xc)+E(xc)   XCENC  =      -338.69644561
  PAW double counting   =     40052.55098719   -38500.74754570
  entropy T*S    EENTRO =         0.00000000
  eigenvalues    EBANDS =     -1643.06816136
  atomic energy  EATOM  =     37592.92680875
  Solvation  Ediel_sol  =         0.00000000
  ---------------------------------------------------
  free energy    TOTEN  =      -118.48974794 eV

  energy without entropy =     -118.48974794  energy(sigma->0) =     -118.48974794


--------------------------------------------------------------------------------------------------------




--------------------------------------- Iteration      1(   5)  ---------------------------------------


     EDDAV:  cpu time   31.9789: real time   31.9816
 BZINTS: Fermi energy:    0.236243;  407.000000 electrons
         Band energy:-0.164314E+04;  BLOECHL correction:   -0.018390
       DOS:  cpu time    0.0593: real time    0.0593
    --------------------------------------------
      LOOP:  cpu time   32.0382: real time   32.0409

 eigenvalue-minimisations  : 21336
 total energy-change (2. order) :-0.7276701E-01  (-0.7274038E-01)
 number of electron     407.0000127 magnetization 
 augmentation part      407.0000127 magnetization 

 Free energy of the ion-electron system (eV)
  ---------------------------------------------------
  alpha Z        PSCENC =       709.57635901
  Ewald energy   TEWEN  =    129978.32298796
  -Hartree energ DENC   =   -167969.35473820
  -exchange      EXHF   =         0.00000000
  -V(xc)+E(xc)   XCENC  =      -338.69644561
  PAW double counting   =     40052.55098719   -38500.74754570
  entropy T*S    EENTRO =         0.00000000
  eigenvalues    EBANDS =     -1643.14092837
  atomic energy  EATOM  =     37592.92680875
  Solvation  Ediel_sol  =         0.00000000
  ---------------------------------------------------
  free energy    TOTEN  =      -118.56251495 eV

  energy without entropy =     -118.56251495  energy(sigma->0) =     -118.56251495


--------------------------------------------------------------------------------------------------------




--------------------------------------- Iteration      1(   6)  ---------------------------------------


    EDDIAG:  cpu time    5.2335: real time    5.2338
  RMM-DIIS:  cpu time   15.2608: real time   15.2608
    ORTHCH:  cpu time    0.9536: real time    0.9536
 BZINTS: Fermi energy:    0.236241;  407.000000 electrons
         Band energy:-0.164314E+04;  BLOECHL correction:   -0.018390
       DOS:  cpu time    0.0579: real time    0.0579
    --------------------------------------------
      LOOP:  cpu time   21.5058: real time   21.5062

 eigenvalue-minimisations  : 17657
 total energy-change (2. order) :-0.2197330E-02  (-0.2197288E-02)
 number of electron     407.0000127 magnetization 
 augmentation part      407.0000127 magnetization 

 Free energy of the ion-electron system (eV)
  ---------------------------------------------------
  alpha Z        PSCENC =       709.57635901
  Ewald energy   TEWEN  =    129978.32298796
  -Hartree energ DENC   =   -167969.35473820
  -exchange      EXHF   =         0.00000000
  -V(xc)+E(xc)   XCENC  =      -338.69644561
  PAW double counting   =     40052.55098719   -38500.74754570
  entropy T*S    EENTRO =         0.00000000
  eigenvalues    EBANDS =     -1643.14312570
  atomic energy  EATOM  =     37592.92680875
  Solvation  Ediel_sol  =         0.00000000
  ---------------------------------------------------
  free energy    TOTEN  =      -118.56471228 eV

  energy without entropy =     -118.56471228  energy(sigma->0) =     -118.56471228


--------------------------------------------------------------------------------------------------------




--------------------------------------- Iteration      1(   7)  ---------------------------------------


    EDDIAG:  cpu time    5.2329: real time    5.2330
  RMM-DIIS:  cpu time   22.6281: real time   22.6282
    ORTHCH:  cpu time    0.9535: real time    0.9535
 BZINTS: Fermi energy:    0.236240;  407.000000 electrons
         Band energy:-0.164314E+04;  BLOECHL correction:   -0.018390
       DOS:  cpu time    0.0566: real time    0.0566
    --------------------------------------------
      LOOP:  cpu time   28.8711: real time   28.8713

 eigenvalue-minimisations  : 26033
 total energy-change (2. order) :-0.9772175E-03  (-0.9558200E-03)
 number of electron     407.0000127 magnetization 
 augmentation part      407.0000127 magnetization 

 Free energy of the ion-electron system (eV)
  ---------------------------------------------------
  alpha Z        PSCENC =       709.57635901
  Ewald energy   TEWEN  =    129978.32298796
  -Hartree energ DENC   =   -167969.35473820
  -exchange      EXHF   =         0.00000000
  -V(xc)+E(xc)   XCENC  =      -338.69644561
  PAW double counting   =     40052.55098719   -38500.74754570
  entropy T*S    EENTRO =         0.00000000
  eigenvalues    EBANDS =     -1643.14410291
  atomic energy  EATOM  =     37592.92680875
  Solvation  Ediel_sol  =         0.00000000
  ---------------------------------------------------
  free energy    TOTEN  =      -118.56568950 eV

  energy without entropy =     -118.56568950  energy(sigma->0) =     -118.56568950


--------------------------------------------------------------------------------------------------------




--------------------------------------- Iteration      1(   8)  ---------------------------------------


    EDDIAG:  cpu time    5.2313: real time    5.2316
  RMM-DIIS:  cpu time   20.1991: real time   20.1992
    ORTHCH:  cpu time    0.9532: real time    0.9533
 BZINTS: Fermi energy:    0.236240;  407.000000 electrons
         Band energy:-0.164314E+04;  BLOECHL correction:   -0.018390
       DOS:  cpu time    0.0579: real time    0.0579
    --------------------------------------------
      LOOP:  cpu time   26.4415: real time   26.4420

 eigenvalue-minimisations  : 22707
 total energy-change (2. order) :-0.9338948E-04  (-0.9855467E-04)
 number of electron     407.0000127 magnetization 
 augmentation part      407.0000127 magnetization 

 Free energy of the ion-electron system (eV)
  ---------------------------------------------------
  alpha Z        PSCENC =       709.57635901
  Ewald energy   TEWEN  =    129978.32298796
  -Hartree energ DENC   =   -167969.35473820
  -exchange      EXHF   =         0.00000000
  -V(xc)+E(xc)   XCENC  =      -338.69644561
  PAW double counting   =     40052.55098719   -38500.74754570
  entropy T*S    EENTRO =         0.00000000
  eigenvalues    EBANDS =     -1643.14419630
  atomic energy  EATOM  =     37592.92680875
  Solvation  Ediel_sol  =         0.00000000
  ---------------------------------------------------
  free energy    TOTEN  =      -118.56578289 eV

  energy without entropy =     -118.56578289  energy(sigma->0) =     -118.56578289


--------------------------------------------------------------------------------------------------------




--------------------------------------- Iteration      1(   9)  ---------------------------------------


    EDDIAG:  cpu time    5.2340: real time    5.2342
  RMM-DIIS:  cpu time   16.9182: real time   16.9183
    ORTHCH:  cpu time    0.9537: real time    0.9537
 BZINTS: Fermi energy:    0.236240;  407.000000 electrons
         Band energy:-0.164314E+04;  BLOECHL correction:   -0.018390
       DOS:  cpu time    0.0580: real time    0.0580
    --------------------------------------------
      LOOP:  cpu time   23.1639: real time   23.1642

 eigenvalue-minimisations  : 17585
 total energy-change (2. order) :-0.2235299E-04  (-0.2339847E-04)
 number of electron     407.0000127 magnetization 
 augmentation part      407.0000127 magnetization 

 Free energy of the ion-electron system (eV)
  ---------------------------------------------------
  alpha Z        PSCENC =       709.57635901
  Ewald energy   TEWEN  =    129978.32298796
  -Hartree energ DENC   =   -167969.35473820
  -exchange      EXHF   =         0.00000000
  -V(xc)+E(xc)   XCENC  =      -338.69644561
  PAW double counting   =     40052.55098719   -38500.74754570
  entropy T*S    EENTRO =         0.00000000
  eigenvalues    EBANDS =     -1643.14421866
  atomic energy  EATOM  =     37592.92680875
  Solvation  Ediel_sol  =         0.00000000
  ---------------------------------------------------
  free energy    TOTEN  =      -118.56580524 eV

  energy without entropy =     -118.56580524  energy(sigma->0) =     -118.56580524


--------------------------------------------------------------------------------------------------------




--------------------------------------- Iteration      1(  10)  ---------------------------------------


    EDDIAG:  cpu time    5.2390: real time    5.2393
  RMM-DIIS:  cpu time   11.8228: real time   11.8229
    ORTHCH:  cpu time    0.9526: real time    0.9526
 BZINTS: Fermi energy:    0.236240;  407.000000 electrons
         Band energy:-0.164314E+04;  BLOECHL correction:   -0.018390
       DOS:  cpu time    0.0592: real time    0.0592
    --------------------------------------------
      LOOP:  cpu time   18.0735: real time   18.0739

 eigenvalue-minimisations  : 11688
 total energy-change (2. order) :-0.2869638E-05  (-0.3221998E-05)
 number of electron     407.0000127 magnetization 
 augmentation part      407.0000127 magnetization 

 Free energy of the ion-electron system (eV)
  ---------------------------------------------------
  alpha Z        PSCENC =       709.57635901
  Ewald energy   TEWEN  =    129978.32298796
  -Hartree energ DENC   =   -167969.35473820
  -exchange      EXHF   =         0.00000000
  -V(xc)+E(xc)   XCENC  =      -338.69644561
  PAW double counting   =     40052.55098719   -38500.74754570
  entropy T*S    EENTRO =         0.00000000
  eigenvalues    EBANDS =     -1643.14422153
  atomic energy  EATOM  =     37592.92680875
  Solvation  Ediel_sol  =         0.00000000
  ---------------------------------------------------
  free energy    TOTEN  =      -118.56580811 eV

  energy without entropy =     -118.56580811  energy(sigma->0) =     -118.56580811


--------------------------------------------------------------------------------------------------------




 average (electrostatic) potential at core
  the test charge radii are     1.1249  1.1394  0.6991  0.7215
  (the norm of the test charge is              1.0000)
       1 -78.6614       2 -78.6367       3 -78.6316       4 -78.6386       5 -78.6281
       6 -78.6356       7 -78.6334       8 -78.6336       9 -78.6582      10 -78.8806
      11 -78.8525      12 -78.8806      13 -78.8541      14 -78.8509      15 -78.8713
      16 -78.8815      17 -78.8698      18 -78.8660      19 -78.8523      20 -78.9607
      21 -78.9564      22 -78.8433      23 -78.9595      24 -78.8525      25 -78.8400
      26 -78.8477      27 -78.8384      28 -78.6169      29 -78.6143      30 -78.6260
      31 -78.6130      32 -78.6439      33 -78.6286      34 -78.6410      35 -78.5877
      36 -48.7576      37 -56.9470      38 -75.7607      39 -76.8183
 
 
 
 E-fermi :   0.2362     XC(G=0):  -5.5074     alpha+bet : -5.1976

 Fermi energy:         0.2362402203

 k-point     1 :       0.0000    0.0000    0.0000
  band No.  band energies     occupation 
      1     -22.3895      2.00000
      2     -20.6192      2.00000
      3      -8.8733      2.00000
      4      -7.1500      2.00000
      5      -6.7602      2.00000
      6      -6.5280      2.00000
      7      -6.3741      2.00000
      8      -5.9656      2.00000
      9      -5.6937      2.00000
     10      -5.6088      2.00000
     11      -5.5890      2.00000
     12      -5.5883      2.00000
     13      -5.5880      2.00000
     14      -5.5855      2.00000
     15      -5.5849      2.00000
     16      -5.5700      2.00000
     17      -5.5529      2.00000
     18      -5.5506      2.00000
     19      -5.5490      2.00000
     20      -5.5342      2.00000
     21      -5.5336      2.00000
     22      -5.4630      2.00000
     23      -5.3924      2.00000
     24      -5.3820      2.00000
     25      -5.3813      2.00000
     26      -5.3808      2.00000
     27      -5.3703      2.00000
     28      -5.3697      2.00000
     29      -5.2069      2.00000
     30      -5.1922      2.00000
     31      -5.1896      2.00000
     32      -5.1769      2.00000
     33      -5.1602      2.00000
     34      -5.1577      2.00000
     35      -5.1566      2.00000
     36      -5.1524      2.00000
     37      -5.1355      2.00000
     38      -5.1333      2.00000
     39      -5.1269      2.00000
     40      -5.1268      2.00000
     41      -5.0483      2.00000
     42      -5.0314      2.00000
     43      -5.0215      2.00000
     44      -4.9796      2.00000
     45      -4.9179      2.00000
     46      -4.8765      2.00000
     47      -4.8099      2.00000
     48      -4.8082      2.00000
     49      -4.7962      2.00000
     50      -4.7931      2.00000
     51      -4.7921      2.00000
     52      -4.7737      2.00000
     53      -4.7697      2.00000
[...]
  0.000   0.000   0.000   0.000   0.000   0.000   0.000   0.000   0.000   0.000   1.000   0.000   0.000   0.000   0.000   0.000
  0.000   0.000   0.000   0.000   0.000   0.000   0.000   0.000   0.000   0.000   0.000   0.000   0.000   0.000   0.000   0.000
  0.000   0.000   0.000   0.000   0.000   0.000   0.000   0.000   0.000   0.000   0.000   0.000   0.000   0.000   0.000   0.000
  0.000   0.000   0.000   0.000   0.000   0.000   0.000   0.000   0.000   0.000   0.000   0.000   0.000   0.000   0.000   0.000
  0.000   0.000   0.000   0.000   0.000   0.000   0.000   0.000   0.000   0.000   0.000   0.000   0.000   0.000   0.000   0.000
  0.000   0.000   0.000   0.000   0.000   0.000   0.000   0.000   0.000   0.000   0.000   0.000   0.000   0.000   0.000   0.000
  0.000   0.000   0.000   0.000   0.000   0.000   0.000   0.000   0.000   0.000   0.000   0.000   0.000   0.000   0.000   0.000
  0.000   0.000   0.000   0.000   0.000   0.000   0.000   0.000   0.000   0.000   0.000   0.000   0.000   0.000   0.000   0.000


------------------------ aborting loop because EDIFF is reached ----------------------------------------





 total charge

# of ion       s       p       d       tot
------------------------------------------
    1        0.419   0.200   9.179   9.798
    2        0.417   0.203   9.177   9.796
    3        0.415   0.204   9.176   9.796
    4        0.418   0.203   9.177   9.797
    5        0.418   0.202   9.175   9.796
    6        0.417   0.203   9.177   9.797
    7        0.415   0.204   9.177   9.796
    8        0.416   0.203   9.177   9.796
    9        0.412   0.203   9.178   9.794
   10        0.407   0.268   9.165   9.840
   11        0.407   0.268   9.168   9.843
   12        0.408   0.269   9.163   9.839
   13        0.406   0.269   9.168   9.843
   14        0.404   0.270   9.168   9.841
   15        0.403   0.270   9.165   9.837
   16        0.408   0.269   9.162   9.839
   17        0.402   0.270   9.165   9.837
   18        0.402   0.271   9.164   9.837
   19        0.398   0.267   9.166   9.831
   20        0.431   0.300   9.140   9.871
   21        0.434   0.296   9.141   9.872
   22        0.394   0.276   9.165   9.835
   23        0.435   0.297   9.140   9.872
   24        0.395   0.277   9.163   9.835
   25        0.403   0.263   9.169   9.835
   26        0.400   0.266   9.167   9.833
   27        0.395   0.275   9.166   9.836
   28        0.417   0.192   9.181   9.790
   29        0.406   0.217   9.177   9.801
   30        0.420   0.207   9.177   9.803
   31        0.393   0.223   9.181   9.797
   32        0.418   0.202   9.179   9.798
   33        0.421   0.207   9.177   9.805
   34        0.416   0.205   9.177   9.799
   35        0.408   0.198   9.179   9.786
   36        0.410   0.489   4.386   5.285
   37        0.876   1.652   0.000   2.528
   38        1.598   3.510   0.000   5.108
   39        1.594   3.453   0.000   5.047
--------------------------------------------------
tot         18.854  17.519 325.313 361.686
 
    CHARGE:  cpu time    1.2194: real time    1.2195
    FORLOC:  cpu time    0.0124: real time    0.0124
    FORNL :  cpu time    5.4412: real time    5.4414
    STRESS:  cpu time   16.3423: real time   16.3425
    FORCOR:  cpu time    0.0513: real time    0.0513
    FORHAR:  cpu time    0.0197: real time    0.0198
    OFIELD:  cpu time    0.0002: real time    0.0003

  FORCE on cell =-STRESS in cart. coord.  units (eV):
  Direction    XX          YY          ZZ          XY          YZ          ZX
  --------------------------------------------------------------------------------------
  Alpha Z   709.57636   709.57636   709.57636
  Ewald  152820.18279152394.87143************   169.89349   -45.43414  -120.77532
  Hartree162850.62628162636.90213************    84.97430   -19.35817   -47.79708
  E(xc)   -2129.36741 -2130.21720 -2134.88557     0.32215     0.05583     0.03819
  Local  ************************326120.99296  -246.25370    60.38116   155.71743
  n-local  -380.71487  -376.11514  -383.94375    -1.94383     0.46163     1.35327
  augment  3260.80325  3260.48745  3269.50412     0.30569    -0.49126    -0.90100
  Kinetic  5128.56592  5148.26686  5164.65360    -7.46546     4.36299    12.38504
  Fock        0.00000     0.00000     0.00000     0.00000     0.00000     0.00000
  -------------------------------------------------------------------------------------
  Total      -7.00488    -7.14127    -0.90504    -0.16736    -0.02196     0.02053
  in kB      -6.88451    -7.01856    -0.88949    -0.16449    -0.02159     0.02018
  external pressure =       -4.93 kB  Pullay stress =        0.00 kB


 VOLUME and BASIS-vectors are now :
 -----------------------------------------------------------------------------
  energy-cutoff  :      500.00
  volume of cell :     1630.19
      direct lattice vectors                 reciprocal lattice vectors
     8.791366577  0.000000000  0.000000000     0.113747958 -0.065672414  0.000000000
     4.395683289  7.613546790  0.000000000     0.000000000  0.131344829  0.000000000
     0.000000000  0.000000000 24.355372092     0.000000000  0.000000000  0.041058703

  length of vectors
     8.791366577  8.791366577 24.355372092     0.131344829  0.131344829  0.041058703


 FORCES acting on ions
    electron-ion (+dipol)            ewald-force                    non-local-force                 convergence-correction
 -----------------------------------------------------------------------------------------------
   0.164E-01 0.253E-01 0.271E+04   -.879E-01 -.602E-01 -.271E+04   0.364E-01 0.216E-01 -.208E+01   0.272E-01 0.736E-02 -.128E+00
   0.179E+00 0.413E+00 0.271E+04   -.272E+00 -.428E+00 -.271E+04   0.592E-01 0.868E-01 -.167E+01   0.363E-01 -.570E-01 -.161E+00
   -.193E+00 0.244E+00 0.271E+04   0.360E+00 -.352E+00 -.271E+04   -.982E-01 0.129E+00 -.158E+01   -.658E-01 -.124E-01 -.153E+00
   0.492E+00 -.136E-01 0.271E+04   -.499E+00 -.541E-01 -.271E+04   0.637E-01 0.729E-03 -.166E+01   -.389E-01 0.623E-01 -.145E+00
   -.140E+00 -.478E-01 0.271E+04   0.110E+00 0.356E-01 -.271E+04   0.314E-01 0.206E-01 -.143E+01   0.129E-02 -.771E-02 -.632E-01
   -.345E+00 0.131E+00 0.271E+04   0.390E+00 -.936E-01 -.271E+04   -.105E+00 -.544E-01 -.160E+01   0.403E-01 0.148E-01 -.107E+00
   0.950E-01 -.351E+00 0.271E+04   -.117E+00 0.521E+00 -.271E+04   0.762E-01 -.131E+00 -.162E+01   -.482E-01 -.392E-01 -.167E+00
   -.832E-01 -.383E+00 0.271E+04   0.137E+00 0.407E+00 -.271E+04   -.100E+00 -.728E-01 -.159E+01   0.405E-01 0.364E-01 -.133E+00
   0.130E-01 0.420E-06 0.271E+04   -.207E-01 0.248E-01 -.271E+04   0.568E-02 -.157E-01 -.191E+01   -.362E-03 -.770E-02 -.184E+00
   0.364E+01 0.235E+01 0.962E+03   -.329E+01 -.212E+01 -.961E+03   -.344E+00 -.203E+00 -.823E+00   -.594E-02 -.150E-01 -.954E-01
   -.755E+00 0.379E+01 0.966E+03   0.786E+00 -.404E+01 -.965E+03   -.557E-01 0.158E+00 -.375E+00   0.241E-01 0.377E-01 -.838E-01
   -.294E+01 0.204E+01 0.960E+03   0.250E+01 -.181E+01 -.959E+03   0.447E+00 -.221E+00 -.745E+00   -.101E-01 0.428E-02 -.652E-01
   0.267E+01 -.242E+01 0.966E+03   -.291E+01 0.257E+01 -.966E+03   0.145E+00 -.118E+00 -.442E+00   0.561E-01 -.279E-02 -.884E-01
   -.323E+01 -.180E+01 0.965E+03   0.354E+01 0.201E+01 -.964E+03   -.214E+00 -.144E+00 -.371E+00   -.489E-01 -.474E-01 -.127E+00
   0.639E+00 0.284E+00 0.961E+03   -.627E+00 -.373E+00 -.960E+03   -.154E-01 0.521E-01 -.779E+00   0.180E-03 0.196E-01 -.827E-01
   0.134E+00 -.375E+01 0.960E+03   -.131E+00 0.321E+01 -.959E+03   0.666E-02 0.530E+00 -.740E+00   -.512E-02 0.116E-01 -.702E-01
   0.526E+00 0.151E+00 0.961E+03   -.611E+00 -.117E+00 -.960E+03   0.498E-01 -.374E-01 -.752E+00   0.187E-01 0.432E-02 -.101E+00
   -.703E+00 -.631E+00 0.961E+03   0.741E+00 0.674E+00 -.960E+03   -.202E-01 -.341E-01 -.682E+00   -.416E-02 -.185E-02 -.632E-01
   0.594E+01 0.465E+00 -.810E+03   -.584E+01 -.566E+00 0.809E+03   -.497E-01 0.110E+00 0.882E+00   -.297E-01 -.232E-03 0.994E-01
   0.387E+01 0.450E+01 -.778E+03   -.278E+01 -.389E+01 0.779E+03   -.117E+01 -.621E+00 -.102E+01   0.396E-01 0.230E-02 0.199E-01
   -.986E+01 0.445E+01 -.792E+03   0.860E+01 -.385E+01 0.793E+03   0.131E+01 -.634E+00 -.987E+00   -.170E-01 -.148E-01 0.487E-01
   0.536E+01 -.743E+01 -.801E+03   -.554E+01 0.755E+01 0.800E+03   0.262E+00 -.185E+00 0.494E+00   -.161E-01 0.302E-01 0.365E-01
   -.280E+01 -.111E+02 -.790E+03   0.270E+01 0.967E+01 0.791E+03   0.103E+00 0.152E+01 -.105E+01   -.251E-02 -.133E-01 0.598E-01
   -.286E+01 -.253E+01 -.806E+03   0.278E+01 0.255E+01 0.805E+03   0.737E-02 -.399E-01 0.554E+00   0.332E-01 0.109E-02 0.671E-01
   0.986E+00 -.155E+00 -.817E+03   -.944E+00 0.149E+00 0.816E+03   -.450E-01 -.112E-01 0.912E+00   -.906E-02 0.148E-01 0.862E-01
   0.181E+01 0.487E+01 -.812E+03   -.181E+01 -.478E+01 0.811E+03   0.437E-01 -.651E-01 0.844E+00   -.358E-01 -.169E-01 0.542E-01
   -.276E+01 0.665E+01 -.804E+03   0.275E+01 -.690E+01 0.804E+03   -.215E-01 0.322E+00 0.569E+00   0.406E-01 -.869E-02 0.292E-01
   0.215E+02 0.149E+02 -.256E+04   -.215E+02 -.150E+02 0.256E+04   0.138E-01 0.754E-01 0.203E+01   -.855E-01 0.444E-02 0.164E+00
   0.214E+02 0.107E+03 -.249E+04   -.205E+02 -.107E+03 0.249E+04   -.960E+00 -.322E+00 0.261E+01   0.166E-01 -.114E+00 0.148E+00
   -.438E+02 0.571E+02 -.254E+04   0.432E+02 -.569E+02 0.254E+04   0.623E+00 -.518E+00 0.222E+01   0.555E-01 0.428E-01 0.204E+00
   0.115E+03 -.249E+02 -.246E+04   -.115E+03 0.254E+02 0.245E+04   -.584E+00 -.499E+00 0.315E+01   -.175E+00 0.832E-01 0.143E+00
   -.604E+02 0.298E+01 -.254E+04   0.604E+02 -.279E+01 0.253E+04   0.336E+00 -.136E+00 0.280E+01   0.434E-01 -.821E-01 0.172E+00
   0.233E+02 -.799E+02 -.253E+04   -.232E+02 0.794E+02 0.253E+04   -.312E+00 0.790E+00 0.219E+01   0.391E-01 0.142E-02 0.223E+00
   -.305E+02 -.570E+02 -.254E+04   0.306E+02 0.569E+02 0.254E+04   0.940E-01 0.384E+00 0.266E+01   -.636E-01 0.286E-01 0.183E+00
   0.449E+01 -.580E+01 -.257E+04   -.458E+01 0.582E+01 0.257E+04   0.423E-01 0.264E-01 0.199E+01   0.266E-01 -.264E-01 0.189E+00
   -.218E+02 -.645E+01 -.113E+04   0.210E+02 0.605E+01 0.113E+04   0.681E+00 0.298E+00 0.805E+00   0.491E-01 0.252E-01 0.141E+00
   0.105E+02 0.125E+02 -.986E+03   -.143E+02 -.144E+02 0.979E+03   0.360E+01 0.173E+01 0.698E+01   0.157E+00 0.825E-01 0.344E-01
   0.166E+03 0.587E+02 -.174E+04   -.202E+03 -.706E+02 0.178E+04   0.352E+02 0.119E+02 -.388E+02   0.740E-01 0.382E-01 0.302E-01
   -.205E+03 -.772E+02 -.168E+04   0.245E+03 0.927E+02 0.170E+04   -.399E+02 -.156E+02 -.173E+02   -.639E-01 -.125E-01 -.121E-01
 -----------------------------------------------------------------------------------------------
   0.621E+00 0.144E+01 0.482E+02   -.568E-13 0.270E-12 -.591E-11   -.717E+00 -.151E+01 -.484E+02   0.933E-01 0.731E-01 0.103E+00
 
 
 POSITION                                       TOTAL-FORCE (eV/Angst)
 -----------------------------------------------------------------------------------
      0.00000      0.00000      5.28219        -0.007914     -0.006143     -0.041458
      2.93046      0.00000      5.28219         0.002586      0.013661      0.026530
      5.86091      0.00000      5.28219         0.003797      0.007505      0.038586
      1.46523      2.53785      5.28219         0.017122     -0.004954      0.023023
      4.39568      2.53785      5.28219         0.002454      0.000494     -0.007086
      7.32614      2.53785      5.28219        -0.019710     -0.002764      0.016438
      2.93046      5.07570      5.28219         0.006325     -0.000597      0.033626
      5.86091      5.07570      5.28219        -0.005268     -0.012061      0.023375
      8.79137      5.07570      5.28219        -0.002362      0.001131      0.012232
      1.46523      0.84595      7.67490         0.006552      0.007400     -0.022834
      4.39568      0.84595      7.67490        -0.000198     -0.052839     -0.065027
      7.32614      0.84595      7.67490        -0.000704      0.007668     -0.009789
      2.93046      3.38380      7.67490        -0.041784      0.025985     -0.066224
      5.86091      3.38380      7.67490         0.042026      0.024110     -0.042840
      8.79137      3.38380      7.67490        -0.003725     -0.018359      0.001644
      4.39568      5.92165      7.67490         0.005495     -0.005535     -0.008782
      7.32614      5.92165      7.67490        -0.016395      0.000732      0.010079
     10.25659      5.92165      7.67490         0.013792      0.007110      0.016252
      8.79137      1.69374     10.05841         0.016516      0.008764      0.077909
      2.93927      1.69699     10.03909        -0.046541     -0.010201     -0.066811
      5.85210      1.69699     10.03909         0.027494     -0.042469     -0.091098
     10.25385      4.23133     10.05420         0.060543     -0.032424      0.039408
      4.39568      4.21957     10.03909         0.000510      0.039514     -0.068262
      7.32888      4.23133     10.05420        -0.038719     -0.021122      0.042692
     11.72023      6.76668     10.05841        -0.011183     -0.002813      0.025391
      5.86251      6.76668     10.05841         0.009395      0.006731      0.061288
      8.79137      6.76443     10.05420         0.007027      0.060866      0.026711
      0.00000      0.00000     12.42643        -0.040056     -0.042272     -0.013677
      2.96234      0.05459     12.44639        -0.026020     -0.230239     -0.174014
      5.82903      0.05459     12.44639         0.128766     -0.236851     -0.202451
      1.52844      2.53816     12.44639        -0.309666      0.088452     -0.193625
      7.26292      2.53816     12.44639         0.317816     -0.025927     -0.215203
      2.96179      5.02079     12.44639        -0.134602      0.245287     -0.218981
      5.82958      5.02079     12.44639         0.124525      0.267496     -0.198083
      8.79137      5.07570     12.42906        -0.024968      0.017765      0.006634
      4.39568      2.53785     12.18689        -0.066082     -0.071613      1.293350
      3.63113      2.25537     13.98979        -0.025358     -0.016703     -0.006462
      2.81536      1.98587     14.86513         0.001736      0.001433     -0.006027
      4.86253      2.72964     14.05013         0.026776      0.003780     -0.056434
 -----------------------------------------------------------------------------------
    total drift:                               -0.002247      0.010000     -0.036169


--------------------------------------------------------------------------------------------------------



  FREE ENERGIE OF THE ION-ELECTRON SYSTEM (eV)
  ---------------------------------------------------
  free  energy   TOTEN  =      -118.56580811 eV

  energy  without entropy=     -118.56580811  energy(sigma->0) =     -118.56580811
 


--------------------------------------------------------------------------------------------------------


    POTLOK:  cpu time    0.0491: real time    0.0491


--------------------------------------------------------------------------------------------------------


 stress matrix after NEB project (eV)
     -7.00488     -0.16736      0.02053
     -0.16736     -7.14127     -0.02196
      0.02053     -0.02196     -0.90504
  FORCES: max atom, RMS     0.062578    0.011233
  FORCE total and by dimension    0.070151    0.056434
  Stress total and by dimension   10.047040    7.141268
     LOOP+:  cpu time  289.0574: real time  289.0695
 -----------------------------------------------------------------------------
|                                                                             |
|           W    W    AA    RRRRR   N    N  II  N    N   GGGG   !!!           |
|           W    W   A  A   R    R  NN   N  II  NN   N  G    G  !!!           |
|           W    W  A    A  R    R  N N  N  II  N N  N  G       !!!           |
|           W WW W  AAAAAA  RRRRR   N  N N  II  N  N N  G  GGG   !            |
|           WW  WW  A    A  R   R   N   NN  II  N   NN  G    G                |
|           W    W  A    A  R    R  N    N  II  N    N   GGGG   !!!           |
|                                                                             |
|     Tetrahedron method does not include variations of the Fermi             |
|     occupations, so forces and stress will be inaccurate. We suggest        |
|     using a different smearing scheme ISMEAR = 1 or 2 for metals in         |
|     relaxations.                                                            |
|                                                                             |
 -----------------------------------------------------------------------------

    4ORBIT:  cpu time    0.0000: real time    0.0000



 total charge

# of ion       s       p       d       tot
------------------------------------------
    1        0.419   0.200   9.179   9.798
    2        0.417   0.203   9.177   9.796
    3        0.415   0.204   9.176   9.796
    4        0.418   0.203   9.177   9.797
    5        0.418   0.202   9.175   9.796
    6        0.417   0.203   9.177   9.797
    7        0.415   0.204   9.177   9.796
    8        0.416   0.203   9.177   9.796
    9        0.412   0.203   9.178   9.794
   10        0.407   0.268   9.165   9.840
   11        0.407   0.268   9.168   9.843
   12        0.408   0.269   9.163   9.839
   13        0.406   0.269   9.168   9.843
   14        0.404   0.270   9.168   9.841
   15        0.403   0.270   9.165   9.837
   16        0.408   0.269   9.162   9.839
   17        0.402   0.270   9.165   9.837
   18        0.402   0.271   9.164   9.837
   19        0.398   0.267   9.166   9.831
   20        0.431   0.300   9.140   9.871
   21        0.434   0.296   9.141   9.872
   22        0.394   0.276   9.165   9.835
   23        0.435   0.297   9.140   9.872
   24        0.395   0.277   9.163   9.835
   25        0.403   0.263   9.169   9.835
   26        0.400   0.266   9.167   9.833
   27        0.395   0.275   9.166   9.836
   28        0.417   0.192   9.181   9.790
   29        0.406   0.217   9.177   9.801
   30        0.420   0.207   9.177   9.803
   31        0.393   0.223   9.181   9.797
   32        0.418   0.202   9.179   9.798
   33        0.421   0.207   9.177   9.805
   34        0.416   0.205   9.177   9.799
   35        0.408   0.198   9.179   9.786
   36        0.410   0.489   4.386   5.285
   37        0.876   1.652   0.000   2.528
   38        1.598   3.510   0.000   5.108
   39        1.594   3.453   0.000   5.047
--------------------------------------------------
tot         18.854  17.519 325.313 361.686
 
 BZINTS: Fermi energy:    0.236240;  407.000000 electrons
         Band energy:-0.164314E+04;  BLOECHL correction:   -0.018390

 total amount of memory used by VASP MPI-rank0   277613. kBytes
=======================================================================

   base      :      30000. kBytes
   nonlr-proj:      15296. kBytes
   fftplans  :       4808. kBytes
   grid      :      20723. kBytes
   one-center:        606. kBytes
   wavefun   :     206180. kBytes
 
  
  
 General timing and accounting informations for this job:
 ========================================================
  
                  Total CPU time used (sec):      312.141
                            User time (sec):      302.160
                          System time (sec):        9.981
                         Elapsed time (sec):      312.535
  
                   Maximum memory used (kb):      576616.
                   Average memory used (kb):          N/A
  
                          Minor page faults:       126817
                          Major page faults:            0
                 Voluntary context switches:         8234
