PROCAR new format
# of k-points:   10         # of bands:  252         # of ions:   37

 k-point     1 :    0.00000000 0.00000000 0.00000000     weight = 0.01562500

band     1 # energy   -8.85801096 # occ.  2.00000000
 
ion      s      p      d    tot
    1  0.006  0.001  0.000  0.007
    2  0.006  0.001  0.000  0.007
    3  0.006  0.001  0.000  0.007
    4  0.006  0.001  0.000  0.007
    5  0.006  0.001  0.000  0.007
    6  0.006  0.001  0.000  0.007
    7  0.006  0.001  0.000  0.007
    8  0.006  0.001  0.000  0.007
    9  0.006  0.001  0.000  0.007
   10  0.024  0.000  0.000  0.024
   11  0.024  0.000  0.000  0.024
   12  0.024  0.000  0.000  0.024
   13  0.024  0.000  0.000  0.024
   14  0.024  0.000  0.000  0.024
   15  0.023  0.000  0.000  0.023
   16  0.024  0.000  0.000  0.024
   17  0.023  0.000  0.000  0.023
   18  0.023  0.000  0.000  0.023
   19  0.025  0.000  0.000  0.025
   20  0.027  0.000  0.000  0.027
   21  0.027  0.000  0.000  0.027
   22  0.024  0.000  0.000  0.024
   23  0.027  0.000  0.000  0.027
   24  0.024  0.000  0.000  0.024
   25  0.025  0.000  0.000  0.025
   26  0.025  0.000  0.000  0.025
   27  0.024  0.000  0.000  0.024
   28  0.007  0.001  0.000  0.008
   29  0.008  0.001  0.000  0.008
   30  0.008  0.001  0.000  0.008
   31  0.008  0.001  0.000  0.008
   32  0.008  0.001  0.000  0.008
   33  0.008  0.001  0.000  0.008
   34  0.008  0.001  0.000  0.008
   35  0.007  0.001  0.000  0.008
   36  0.018  0.002  0.000  0.020
   37  0.000  0.000  0.000  0.000
tot    0.570  0.017  0.001  0.587
 
band     2 # energy   -7.61288431 # occ.  2.00000000
 
ion      s      p      d    tot
    1  0.017  0.001  0.000  0.019
    2  0.017  0.001  0.000  0.019
    3  0.017  0.001  0.000  0.019
    4  0.017  0.001  0.000  0.019
    5  0.017  0.001  0.000  0.019
    6  0.017  0.001  0.000  0.019
    7  0.017  0.001  0.000  0.019
    8  0.017  0.001  0.000  0.019
    9  0.017  0.001  0.000  0.018
   10  0.012  0.002  0.001  0.014
   11  0.011  0.002  0.001  0.014
   12  0.012  0.002  0.001  0.014
   13  0.011  0.002  0.001  0.014
   14  0.011  0.002  0.001  0.014
   15  0.012  0.002  0.001  0.014
   16  0.012  0.002  0.001  0.014
   17  0.012  0.002  0.001  0.014
   18  0.012  0.002  0.001  0.014
   19  0.007  0.002  0.000  0.010
   20  0.008  0.003  0.000  0.011
   21  0.008  0.003  0.000  0.011
   22  0.008  0.002  0.000  0.010
   23  0.008  0.003  0.000  0.011
   24  0.008  0.002  0.000  0.010
   25  0.007  0.002  0.000  0.010
   26  0.007  0.002  0.000  0.010
   27  0.008  0.002  0.000  0.010
   28  0.018  0.001  0.001  0.019
   29  0.019  0.001  0.001  0.021
   30  0.019  0.001  0.001  0.021
   31  0.019  0.001  0.001  0.021
   32  0.019  0.001  0.001  0.021
   33  0.019  0.001  0.001  0.021
   34  0.019  0.001  0.001  0.021
   35  0.017  0.001  0.001  0.019
   36  0.043  0.001  0.001  0.045
   37  0.001  0.000  0.000  0.001
tot    0.525  0.053  0.020  0.598
 
band     3 # energy   -6.01711090 # occ.  2.00000000
 
ion      s      p      d    tot
    1  0.015  0.000  0.005  0.021
    2  0.017  0.000  0.005  0.022
    3  0.017  0.000  0.005  0.022
    4  0.017  0.000  0.005  0.022
    5  0.015  0.000  0.005  0.021
    6  0.017  0.000  0.005  0.022
    7  0.017  0.000  0.005  0.022
    8  0.017  0.000  0.005  0.022
    9  0.019  0.000  0.005  0.024
   10  0.004  0.004  0.001  0.009
   11  0.003  0.004  0.001  0.008
   12  0.004  0.004  0.001  0.009
   13  0.003  0.004  0.001  0.008
   14  0.003  0.004  0.001  0.008
   15  0.001  0.004  0.002  0.006
   16  0.004  0.004  0.001  0.009
   17  0.001  0.004  0.002  0.006
   18  0.001  0.004  0.002  0.006
   19  0.007  0.003  0.004  0.014
   20  0.008  0.003  0.005  0.017
   21  0.008  0.003  0.005  0.017
   22  0.004  0.003  0.004  0.010
   23  0.008  0.003  0.005  0.017
   24  0.004  0.003  0.004  0.010
   25  0.007  0.003  0.004  0.014
   26  0.007  0.003  0.004  0.014
   27  0.004  0.003  0.004  0.010
   28  0.013  0.000  0.007  0.021
   29  0.018  0.000  0.009  0.027
   30  0.018  0.000  0.009  0.027
   31  0.018  0.000  0.009  0.027
   32  0.018  0.000  0.009  0.027
   33  0.018  0.000  0.009  0.027
   34  0.018  0.000  0.009  0.027
   35  0.017  0.000  0.007  0.024
   36  0.033  0.001  0.016  0.049
   37  0.001  0.000  0.000  0.001
tot    0.404  0.062  0.181  0.647
 
band     4 # energy   -5.88407272 # occ.  2.00000000
 
ion      s      p      d    tot
    1  0.000  0.003  0.005  0.007
    2  0.008  0.002  0.002  0.012
    3  0.005  0.001  0.002  0.008
    4  0.008  0.002  0.002  0.012
    5  0.000  0.002  0.003  0.004
    6  0.004  0.001  0.002  0.008
    7  0.001  0.001  0.002  0.003
    8  0.000  0.001  0.002  0.003
    9  0.000  0.000  0.002  0.002
   10  0.053  0.004  0.005  0.062
   11  0.001  0.012  0.003  0.016
   12  0.029  0.003  0.008  0.041
   13  0.009  0.006  0.004  0.020
   14  0.017  0.001  0.006  0.024
   15  0.001  0.003  0.009  0.013
   16  0.003  0.003  0.013  0.019
   17  0.005  0.003  0.006  0.015
   18  0.010  0.003  0.003  0.016
   19  0.002  0.012  0.004  0.018
   20  0.058  0.004  0.006  0.068
   21  0.032  0.003  0.012  0.047
   22  0.001  0.005  0.005  0.011
   23  0.004  0.001  0.019  0.023
   24  0.002  0.003  0.004  0.009
   25  0.034  0.001  0.007  0.042
   26  0.019  0.006  0.005  0.031
   27  0.000  0.007  0.007  0.014
   28  0.000  0.003  0.004  0.008
   29  0.012  0.003  0.003  0.019
   30  0.010  0.002  0.003  0.015
   31  0.008  0.003  0.004  0.015
   32  0.003  0.002  0.004  0.008
   33  0.003  0.001  0.003  0.008
   34  0.000  0.001  0.004  0.004
   35  0.000  0.000  0.003  0.003
   36  0.000  0.006  0.016  0.021
   37  0.000  0.000  0.000  0.000
tot    0.343  0.114  0.192  0.649
 
band     5 # energy   -5.88399808 # occ.  2.00000000
 
ion      s      p      d    tot
    1  0.000  0.003  0.005  0.007
    2  0.000  0.001  0.002  0.003
    3  0.004  0.001  0.002  0.007
    4  0.001  0.001  0.002  0.003
    5  0.000  0.002  0.003  0.004
    6  0.004  0.001  0.002  0.008
    7  0.008  0.002  0.002  0.012
    8  0.008  0.002  0.002  0.012
    9  0.000  0.000  0.002  0.003
   10  0.004  0.003  0.012  0.020
   11  0.017  0.001  0.006  0.024
   12  0.028  0.003  0.009  0.040
   13  0.009  0.007  0.004  0.020
   14  0.001  0.012  0.003  0.016
   15  0.010  0.003  0.003  0.016
   16  0.054  0.004  0.004  0.062
   17  0.005  0.003  0.006  0.015
   18  0.001  0.003  0.009  0.013
   19  0.035  0.001  0.007  0.043
   20  0.005  0.001  0.019  0.024
   21  0.030  0.002  0.013  0.045
   22  0.001  0.005  0.005  0.011
   23  0.059  0.004  0.006  0.069
   24  0.000  0.007  0.007  0.014
   25  0.003  0.012  0.004  0.018
   26  0.018  0.007  0.005  0.030
   27  0.002  0.002  0.004  0.008
   28  0.000  0.003  0.004  0.008
   29  0.000  0.001  0.004  0.004
   30  0.002  0.001  0.004  0.008
   31  0.004  0.001  0.003  0.008
   32  0.010  0.002  0.003  0.015
   33  0.009  0.003  0.004  0.015
   34  0.012  0.003  0.003  0.019
   35  0.000  0.000  0.003  0.003
   36  0.000  0.006  0.016  0.021
   37  0.000  0.000  0.000  0.000
tot    0.343  0.114  0.192  0.649
 
band     6 # energy   -5.87145079 # occ.  2.00000000
 
ion      s      p      d    tot
    1  0.003  0.001  0.000  0.004
    2  0.000  0.001  0.003  0.005
    3  0.000  0.001  0.003  0.005
    4  0.000  0.001  0.003  0.005
    5  0.019  0.003  0.001  0.022
    6  0.000  0.001  0.003  0.005
    7  0.000  0.001  0.003  0.005
    8  0.000  0.001  0.003  0.005
    9  0.004  0.001  0.001  0.006
   10  0.004  0.005  0.006  0.015
   11  0.027  0.007  0.003  0.038
   12  0.004  0.005  0.006  0.015
   13  0.027  0.007  0.003  0.038
   14  0.027  0.007  0.003  0.038
   15  0.012  0.000  0.010  0.022
   16  0.004  0.005  0.006  0.015
   17  0.012  0.000  0.010  0.022
   18  0.012  0.000  0.010  0.022
   19  0.017  0.000  0.011  0.029
   20  0.030  0.010  0.003  0.043
   21  0.030  0.010  0.003  0.043
   22  0.003  0.005  0.006  0.015
   23  0.030  0.010  0.003  0.043
   24  0.004  0.005  0.006  0.015
   25  0.017  0.000  0.011  0.029
   26  0.017  0.000  0.012  0.029
   27  0.004  0.005  0.006  0.015
   28  0.009  0.001  0.001  0.011
   29  0.000  0.002  0.005  0.007
   30  0.000  0.002  0.005  0.007
   31  0.000  0.002  0.005  0.007
   32  0.000  0.002  0.005  0.007
   33  0.000  0.002  0.005  0.007
   34  0.000  0.002  0.005  0.007
   35  0.004  0.001  0.000  0.005
   36  0.049  0.005  0.006  0.061
   37  0.003  0.000  0.000  0.004
tot    0.372  0.118  0.177  0.667
 
band     7 # energy   -5.83391862 # occ.  2.00000000
 
ion      s      p      d    tot
    1  0.000  0.000  0.002  0.002
    2  0.009  0.002  0.002  0.014
    3  0.003  0.001  0.002  0.006
    4  0.009  0.002  0.002  0.014
    5  0.000  0.001  0.004  0.006
    6  0.002  0.001  0.002  0.005
    7  0.003  0.001  0.002  0.006
    8  0.002  0.001  0.002  0.005
    9  0.000  0.003  0.004  0.007
   10  0.000  0.010  0.004  0.014
   11  0.032  0.003  0.005  0.040
   12  0.000  0.003  0.004  0.008
   13  0.030  0.003  0.006  0.039
   14  0.000  0.000  0.015  0.015
   15  0.035  0.003  0.006  0.044
   16  0.000  0.003  0.005  0.008
   17  0.033  0.004  0.006  0.043
   18  0.000  0.009  0.006  0.016
   19  0.022  0.004  0.005  0.030
   20  0.000  0.014  0.001  0.015
   21  0.005  0.004  0.005  0.015
   22  0.045  0.004  0.006  0.055
   23  0.006  0.004  0.005  0.015
   24  0.000  0.006  0.011  0.017
   25  0.000  0.001  0.015  0.017
   26  0.020  0.003  0.006  0.029
   27  0.047  0.004  0.006  0.057
   28  0.000  0.001  0.005  0.006
   29  0.013  0.003  0.003  0.019
   30  0.005  0.002  0.004  0.011
   31  0.013  0.003  0.003  0.019
   32  0.002  0.001  0.004  0.007
   33  0.004  0.002  0.004  0.010
   34  0.002  0.001  0.004  0.006
   35  0.000  0.004  0.006  0.010
   36  0.000  0.003  0.009  0.012
   37  0.000  0.000  0.000  0.000
tot    0.342  0.117  0.182  0.640
 
band     8 # energy   -5.83386251 # occ.  2.00000000
 
ion      s      p      d    tot
    1  0.000  0.000  0.002  0.002
    2  0.000  0.001  0.002  0.003
    3  0.006  0.002  0.002  0.010
    4  0.000  0.001  0.002  0.003
    5  0.000  0.001  0.004  0.006
    6  0.007  0.002  0.002  0.011
    7  0.006  0.002  0.002  0.011
    8  0.008  0.002  0.002  0.012
    9  0.000  0.003  0.004  0.007
   10  0.000  0.001  0.005  0.006
   11  0.009  0.001  0.012  0.023
   12  0.000  0.007  0.004  0.012
   13  0.011  0.001  0.012  0.024
   14  0.041  0.005  0.002  0.048
   15  0.010  0.007  0.006  0.024
   16  0.000  0.008  0.004  0.012
   17  0.012  0.007  0.006  0.026
   18  0.045  0.002  0.006  0.053
   19  0.006  0.002  0.012  0.021
   20  0.007  0.000  0.007  0.015
   21  0.002  0.011  0.002  0.015
   22  0.017  0.005  0.009  0.031
   23  0.002  0.011  0.002  0.015
   24  0.061  0.003  0.005  0.069
   25  0.028  0.004  0.002  0.034
   26  0.008  0.002  0.012  0.021
   27  0.014  0.006  0.009  0.029
   28  0.000  0.001  0.005  0.006
   29  0.000  0.001  0.004  0.005
   30  0.008  0.002  0.003  0.013
   31  0.000  0.001  0.004  0.005
   32  0.011  0.003  0.003  0.017
   33  0.009  0.002  0.003  0.014
   34  0.011  0.003  0.003  0.018
   35  0.000  0.004  0.006  0.010
   36  0.000  0.003  0.009  0.012
   37  0.000  0.000  0.000  0.000
tot    0.342  0.117  0.182  0.640
 
band     9 # energy   -5.82163395 # occ.  2.00000000
 
ion      s      p      d    tot
    1  0.019  0.003  0.001  0.022
    2  0.000  0.002  0.004  0.006
    3  0.000  0.002  0.004  0.006
    4  0.000  0.002  0.004  0.006
    5  0.000  0.000  0.000  0.000
    6  0.000  0.002  0.004  0.006
    7  0.000  0.002  0.004  0.006
    8  0.000  0.002  0.004  0.006
    9  0.011  0.002  0.001  0.014
   10  0.025  0.004  0.008  0.037
   11  0.002  0.001  0.010  0.013
   12  0.025  0.004  0.008  0.037
   13  0.002  0.001  0.010  0.013
   14  0.002  0.001  0.010  0.013
   15  0.019  0.009  0.002  0.030
   16  0.025  0.004  0.008  0.037
   17  0.019  0.009  0.002  0.030
   18  0.019  0.009  0.002  0.030
   19  0.015  0.009  0.003  0.026
   20  0.001  0.001  0.014  0.016
   21  0.001  0.001  0.014  0.016
   22  0.031  0.004  0.006  0.041
   23  0.001  0.001  0.014  0.016
   24  0.031  0.004  0.006  0.041
   25  0.015  0.009  0.003  0.026
   26  0.015  0.009  0.003  0.026
   27  0.031  0.004  0.006  0.041
   28  0.016  0.002  0.000  0.018
   29  0.000  0.002  0.005  0.007
   30  0.000  0.002  0.005  0.007
   31  0.000  0.002  0.005  0.007
   32  0.000  0.002  0.005  0.007
   33  0.000  0.002  0.005  0.007
   34  0.000  0.002  0.005  0.007
   35  0.016  0.003  0.001  0.020
   36  0.002  0.000  0.000  0.002
   37  0.000  0.000  0.000  0.000
tot    0.343  0.112  0.186  0.641
 
band    10 # energy   -5.15295343 # occ.  2.00000000
 
ion      s      p      d    tot
    1  0.000  0.003  0.009  0.012
    2  0.019  0.004  0.005  0.027
    3  0.000  0.001  0.004  0.006
    4  0.014  0.003  0.004  0.021
    5  0.000  0.000  0.009  0.009
    6  0.007  0.002  0.005  0.014
    7  0.003  0.002  0.004  0.009
    8  0.014  0.003  0.005  0.022
    9  0.000  0.005  0.008  0.013
   10  0.000  0.005  0.013  0.018
   11  0.003  0.002  0.010  0.016
   12  0.007  0.001  0.007  0.015
   13  0.006  0.002  0.007  0.015
   14  0.000  0.002  0.014  0.017
   15  0.015  0.003  0.011  0.029
   16  0.005  0.003  0.010  0.017
   17  0.025  0.004  0.005  0.035
   18  0.001  0.001  0.019  0.021
   19  0.005  0.003  0.010  0.018
   20  0.000  0.002  0.021  0.024
   21  0.000  0.001  0.012  0.013
   22  0.008  0.004  0.005  0.016
   23  0.000  0.001  0.016  0.017
   24  0.000  0.001  0.027  0.029
   25  0.000  0.000  0.010  0.011
   26  0.008  0.006  0.009  0.022
   27  0.005  0.003  0.014  0.022
   28  0.000  0.004  0.008  0.012
   29  0.027  0.003  0.011  0.041
   30  0.000  0.002  0.011  0.013
   31  0.019  0.003  0.011  0.033
   32  0.012  0.002  0.011  0.025
   33  0.003  0.002  0.010  0.016
   34  0.023  0.002  0.011  0.036
   35  0.000  0.006  0.009  0.014
   36  0.000  0.001  0.035  0.036
   37  0.000  0.000  0.000  0.000
tot    0.230  0.090  0.391  0.711
 
band    11 # energy   -5.15291367 # occ.  2.00000000
 
ion      s      p      d    tot
    1  0.000  0.003  0.009  0.012
    2  0.000  0.001  0.004  0.006
    3  0.019  0.004  0.005  0.027
    4  0.005  0.002  0.005  0.012
    5  0.000  0.000  0.009  0.009
    6  0.012  0.003  0.004  0.019
    7  0.016  0.003  0.005  0.024
    8  0.004  0.002  0.004  0.011
    9  0.000  0.005  0.008  0.013
   10  0.008  0.001  0.007  0.015
   11  0.003  0.002  0.011  0.016
   12  0.001  0.005  0.013  0.018
   13  0.001  0.002  0.014  0.017
   14  0.006  0.002  0.007  0.015
   15  0.013  0.002  0.013  0.027
   16  0.004  0.003  0.010  0.017
   17  0.003  0.001  0.018  0.022
   18  0.027  0.004  0.005  0.035
   19  0.004  0.003  0.010  0.016
   20  0.000  0.001  0.012  0.012
   21  0.000  0.002  0.021  0.023
   22  0.001  0.001  0.026  0.028
   23  0.000  0.002  0.017  0.018
   24  0.008  0.004  0.003  0.016
   25  0.008  0.006  0.009  0.023
   26  0.001  0.001  0.010  0.011
   27  0.004  0.002  0.017  0.023
   28  0.000  0.004  0.008  0.012
   29  0.001  0.002  0.011  0.014
   30  0.028  0.003  0.011  0.042
   31  0.009  0.002  0.011  0.022
   32  0.016  0.003  0.011  0.030
   33  0.025  0.002  0.011  0.038
   34  0.005  0.003  0.010  0.018
   35  0.000  0.006  0.009  0.014
   36  0.000  0.001  0.035  0.036
   37  0.000  0.000  0.000  0.000
tot    0.230  0.090  0.391  0.711
 
band    12 # energy   -5.13794425 # occ.  2.00000000
 
ion      s      p      d    tot
    1  0.005  0.001  0.011  0.016
    2  0.006  0.001  0.010  0.017
    3  0.006  0.001  0.010  0.017
    4  0.006  0.001  0.010  0.017
    5  0.002  0.001  0.010  0.013
    6  0.006  0.001  0.010  0.017
    7  0.006  0.001  0.010  0.017
    8  0.006  0.001  0.010  0.017
    9  0.015  0.000  0.008  0.023
   10  0.009  0.000  0.025  0.034
   11  0.010  0.000  0.022  0.033
   12  0.009  0.000  0.025  0.035
   13  0.010  0.000  0.022  0.033
   14  0.010  0.000  0.022  0.033
   15  0.003  0.000  0.022  0.025
   16  0.009  0.000  0.025  0.035
   17  0.003  0.000  0.022  0.025
   18  0.003  0.000  0.022  0.025
   19  0.005  0.000  0.018  0.024
   20  0.008  0.001  0.030  0.039
   21  0.008  0.001  0.030  0.039
   22  0.003  0.000  0.017  0.020
   23  0.008  0.001  0.030  0.039
   24  0.003  0.000  0.017  0.020
   25  0.005  0.000  0.018  0.024
   26  0.005  0.000  0.018  0.023
   27  0.003  0.000  0.017  0.020
   28  0.001  0.001  0.006  0.007
   29  0.003  0.000  0.008  0.011
   30  0.003  0.000  0.008  0.011
   31  0.003  0.000  0.008  0.011
   32  0.003  0.000  0.008  0.011
   33  0.003  0.000  0.008  0.011
   34  0.003  0.000  0.008  0.011
   35  0.006  0.000  0.005  0.011
   36  0.001  0.002  0.016  0.020
   37  0.000  0.000  0.000  0.000
tot    0.203  0.014  0.566  0.784
 
band    13 # energy   -5.12473205 # occ.  2.00000000
 
ion      s      p      d    tot
    1  0.012  0.002  0.001  0.015
    2  0.000  0.003  0.010  0.013
    3  0.000  0.003  0.010  0.013
    4  0.000  0.003  0.010  0.013
    5  0.044  0.004  0.000  0.048
    6  0.000  0.003  0.010  0.013
    7  0.000  0.003  0.010  0.013
    8  0.000  0.003  0.010  0.013
    9  0.004  0.001  0.001  0.006
   10  0.003  0.002  0.015  0.021
   11  0.010  0.005  0.009  0.025
   12  0.003  0.002  0.015  0.021
   13  0.010  0.005  0.009  0.025
   14  0.011  0.005  0.009  0.025
   15  0.007  0.001  0.012  0.019
   16  0.003  0.002  0.015  0.021
   17  0.007  0.001  0.012  0.019
   18  0.007  0.001  0.012  0.019
   19  0.007  0.002  0.006  0.016
   20  0.005  0.004  0.026  0.035
   21  0.005  0.004  0.026  0.035
   22  0.000  0.000  0.014  0.015
   23  0.005  0.004  0.026  0.035
   24  0.000  0.000  0.014  0.015
   25  0.007  0.002  0.006  0.016
   26  0.007  0.002  0.006  0.016
   27  0.000  0.000  0.014  0.015
   28  0.017  0.002  0.000  0.019
   29  0.000  0.003  0.011  0.014
   30  0.000  0.003  0.011  0.014
   31  0.000  0.003  0.011  0.014
   32  0.000  0.003  0.011  0.014
   33  0.000  0.003  0.011  0.014
   34  0.000  0.003  0.011  0.014
   35  0.005  0.001  0.000  0.006
   36  0.085  0.004  0.005  0.093
   37  0.008  0.000  0.000  0.008
tot    0.273  0.092  0.383  0.748
 
band    14 # energy   -5.09266421 # occ.  2.00000000
 
ion      s      p      d    tot
    1  0.000  0.003  0.009  0.012
    2  0.020  0.004  0.005  0.030
    3  0.001  0.002  0.005  0.008
    4  0.020  0.004  0.005  0.029
    5  0.000  0.006  0.010  0.016
    6  0.010  0.003  0.005  0.018
    7  0.002  0.002  0.005  0.009
    8  0.011  0.003  0.005  0.019
    9  0.000  0.000  0.012  0.012
   10  0.020  0.005  0.008  0.032
   11  0.005  0.003  0.020  0.028
   12  0.005  0.001  0.017  0.023
   13  0.004  0.003  0.021  0.028
   14  0.019  0.003  0.005  0.027
   15  0.000  0.003  0.014  0.016
   16  0.005  0.001  0.017  0.024
   17  0.000  0.003  0.014  0.017
   18  0.000  0.000  0.008  0.009
   19  0.001  0.002  0.019  0.022
   20  0.019  0.006  0.005  0.030
   21  0.004  0.002  0.028  0.034
   22  0.001  0.001  0.011  0.014
   23  0.005  0.002  0.027  0.034
   24  0.006  0.003  0.010  0.019
   25  0.003  0.001  0.006  0.009
   26  0.001  0.002  0.020  0.023
   27  0.001  0.002  0.011  0.014
   28  0.000  0.002  0.012  0.014
   29  0.017  0.003  0.007  0.027
   30  0.000  0.001  0.006  0.008
   31  0.016  0.003  0.007  0.027
   32  0.010  0.003  0.007  0.020
   33  0.001  0.001  0.006  0.008
   34  0.011  0.003  0.007  0.021
   35  0.000  0.001  0.011  0.011
   36  0.000  0.012  0.014  0.026
   37  0.000  0.000  0.000  0.000
tot    0.219  0.099  0.398  0.716
 
band    15 # energy   -5.09259105 # occ.  2.00000000
 
ion      s      p      d    tot
    1  0.000  0.003  0.009  0.012
    2  0.001  0.002  0.005  0.008
    3  0.020  0.004  0.005  0.030
    4  0.002  0.002  0.005  0.009
    5  0.000  0.006  0.010  0.016
    6  0.011  0.003  0.005  0.019
    7  0.020  0.004  0.005  0.029
    8  0.010  0.003  0.005  0.018
    9  0.000  0.000  0.012  0.012
   10  0.000  0.000  0.020  0.021
   11  0.014  0.003  0.011  0.027
   12  0.015  0.004  0.011  0.029
   13  0.015  0.003  0.010  0.027
   14  0.000  0.003  0.025  0.028
   15  0.000  0.001  0.010  0.012
   16  0.015  0.003  0.011  0.029
   17  0.000  0.001  0.010  0.011
   18  0.000  0.004  0.015  0.019
   19  0.002  0.001  0.011  0.014
   20  0.000  0.001  0.034  0.035
   21  0.014  0.005  0.012  0.031
   22  0.004  0.002  0.011  0.017
   23  0.014  0.005  0.013  0.031
   24  0.000  0.001  0.011  0.012
   25  0.000  0.003  0.024  0.027
   26  0.002  0.001  0.010  0.013
   27  0.004  0.002  0.011  0.017
   28  0.000  0.002  0.012  0.014
   29  0.002  0.002  0.006  0.010
   30  0.018  0.004  0.008  0.029
   31  0.002  0.002  0.007  0.010
   32  0.008  0.002  0.006  0.017
   33  0.018  0.004  0.008  0.029
   34  0.007  0.002  0.006  0.016
   35  0.000  0.001  0.011  0.011
   36  0.000  0.012  0.014  0.026
   37  0.000  0.000  0.000  0.000
tot    0.219  0.099  0.398  0.716
 
band    16 # energy   -5.07616421 # occ.  2.00000000
 
ion      s      p      d    tot
    1  0.028  0.002  0.000  0.030
    2  0.000  0.003  0.010  0.013
    3  0.000  0.003  0.010  0.013
    4  0.000  0.003  0.010  0.013
    5  0.002  0.000  0.000  0.003
    6  0.000  0.003  0.010  0.013
    7  0.000  0.003  0.010  0.013
    8  0.000  0.003  0.010  0.013
    9  0.031  0.004  0.001  0.036
   10  0.007  0.003  0.010  0.020
   11  0.001  0.000  0.017  0.017
   12  0.007  0.003  0.010  0.020
   13  0.001  0.000  0.017  0.017
   14  0.001  0.000  0.017  0.017
   15  0.010  0.004  0.014  0.029
   16  0.007  0.003  0.010  0.020
   17  0.010  0.004  0.014  0.029
   18  0.010  0.004  0.014  0.029
   19  0.002  0.003  0.020  0.025
   20  0.000  0.000  0.013  0.014
   21  0.000  0.000  0.013  0.014
   22  0.012  0.004  0.010  0.026
   23  0.000  0.000  0.013  0.014
   24  0.012  0.004  0.010  0.026
   25  0.002  0.003  0.020  0.025
   26  0.002  0.003  0.020  0.025
   27  0.012  0.004  0.010  0.026
   28  0.032  0.002  0.000  0.034
   29  0.000  0.003  0.013  0.016
   30  0.000  0.003  0.013  0.016
   31  0.000  0.003  0.013  0.016
   32  0.000  0.003  0.013  0.016
   33  0.000  0.003  0.013  0.016
   34  0.000  0.003  0.013  0.016
   35  0.032  0.004  0.001  0.037
   36  0.002  0.000  0.000  0.002
   37  0.000  0.000  0.000  0.000
tot    0.225  0.089  0.395  0.708
 
band    17 # energy   -4.52156278 # occ.  2.00000000
 
ion      s      p      d    tot
    1  0.000  0.001  0.026  0.026
    2  0.015  0.002  0.007  0.024
    3  0.007  0.001  0.007  0.015
    4  0.015  0.002  0.007  0.024
    5  0.000  0.001  0.013  0.014
    6  0.002  0.001  0.007  0.011
    7  0.006  0.001  0.007  0.014
    8  0.002  0.001  0.007  0.010
    9  0.000  0.003  0.004  0.007
   10  0.000  0.000  0.058  0.058
   11  0.000  0.003  0.015  0.019
   12  0.000  0.000  0.020  0.021
   13  0.000  0.003  0.014  0.018
   14  0.000  0.000  0.004  0.004
   15  0.000  0.005  0.014  0.019
   16  0.000  0.000  0.016  0.017
   17  0.000  0.005  0.015  0.020
   18  0.000  0.000  0.027  0.027
   19  0.005  0.003  0.013  0.021
   20  0.000  0.000  0.065  0.065
   21  0.000  0.000  0.030  0.030
   22  0.003  0.001  0.014  0.019
   23  0.000  0.000  0.026  0.027
   24  0.000  0.000  0.012  0.012
   25  0.000  0.000  0.022  0.022
   26  0.005  0.002  0.014  0.021
   27  0.004  0.002  0.014  0.020
   28  0.000  0.001  0.006  0.007
   29  0.007  0.000  0.025  0.033
   30  0.000  0.001  0.018  0.019
   31  0.008  0.000  0.026  0.034
   32  0.011  0.000  0.023  0.034
   33  0.000  0.001  0.017  0.019
   34  0.010  0.000  0.022  0.033
   35  0.000  0.001  0.010  0.011
   36  0.000  0.000  0.049  0.049
   37  0.000  0.000  0.000  0.000
tot    0.102  0.043  0.674  0.819
 
band    18 # energy   -4.52151072 # occ.  2.00000000
 
ion      s      p      d    tot
    1  0.000  0.001  0.026  0.026
    2  0.000  0.001  0.007  0.008
    3  0.009  0.001  0.007  0.017
    4  0.001  0.001  0.007  0.009
    5  0.000  0.001  0.013  0.014
    6  0.013  0.001  0.007  0.022
    7  0.010  0.001  0.007  0.019
    8  0.014  0.002  0.007  0.023
    9  0.000  0.003  0.004  0.007
   10  0.000  0.000  0.005  0.006
   11  0.000  0.001  0.007  0.008
   12  0.000  0.000  0.043  0.043
   13  0.000  0.001  0.008  0.010
   14  0.000  0.004  0.019  0.023
   15  0.000  0.001  0.024  0.025
   16  0.000  0.000  0.047  0.047
   17  0.000  0.002  0.022  0.024
   18  0.000  0.006  0.010  0.017
   19  0.001  0.001  0.019  0.021
   20  0.000  0.000  0.016  0.016
   21  0.000  0.000  0.051  0.051
   22  0.001  0.001  0.013  0.015
   23  0.000  0.000  0.054  0.055
   24  0.005  0.002  0.015  0.021
   25  0.007  0.003  0.010  0.021
   26  0.002  0.001  0.018  0.021
   27  0.001  0.001  0.013  0.014
   28  0.000  0.001  0.006  0.007
   29  0.005  0.001  0.018  0.024
   30  0.012  0.000  0.026  0.038
   31  0.004  0.001  0.018  0.023
   32  0.001  0.001  0.021  0.023
   33  0.012  0.000  0.026  0.038
   34  0.002  0.001  0.022  0.024
   35  0.000  0.001  0.010  0.011
   36  0.000  0.000  0.049  0.049
   37  0.000  0.000  0.000  0.000
tot    0.102  0.043  0.674  0.819
 
band    19 # energy   -4.44758039 # occ.  2.00000000
 
ion      s      p      d    tot
    1  0.030  0.001  0.000  0.032
    2  0.000  0.002  0.016  0.018
    3  0.000  0.002  0.016  0.018
    4  0.000  0.002  0.016  0.018
    5  0.017  0.001  0.001  0.018
    6  0.000  0.002  0.016  0.018
    7  0.000  0.002  0.016  0.018
    8  0.000  0.002  0.016  0.018
    9  0.002  0.000  0.000  0.002
   10  0.000  0.003  0.037  0.040
   11  0.000  0.003  0.023  0.027
   12  0.000  0.003  0.037  0.040
   13  0.000  0.003  0.023  0.027
   14  0.000  0.003  0.023  0.027
   15  0.000  0.000  0.005  0.005
   16  0.000  0.003  0.037  0.040
   17  0.000  0.000  0.005  0.005
   18  0.000  0.000  0.005  0.005
   19  0.002  0.002  0.021  0.025
   20  0.001  0.002  0.043  0.046
   21  0.001  0.002  0.043  0.046
   22  0.000  0.000  0.008  0.008
   23  0.001  0.002  0.043  0.046
   24  0.000  0.000  0.008  0.008
   25  0.002  0.002  0.021  0.025
   26  0.002  0.002  0.021  0.025
   27  0.000  0.000  0.008  0.008
   28  0.009  0.000  0.005  0.014
   29  0.000  0.001  0.022  0.023
   30  0.000  0.001  0.022  0.023
   31  0.000  0.001  0.022  0.023
   32  0.000  0.001  0.022  0.023
   33  0.000  0.001  0.022  0.023
   34  0.000  0.001  0.022  0.023
   35  0.005  0.000  0.000  0.005
   36  0.044  0.000  0.000  0.044
   37  0.005  0.000  0.000  0.005
tot    0.123  0.050  0.647  0.820
 
band    20 # energy   -4.41370612 # occ.  2.00000000
 
ion      s      p      d    tot
    1  0.002  0.000  0.000  0.002
    2  0.000  0.001  0.014  0.015
    3  0.000  0.001  0.014  0.015
    4  0.000  0.001  0.014  0.015
    5  0.013  0.000  0.000  0.013
    6  0.000  0.001  0.014  0.015
    7  0.000  0.001  0.014  0.015
    8  0.000  0.001  0.014  0.015
    9  0.023  0.001  0.001  0.025
   10  0.000  0.001  0.005  0.007
   11  0.000  0.000  0.020  0.021
   12  0.000  0.001  0.005  0.007
   13  0.000  0.000  0.020  0.021
   14  0.000  0.000  0.020  0.021
   15  0.000  0.003  0.030  0.033
   16  0.000  0.001  0.005  0.007
   17  0.000  0.003  0.030  0.033
   18  0.000  0.003  0.030  0.033
   19  0.000  0.001  0.020  0.021
   20  0.000  0.001  0.020  0.021
   21  0.000  0.001  0.020  0.020
   22  0.002  0.003  0.033  0.037
   23  0.000  0.001  0.020  0.020
   24  0.002  0.003  0.033  0.037
   25  0.000  0.001  0.020  0.021
   26  0.000  0.001  0.020  0.021
   27  0.002  0.003  0.033  0.037
   28  0.017  0.000  0.002  0.019
   29  0.000  0.001  0.033  0.034
   30  0.000  0.001  0.032  0.034
   31  0.000  0.001  0.033  0.034
   32  0.000  0.001  0.033  0.034
   33  0.000  0.001  0.032  0.034
   34  0.000  0.001  0.033  0.034
   35  0.029  0.000  0.007  0.036
   36  0.000  0.000  0.003  0.004
   37  0.000  0.000  0.000  0.000
tot    0.092  0.044  0.675  0.811
 
band    21 # energy   -4.39332046 # occ.  2.00000000
 
ion      s      p      d    tot
    1  0.000  0.002  0.002  0.004
    2  0.015  0.001  0.009  0.025
    3  0.007  0.001  0.009  0.016
    4  0.015  0.001  0.009  0.025
    5  0.000  0.002  0.018  0.021
    6  0.002  0.001  0.009  0.011
    7  0.007  0.001  0.008  0.016
    8  0.001  0.001  0.009  0.011
    9  0.000  0.000  0.030  0.030
   10  0.001  0.007  0.021  0.029
   11  0.000  0.001  0.040  0.041
   12  0.000  0.002  0.009  0.011
   13  0.000  0.001  0.040  0.040
   14  0.001  0.003  0.004  0.008
   15  0.000  0.000  0.030  0.030
   16  0.000  0.002  0.009  0.011
   17  0.000  0.000  0.030  0.030
   18  0.000  0.001  0.010  0.011
   19  0.000  0.000  0.043  0.043
   20  0.002  0.006  0.023  0.031
   21  0.001  0.002  0.019  0.021
   22  0.000  0.001  0.023  0.024
   23  0.001  0.002  0.018  0.021
   24  0.000  0.003  0.014  0.017
   25  0.001  0.001  0.004  0.005
   26  0.000  0.000  0.042  0.043
   27  0.000  0.001  0.023  0.024
   28  0.000  0.001  0.034  0.035
   29  0.011  0.001  0.014  0.027
   30  0.000  0.001  0.014  0.014
   31  0.011  0.001  0.014  0.027
   32  0.011  0.001  0.013  0.025
   33  0.000  0.001  0.014  0.014
   34  0.010  0.001  0.013  0.025
   35  0.000  0.000  0.031  0.032
   36  0.000  0.005  0.000  0.005