PROCAR new format
# of k-points:   10         # of bands:  252         # of ions:   37

 k-point     1 :    0.00000000 0.00000000 0.00000000     weight = 0.01562500

band     1 # energy  -10.21192645 # occ.  2.00000000
 
ion      s      p      d    tot
    1  0.000  0.000  0.000  0.000
    2  0.000  0.000  0.000  0.000
    3  0.000  0.000  0.000  0.000
    4  0.000  0.000  0.000  0.000
    5  0.000  0.000  0.000  0.000
    6  0.000  0.000  0.000  0.000
    7  0.000  0.000  0.000  0.000
    8  0.000  0.000  0.000  0.000
    9  0.000  0.000  0.000  0.000
   10  0.000  0.000  0.000  0.000
   11  0.000  0.000  0.000  0.000
   12  0.000  0.000  0.000  0.000
   13  0.000  0.000  0.000  0.000
   14  0.000  0.000  0.000  0.000
   15  0.000  0.000  0.000  0.000
   16  0.000  0.000  0.000  0.000
   17  0.000  0.000  0.000  0.000
   18  0.000  0.000  0.000  0.000
   19  0.000  0.000  0.000  0.000
   20  0.001  0.001  0.002  0.004
   21  0.001  0.001  0.002  0.004
   22  0.000  0.000  0.000  0.000
   23  0.001  0.001  0.002  0.004
   24  0.000  0.000  0.000  0.000
   25  0.000  0.000  0.000  0.000
   26  0.000  0.000  0.000  0.000
   27  0.000  0.000  0.000  0.000
   28  0.000  0.000  0.000  0.000
   29  0.001  0.000  0.000  0.001
   30  0.001  0.000  0.000  0.001
   31  0.001  0.000  0.000  0.001
   32  0.001  0.000  0.000  0.001
   33  0.001  0.000  0.000  0.001
   34  0.001  0.000  0.000  0.001
   35  0.000  0.000  0.000  0.000
   36  0.135  0.061  0.238  0.435
   37  0.401  0.038  0.000  0.439
tot    0.543  0.102  0.247  0.892
 
band     2 # energy   -6.79163064 # occ.  2.00000000
 
ion      s      p      d    tot
    1  0.006  0.001  0.000  0.006
    2  0.006  0.001  0.000  0.006
    3  0.006  0.001  0.000  0.006
    4  0.006  0.001  0.000  0.006
    5  0.006  0.001  0.000  0.006
    6  0.006  0.001  0.000  0.006
    7  0.006  0.001  0.000  0.006
    8  0.006  0.001  0.000  0.006
    9  0.005  0.001  0.000  0.006
   10  0.022  0.000  0.000  0.023
   11  0.023  0.000  0.000  0.024
   12  0.022  0.000  0.000  0.023
   13  0.023  0.000  0.000  0.024
   14  0.023  0.000  0.000  0.024
   15  0.022  0.000  0.000  0.022
   16  0.022  0.000  0.000  0.023
   17  0.022  0.000  0.000  0.022
   18  0.022  0.000  0.000  0.022
   19  0.022  0.000  0.000  0.023
   20  0.026  0.000  0.000  0.026
   21  0.026  0.000  0.000  0.026
   22  0.023  0.000  0.000  0.024
   23  0.026  0.000  0.000  0.026
   24  0.023  0.000  0.000  0.024
   25  0.022  0.000  0.000  0.023
   26  0.022  0.000  0.000  0.023
   27  0.023  0.000  0.000  0.024
   28  0.006  0.001  0.000  0.006
   29  0.006  0.001  0.000  0.007
   30  0.006  0.001  0.000  0.007
   31  0.006  0.001  0.000  0.007
   32  0.006  0.001  0.000  0.007
   33  0.006  0.001  0.000  0.007
   34  0.006  0.001  0.000  0.007
   35  0.006  0.001  0.000  0.006
   36  0.007  0.004  0.004  0.016
   37  0.005  0.000  0.000  0.005
tot    0.523  0.017  0.011  0.551
 
band     3 # energy   -5.92546552 # occ.  2.00000000
 
ion      s      p      d    tot
    1  0.009  0.000  0.000  0.009
    2  0.009  0.000  0.000  0.010
    3  0.009  0.000  0.000  0.010
    4  0.009  0.000  0.000  0.010
    5  0.009  0.000  0.000  0.009
    6  0.009  0.000  0.000  0.010
    7  0.009  0.000  0.000  0.010
    8  0.009  0.000  0.000  0.010
    9  0.009  0.000  0.000  0.010
   10  0.012  0.001  0.014  0.027
   11  0.012  0.001  0.014  0.027
   12  0.012  0.001  0.014  0.027
   13  0.012  0.001  0.014  0.027
   14  0.012  0.001  0.014  0.027
   15  0.012  0.001  0.012  0.026
   16  0.012  0.001  0.014  0.027
   17  0.012  0.001  0.012  0.026
   18  0.012  0.001  0.012  0.026
   19  0.009  0.001  0.013  0.023
   20  0.013  0.001  0.012  0.026
   21  0.013  0.001  0.012  0.026
   22  0.010  0.001  0.014  0.025
   23  0.013  0.001  0.012  0.026
   24  0.010  0.001  0.014  0.025
   25  0.009  0.001  0.013  0.023
   26  0.009  0.001  0.013  0.023
   27  0.010  0.001  0.014  0.025
   28  0.007  0.000  0.000  0.007
   29  0.008  0.001  0.001  0.010
   30  0.008  0.001  0.001  0.010
   31  0.008  0.001  0.001  0.010
   32  0.008  0.001  0.001  0.010
   33  0.008  0.001  0.001  0.010
   34  0.008  0.001  0.001  0.010
   35  0.007  0.000  0.000  0.007
   36  0.013  0.004  0.008  0.025
   37  0.004  0.000  0.000  0.004
tot    0.359  0.031  0.257  0.647
 
band     4 # energy   -5.69995250 # occ.  2.00000000
 
ion      s      p      d    tot
    1  0.004  0.000  0.009  0.013
    2  0.004  0.000  0.006  0.010
    3  0.004  0.000  0.006  0.010
    4  0.004  0.000  0.006  0.010
    5  0.004  0.000  0.004  0.008
    6  0.004  0.000  0.006  0.010
    7  0.004  0.000  0.006  0.010
    8  0.004  0.000  0.006  0.010
    9  0.006  0.000  0.005  0.010
   10  0.000  0.000  0.017  0.017
   11  0.000  0.000  0.011  0.011
   12  0.000  0.000  0.017  0.017
   13  0.000  0.000  0.011  0.011
   14  0.000  0.000  0.011  0.011
   15  0.000  0.000  0.008  0.008
   16  0.000  0.000  0.017  0.017
   17  0.000  0.000  0.008  0.008
   18  0.000  0.000  0.008  0.008
   19  0.003  0.000  0.017  0.021
   20  0.000  0.001  0.054  0.055
   21  0.000  0.001  0.054  0.055
   22  0.000  0.000  0.015  0.016
   23  0.000  0.001  0.054  0.055
   24  0.000  0.000  0.015  0.016
   25  0.003  0.000  0.017  0.021
   26  0.003  0.000  0.017  0.021
   27  0.000  0.000  0.015  0.016
   28  0.005  0.000  0.014  0.018
   29  0.011  0.000  0.022  0.033
   30  0.011  0.000  0.022  0.033
   31  0.011  0.000  0.022  0.033
   32  0.011  0.000  0.022  0.033
   33  0.011  0.000  0.022  0.033
   34  0.011  0.000  0.022  0.033
   35  0.007  0.000  0.012  0.019
   36  0.029  0.000  0.053  0.083
   37  0.001  0.001  0.000  0.002
tot    0.162  0.008  0.629  0.799
 
band     5 # energy   -5.56633703 # occ.  2.00000000
 
ion      s      p      d    tot
    1  0.004  0.001  0.003  0.008
    2  0.000  0.000  0.004  0.004
    3  0.000  0.000  0.004  0.004
    4  0.000  0.000  0.004  0.004
    5  0.001  0.000  0.000  0.001
    6  0.000  0.000  0.004  0.004
    7  0.000  0.000  0.004  0.004
    8  0.000  0.000  0.004  0.004
    9  0.002  0.000  0.000  0.002
   10  0.004  0.000  0.030  0.034
   11  0.000  0.000  0.018  0.019
   12  0.004  0.000  0.030  0.034
   13  0.000  0.000  0.018  0.019
   14  0.000  0.000  0.018  0.019
   15  0.005  0.001  0.005  0.011
   16  0.004  0.000  0.030  0.034
   17  0.005  0.001  0.005  0.011
   18  0.005  0.001  0.005  0.011
   19  0.000  0.001  0.045  0.046
   20  0.012  0.000  0.092  0.104
   21  0.011  0.000  0.092  0.104
   22  0.014  0.001  0.001  0.015
   23  0.011  0.000  0.092  0.104
   24  0.014  0.001  0.001  0.015
   25  0.000  0.001  0.045  0.046
   26  0.000  0.001  0.045  0.046
   27  0.014  0.001  0.001  0.015
   28  0.001  0.000  0.002  0.003
   29  0.000  0.000  0.006  0.006
   30  0.000  0.000  0.006  0.006
   31  0.000  0.000  0.006  0.006
   32  0.000  0.000  0.006  0.006
   33  0.000  0.000  0.006  0.006
   34  0.000  0.000  0.006  0.006
   35  0.006  0.001  0.001  0.008
   36  0.008  0.012  0.004  0.024
   37  0.008  0.001  0.000  0.010
tot    0.138  0.026  0.641  0.805
 
band     6 # energy   -5.54850401 # occ.  2.00000000
 
ion      s      p      d    tot
    1  0.000  0.000  0.008  0.008
    2  0.000  0.000  0.002  0.002
    3  0.000  0.000  0.002  0.003
    4  0.000  0.000  0.002  0.002
    5  0.000  0.000  0.004  0.004
    6  0.001  0.000  0.002  0.004
    7  0.000  0.000  0.002  0.003
    8  0.001  0.000  0.002  0.004
    9  0.000  0.000  0.001  0.001
   10  0.011  0.001  0.012  0.025
   11  0.001  0.001  0.024  0.026
   12  0.003  0.001  0.019  0.022
   13  0.001  0.001  0.024  0.026
   14  0.005  0.000  0.019  0.024
   15  0.000  0.000  0.011  0.012
   16  0.003  0.001  0.019  0.022
   17  0.000  0.000  0.011  0.012
   18  0.001  0.000  0.010  0.011
   19  0.004  0.001  0.017  0.022
   20  0.038  0.000  0.008  0.046
   21  0.009  0.000  0.105  0.115
   22  0.001  0.001  0.052  0.053
   23  0.010  0.000  0.103  0.114
   24  0.002  0.000  0.021  0.024
   25  0.016  0.000  0.039  0.055
   26  0.004  0.001  0.016  0.021
   27  0.001  0.001  0.051  0.053
   28  0.000  0.000  0.003  0.003
   29  0.001  0.001  0.007  0.009
   30  0.001  0.000  0.007  0.008
   31  0.001  0.001  0.007  0.009
   32  0.000  0.000  0.007  0.007
   33  0.001  0.000  0.007  0.008
   34  0.000  0.000  0.007  0.007
   35  0.000  0.000  0.002  0.002
   36  0.000  0.001  0.033  0.034
   37  0.000  0.002  0.000  0.002
tot    0.118  0.019  0.668  0.804
 
band     7 # energy   -5.54849506 # occ.  2.00000000
 
ion      s      p      d    tot
    1  0.000  0.000  0.008  0.008
    2  0.001  0.000  0.002  0.003
    3  0.001  0.000  0.002  0.003
    4  0.001  0.000  0.002  0.003
    5  0.000  0.000  0.004  0.004
    6  0.000  0.000  0.002  0.002
    7  0.001  0.000  0.002  0.003
    8  0.000  0.000  0.002  0.002
    9  0.000  0.000  0.001  0.001
   10  0.000  0.000  0.021  0.022
   11  0.003  0.001  0.021  0.025
   12  0.009  0.001  0.014  0.024
   13  0.003  0.001  0.021  0.025
   14  0.000  0.001  0.026  0.027
   15  0.001  0.000  0.010  0.011
   16  0.008  0.001  0.014  0.024
   17  0.001  0.000  0.010  0.011
   18  0.000  0.000  0.012  0.012
   19  0.012  0.001  0.031  0.043
   20  0.000  0.000  0.137  0.137
   21  0.029  0.000  0.039  0.068
   22  0.002  0.001  0.031  0.034
   23  0.028  0.000  0.041  0.070
   24  0.000  0.001  0.062  0.062
   25  0.000  0.002  0.009  0.011
   26  0.012  0.001  0.032  0.044
   27  0.002  0.001  0.032  0.034
   28  0.000  0.000  0.003  0.003
   29  0.000  0.000  0.007  0.007
   30  0.001  0.001  0.007  0.008
   31  0.000  0.000  0.007  0.007
   32  0.001  0.001  0.007  0.009
   33  0.001  0.001  0.007  0.008
   34  0.001  0.001  0.007  0.009
   35  0.000  0.000  0.002  0.002
   36  0.000  0.001  0.033  0.034
   37  0.000  0.002  0.000  0.002
tot    0.118  0.019  0.668  0.804
 
band     8 # energy   -5.53026193 # occ.  2.00000000
 
ion      s      p      d    tot
    1  0.016  0.000  0.010  0.026
    2  0.011  0.000  0.023  0.034
    3  0.011  0.000  0.023  0.034
    4  0.011  0.000  0.023  0.034
    5  0.015  0.000  0.033  0.048
    6  0.011  0.000  0.023  0.034
    7  0.011  0.000  0.023  0.034
    8  0.011  0.000  0.023  0.034
    9  0.005  0.000  0.024  0.029
   10  0.000  0.001  0.016  0.017
   11  0.001  0.000  0.037  0.038
   12  0.000  0.001  0.016  0.017
   13  0.001  0.000  0.037  0.038
   14  0.001  0.000  0.037  0.038
   15  0.004  0.000  0.018  0.022
   16  0.000  0.001  0.016  0.017
   17  0.004  0.000  0.018  0.022
   18  0.004  0.000  0.018  0.022
   19  0.006  0.000  0.002  0.008
   20  0.000  0.000  0.028  0.029
   21  0.000  0.000  0.028  0.029
   22  0.000  0.000  0.016  0.016
   23  0.000  0.000  0.028  0.029
   24  0.000  0.000  0.016  0.016
   25  0.006  0.000  0.002  0.008
   26  0.006  0.000  0.002  0.008
   27  0.000  0.000  0.016  0.016
   28  0.001  0.001  0.002  0.004
   29  0.000  0.000  0.010  0.011
   30  0.000  0.000  0.010  0.011
   31  0.000  0.000  0.010  0.011
   32  0.000  0.000  0.010  0.011
   33  0.000  0.000  0.010  0.011
   34  0.000  0.000  0.010  0.011
   35  0.000  0.000  0.000  0.000
   36  0.011  0.000  0.014  0.026
   37  0.000  0.000  0.000  0.000
tot    0.148  0.010  0.637  0.795
 
band     9 # energy   -5.50599786 # occ.  2.00000000
 
ion      s      p      d    tot
    1  0.000  0.000  0.001  0.001
    2  0.001  0.000  0.005  0.006
    3  0.000  0.000  0.002  0.002
    4  0.001  0.000  0.005  0.007
    5  0.000  0.000  0.007  0.007
    6  0.001  0.000  0.004  0.005
    7  0.000  0.000  0.002  0.002
    8  0.001  0.000  0.004  0.005
    9  0.000  0.000  0.004  0.004
   10  0.000  0.001  0.060  0.061
   11  0.018  0.001  0.028  0.046
   12  0.001  0.000  0.035  0.036
   13  0.017  0.001  0.031  0.049
   14  0.000  0.000  0.093  0.093
   15  0.012  0.001  0.028  0.040
   16  0.001  0.000  0.033  0.034
   17  0.011  0.001  0.027  0.039
   18  0.000  0.001  0.011  0.013
   19  0.005  0.000  0.021  0.027
   20  0.000  0.001  0.032  0.033
   21  0.003  0.001  0.038  0.041
   22  0.013  0.001  0.020  0.034
   23  0.003  0.000  0.038  0.041
   24  0.000  0.001  0.030  0.031
   25  0.000  0.000  0.056  0.056
   26  0.005  0.000  0.023  0.028
   27  0.014  0.001  0.020  0.034
   28  0.000  0.000  0.003  0.003
   29  0.000  0.000  0.003  0.003
   30  0.001  0.000  0.004  0.005
   31  0.000  0.000  0.003  0.003
   32  0.001  0.000  0.003  0.004
   33  0.001  0.000  0.004  0.005
   34  0.001  0.000  0.003  0.004
   35  0.000  0.000  0.007  0.007
   36  0.000  0.000  0.003  0.003
   37  0.000  0.000  0.000  0.000
tot    0.109  0.015  0.688  0.812
 
band    10 # energy   -5.50599373 # occ.  2.00000000
 
ion      s      p      d    tot
    1  0.000  0.000  0.001  0.001
    2  0.000  0.000  0.003  0.003
    3  0.001  0.000  0.005  0.007
    4  0.000  0.000  0.002  0.003
    5  0.000  0.000  0.007  0.007
    6  0.000  0.000  0.003  0.004
    7  0.001  0.000  0.005  0.007
    8  0.001  0.000  0.003  0.004
    9  0.000  0.000  0.004  0.004
   10  0.001  0.000  0.026  0.027
   11  0.005  0.000  0.073  0.079
   12  0.000  0.001  0.050  0.051
   13  0.006  0.000  0.070  0.077
   14  0.023  0.001  0.008  0.032
   15  0.004  0.001  0.016  0.021
   16  0.000  0.001  0.052  0.053
   17  0.004  0.001  0.017  0.022
   18  0.016  0.000  0.033  0.049
   19  0.002  0.000  0.045  0.047
   20  0.003  0.000  0.040  0.044
   21  0.001  0.001  0.034  0.036
   22  0.005  0.001  0.027  0.032
   23  0.001  0.001  0.034  0.035
   24  0.018  0.001  0.017  0.035
   25  0.007  0.001  0.010  0.018
   26  0.002  0.000  0.044  0.046
   27  0.004  0.001  0.027  0.032
   28  0.000  0.000  0.003  0.003
   29  0.001  0.000  0.003  0.005
   30  0.000  0.000  0.003  0.003
   31  0.001  0.000  0.003  0.005
   32  0.001  0.000  0.003  0.004
   33  0.000  0.000  0.003  0.003
   34  0.001  0.000  0.003  0.004
   35  0.000  0.000  0.007  0.007
   36  0.000  0.000  0.003  0.003
   37  0.000  0.000  0.000  0.000
tot    0.109  0.015  0.688  0.812
 
band    11 # energy   -5.49453169 # occ.  2.00000000
 
ion      s      p      d    tot
    1  0.001  0.000  0.000  0.002
    2  0.000  0.000  0.005  0.005
    3  0.000  0.000  0.005  0.005
    4  0.000  0.000  0.005  0.005
    5  0.003  0.001  0.006  0.010
    6  0.000  0.000  0.005  0.005
    7  0.000  0.000  0.005  0.005
    8  0.000  0.000  0.005  0.005
    9  0.002  0.000  0.001  0.003
   10  0.008  0.001  0.004  0.012
   11  0.012  0.000  0.044  0.057
   12  0.007  0.001  0.004  0.012
   13  0.012  0.000  0.044  0.057
   14  0.012  0.000  0.044  0.057
   15  0.000  0.000  0.041  0.042
   16  0.007  0.001  0.004  0.012
   17  0.000  0.000  0.041  0.042
   18  0.000  0.000  0.041  0.041
   19  0.012  0.001  0.029  0.042
   20  0.005  0.001  0.018  0.024
   21  0.005  0.001  0.018  0.024
   22  0.001  0.000  0.061  0.062
   23  0.005  0.001  0.018  0.024
   24  0.001  0.000  0.061  0.062
   25  0.012  0.001  0.029  0.042
   26  0.012  0.001  0.029  0.042
   27  0.001  0.000  0.061  0.062
   28  0.005  0.001  0.003  0.009
   29  0.000  0.000  0.003  0.003
   30  0.000  0.000  0.003  0.003
   31  0.000  0.000  0.003  0.003
   32  0.000  0.000  0.003  0.003
   33  0.000  0.000  0.003  0.003
   34  0.000  0.000  0.003  0.003
   35  0.001  0.001  0.009  0.010
   36  0.000  0.000  0.000  0.000
   37  0.000  0.000  0.000  0.000
tot    0.126  0.017  0.661  0.803
 
band    12 # energy   -5.47114725 # occ.  2.00000000
 
ion      s      p      d    tot
    1  0.000  0.000  0.013  0.014
    2  0.003  0.000  0.012  0.015
    3  0.003  0.000  0.012  0.015
    4  0.003  0.000  0.012  0.015
    5  0.002  0.000  0.000  0.003
    6  0.003  0.000  0.012  0.015
    7  0.003  0.000  0.012  0.015
    8  0.003  0.000  0.012  0.015
    9  0.008  0.000  0.016  0.025
   10  0.005  0.000  0.014  0.019
   11  0.000  0.000  0.028  0.029
   12  0.005  0.000  0.014  0.019
   13  0.000  0.000  0.028  0.029
   14  0.000  0.000  0.028  0.029
   15  0.001  0.000  0.038  0.039
   16  0.005  0.000  0.014  0.019
   17  0.001  0.000  0.038  0.039
   18  0.001  0.000  0.038  0.039
   19  0.001  0.001  0.002  0.004
   20  0.001  0.000  0.036  0.037
   21  0.001  0.000  0.036  0.037
   22  0.003  0.000  0.048  0.051
   23  0.001  0.000  0.036  0.037
   24  0.003  0.000  0.048  0.051
   25  0.001  0.001  0.002  0.004
   26  0.001  0.001  0.002  0.004
   27  0.003  0.000  0.048  0.051
   28  0.008  0.000  0.002  0.011
   29  0.004  0.000  0.013  0.017
   30  0.004  0.000  0.013  0.017
   31  0.004  0.000  0.013  0.017
   32  0.004  0.000  0.013  0.017
   33  0.004  0.000  0.013  0.017
   34  0.004  0.000  0.013  0.017
   35  0.005  0.000  0.026  0.031
   36  0.000  0.001  0.005  0.005
   37  0.000  0.000  0.000  0.000
tot    0.097  0.008  0.711  0.817
 
band    13 # energy   -5.46190145 # occ.  2.00000000
 
ion      s      p      d    tot
    1  0.000  0.001  0.011  0.012
    2  0.000  0.000  0.008  0.008
    3  0.002  0.001  0.009  0.012
    4  0.000  0.000  0.008  0.008
    5  0.000  0.000  0.009  0.009
    6  0.004  0.001  0.005  0.010
    7  0.002  0.001  0.009  0.012
    8  0.004  0.001  0.005  0.010
    9  0.000  0.000  0.009  0.009
   10  0.000  0.000  0.082  0.082
   11  0.002  0.000  0.033  0.035
   12  0.018  0.000  0.026  0.044
   13  0.002  0.000  0.033  0.036
   14  0.000  0.001  0.008  0.009
   15  0.007  0.000  0.032  0.039
   16  0.017  0.000  0.027  0.044
   17  0.007  0.000  0.031  0.038
   18  0.000  0.000  0.077  0.077
   19  0.003  0.000  0.024  0.027
   20  0.000  0.000  0.026  0.026
   21  0.000  0.000  0.025  0.026
   22  0.008  0.000  0.018  0.026
   23  0.000  0.000  0.025  0.026
   24  0.000  0.000  0.036  0.036
   25  0.000  0.000  0.041  0.041
   26  0.003  0.000  0.023  0.027
   27  0.008  0.000  0.019  0.026
   28  0.000  0.000  0.010  0.010
   29  0.003  0.001  0.004  0.007
   30  0.002  0.001  0.007  0.010
   31  0.003  0.001  0.004  0.007
   32  0.000  0.000  0.005  0.005
   33  0.002  0.001  0.007  0.010
   34  0.000  0.000  0.005  0.005
   35  0.000  0.000  0.003  0.003
   36  0.000  0.000  0.006  0.006
   37  0.000  0.000  0.000  0.000
tot    0.101  0.012  0.707  0.820
 
band    14 # energy   -5.46187553 # occ.  2.00000000
 
ion      s      p      d    tot
    1  0.000  0.001  0.011  0.012
    2  0.004  0.001  0.007  0.012
    3  0.002  0.000  0.005  0.008
    4  0.004  0.001  0.007  0.012
    5  0.000  0.000  0.009  0.009
    6  0.000  0.000  0.009  0.010
    7  0.002  0.000  0.005  0.008
    8  0.000  0.000  0.009  0.010
    9  0.000  0.000  0.009  0.009
   10  0.023  0.000  0.008  0.031
   11  0.001  0.001  0.016  0.018
   12  0.006  0.000  0.064  0.070
   13  0.001  0.001  0.016  0.018
   14  0.003  0.000  0.041  0.044
   15  0.002  0.000  0.061  0.063
   16  0.006  0.000  0.063  0.070
   17  0.002  0.000  0.061  0.064
   18  0.009  0.000  0.016  0.026
   19  0.001  0.000  0.035  0.037
   20  0.001  0.001  0.025  0.026
   21  0.000  0.000  0.026  0.026
   22  0.002  0.000  0.030  0.033
   23  0.000  0.000  0.026  0.026
   24  0.010  0.000  0.013  0.023
   25  0.004  0.000  0.017  0.022
   26  0.001  0.000  0.036  0.037
   27  0.003  0.000  0.030  0.033
   28  0.000  0.000  0.010  0.010
   29  0.001  0.000  0.007  0.007
   30  0.001  0.000  0.003  0.005
   31  0.000  0.000  0.007  0.007
   32  0.004  0.001  0.005  0.010
   33  0.001  0.000  0.003  0.005
   34  0.004  0.001  0.005  0.010
   35  0.000  0.000  0.003  0.003
   36  0.000  0.000  0.006  0.006
   37  0.000  0.000  0.000  0.000
tot    0.101  0.012  0.707  0.820
 
band    15 # energy   -5.45569804 # occ.  2.00000000
 
ion      s      p      d    tot
    1  0.002  0.000  0.016  0.018
    2  0.001  0.000  0.009  0.010
    3  0.001  0.000  0.009  0.010
    4  0.001  0.000  0.009  0.010
    5  0.001  0.001  0.001  0.003
    6  0.000  0.000  0.009  0.010
    7  0.001  0.000  0.009  0.010
    8  0.000  0.000  0.009  0.010
    9  0.003  0.001  0.003  0.007
   10  0.001  0.000  0.081  0.082
   11  0.007  0.001  0.009  0.016
   12  0.001  0.000  0.082  0.083
   13  0.007  0.001  0.009  0.016
   14  0.007  0.001  0.009  0.016
   15  0.007  0.000  0.042  0.050
   16  0.001  0.000  0.082  0.083
   17  0.007  0.000  0.043  0.050
   18  0.007  0.000  0.042  0.049
   19  0.000  0.000  0.036  0.037
   20  0.000  0.001  0.013  0.013
   21  0.000  0.001  0.013  0.013
   22  0.000  0.000  0.026  0.027
   23  0.000  0.001  0.013  0.013
   24  0.000  0.000  0.026  0.026
   25  0.000  0.000  0.037  0.037
   26  0.000  0.000  0.036  0.037
   27  0.000  0.000  0.026  0.027
   28  0.004  0.000  0.010  0.015
   29  0.001  0.000  0.008  0.009
   30  0.001  0.000  0.008  0.009
   31  0.001  0.000  0.008  0.009
   32  0.001  0.000  0.008  0.009
   33  0.001  0.000  0.008  0.009
   34  0.001  0.000  0.008  0.009
   35  0.000  0.000  0.003  0.003
   36  0.001  0.001  0.000  0.002
   37  0.001  0.000  0.000  0.001
tot    0.067  0.009  0.761  0.837
 
band    16 # energy   -5.45514811 # occ.  2.00000000
 
ion      s      p      d    tot
    1  0.000  0.000  0.008  0.008
    2  0.000  0.000  0.008  0.009
    3  0.000  0.000  0.007  0.008
    4  0.000  0.000  0.008  0.009
    5  0.000  0.000  0.002  0.003
    6  0.002  0.000  0.005  0.007
    7  0.000  0.000  0.007  0.008
    8  0.002  0.000  0.004  0.007
    9  0.000  0.000  0.015  0.015
   10  0.001  0.000  0.046  0.047
   11  0.001  0.000  0.054  0.055
   12  0.000  0.000  0.016  0.017
   13  0.001  0.000  0.052  0.053
   14  0.003  0.000  0.013  0.017
   15  0.002  0.000  0.066  0.068
   16  0.000  0.000  0.015  0.016
   17  0.002  0.000  0.064  0.067
   18  0.008  0.000  0.024  0.032
   19  0.001  0.000  0.063  0.064
   20  0.000  0.000  0.040  0.040
   21  0.000  0.000  0.020  0.021
   22  0.001  0.000  0.042  0.043
   23  0.000  0.000  0.020  0.020
   24  0.004  0.000  0.039  0.043
   25  0.005  0.000  0.007  0.012
   26  0.001  0.000  0.061  0.062
   27  0.001  0.000  0.042  0.043
   28  0.000  0.000  0.007  0.008
   29  0.001  0.000  0.006  0.008
   30  0.001  0.000  0.003  0.005
   31  0.001  0.000  0.006  0.008
   32  0.000  0.000  0.008  0.008
   33  0.001  0.000  0.003  0.005
   34  0.000  0.000  0.008  0.008
   35  0.000  0.000  0.012  0.012
   36  0.000  0.000  0.002  0.002
   37  0.000  0.000  0.000  0.000
tot    0.042  0.006  0.803  0.852
 
band    17 # energy   -5.45510691 # occ.  2.00000000
 
ion      s      p      d    tot
    1  0.000  0.000  0.008  0.008
    2  0.001  0.000  0.005  0.006
    3  0.001  0.000  0.006  0.008
    4  0.001  0.000  0.005  0.006
    5  0.000  0.000  0.002  0.003
    6  0.000  0.000  0.009  0.009
    7  0.001  0.000  0.006  0.008
    8  0.000  0.000  0.009  0.009
    9  0.000  0.000  0.015  0.015
   10  0.000  0.000  0.007  0.007
   11  0.003  0.000  0.025  0.028
   12  0.001  0.000  0.035  0.035
   13  0.002  0.000  0.027  0.030
   14  0.000  0.000  0.067  0.067
   15  0.006  0.000  0.037  0.043
   16  0.001  0.000  0.036  0.037
   17  0.006  0.000  0.039  0.045
   18  0.000  0.000  0.079  0.079
   19  0.004  0.000  0.024  0.028
   20  0.000  0.000  0.013  0.013
   21  0.000  0.000  0.033  0.033
   22  0.003  0.000  0.040  0.043
   23  0.000  0.000  0.034  0.034
   24  0.000  0.000  0.043  0.044
   25  0.000  0.000  0.080  0.080
   26  0.004  0.000  0.027  0.030
   27  0.003  0.000  0.039  0.043
   28  0.000  0.000  0.007  0.008
   29  0.000  0.000  0.005  0.006
   30  0.000  0.000  0.008  0.009
   31  0.000  0.000  0.005  0.006
   32  0.002  0.000  0.004  0.006
   33  0.001  0.000  0.008  0.009
   34  0.002  0.000  0.004  0.006
   35  0.000  0.000  0.012  0.012
   36  0.000  0.000  0.002  0.002
   37  0.000  0.000  0.000  0.000
tot    0.042  0.006  0.803  0.852
 
band    18 # energy   -5.34315101 # occ.  2.00000000
 
ion      s      p      d    tot
    1  0.000  0.000  0.002  0.002
    2  0.001  0.001  0.007  0.008
    3  0.000  0.000  0.006  0.006
    4  0.001  0.001  0.007  0.008
    5  0.000  0.001  0.013  0.013
    6  0.002  0.001  0.004  0.007
    7  0.000  0.000  0.006  0.006
    8  0.002  0.001  0.004  0.007
    9  0.000  0.000  0.009  0.009
   10  0.000  0.001  0.025  0.026
   11  0.001  0.000  0.056  0.057
   12  0.000  0.000  0.007  0.008
   13  0.001  0.000  0.056  0.057
   14  0.003  0.000  0.043  0.046
   15  0.000  0.000  0.023  0.023
   16  0.000  0.000  0.008  0.008
   17  0.000  0.000  0.023  0.023
   18  0.002  0.000  0.025  0.027
   19  0.000  0.000  0.007  0.007
   20  0.001  0.000  0.080  0.082
   21  0.000  0.000  0.098  0.098
   22  0.000  0.000  0.046  0.046
   23  0.000  0.000  0.098  0.098
   24  0.000  0.001  0.023  0.024
   25  0.000  0.001  0.026  0.027
   26  0.000  0.000  0.007  0.007
   27  0.000  0.000  0.046  0.046
   28  0.000  0.000  0.001  0.001
   29  0.000  0.000  0.008  0.008
   30  0.001  0.001  0.009  0.010
   31  0.000  0.000  0.008  0.008
   32  0.001  0.001  0.009  0.010
   33  0.001  0.001  0.009  0.010
   34  0.001  0.001  0.009  0.010
   35  0.000  0.000  0.001  0.001
   36  0.000  0.001  0.032  0.033
   37  0.000  0.003  0.000  0.003
tot    0.019  0.015  0.839  0.873
 
band    19 # energy   -5.34313657 # occ.  2.00000000
 
ion      s      p      d    tot
    1  0.000  0.000  0.002  0.002
    2  0.001  0.000  0.005  0.006
    3  0.002  0.001  0.005  0.008
    4  0.001  0.000  0.005  0.006
    5  0.000  0.001  0.013  0.013
    6  0.000  0.000  0.007  0.007
    7  0.002  0.001  0.005  0.008
    8  0.000  0.000  0.007  0.007
    9  0.000  0.000  0.009  0.009
   10  0.000  0.000  0.002  0.002
   11  0.002  0.000  0.048  0.050
   12  0.000  0.001  0.019  0.020
   13  0.002  0.000  0.047  0.050
   14  0.000  0.000  0.060  0.060
   15  0.001  0.000  0.024  0.026
   16  0.000  0.001  0.019  0.020
   17  0.001  0.000  0.024  0.026
   18  0.000  0.000  0.022  0.022
   19  0.000  0.001  0.020  0.020
   20  0.000  0.000  0.104  0.104
   21  0.001  0.000  0.086  0.087
   22  0.000  0.001  0.031  0.031
   23  0.001  0.000  0.086  0.087
   24  0.000  0.000  0.053  0.053
   25  0.000  0.000  0.001  0.001
   26  0.000  0.001  0.020  0.020
   27  0.000  0.000  0.031  0.032
   28  0.000  0.000  0.001  0.001
   29  0.001  0.001  0.009  0.011
   30  0.000  0.000  0.008  0.009
   31  0.001  0.001  0.009  0.011
   32  0.000  0.000  0.008  0.009
   33  0.000  0.000  0.008  0.009
   34  0.000  0.000  0.008  0.009
   35  0.000  0.000  0.001  0.001
   36  0.000  0.001  0.032  0.033
   37  0.000  0.003  0.000  0.003
tot    0.019  0.015  0.839  0.873
 
band    20 # energy   -5.32096720 # occ.  2.00000000
 
ion      s      p      d    tot
    1  0.000  0.000  0.000  0.001
    2  0.000  0.000  0.006  0.006
    3  0.000  0.000  0.006  0.006
    4  0.000  0.000  0.006  0.006
    5  0.000  0.000  0.012  0.012
    6  0.000  0.000  0.006  0.006
    7  0.000  0.000  0.006  0.006
    8  0.000  0.000  0.006  0.006
    9  0.000  0.000  0.010  0.011
   10  0.000  0.000  0.011  0.011
   11  0.000  0.000  0.064  0.065
   12  0.000  0.000  0.011  0.011
   13  0.000  0.000  0.064  0.065
   14  0.000  0.000  0.064  0.065
   15  0.001  0.001  0.047  0.048
   16  0.000  0.000  0.011  0.011
   17  0.001  0.001  0.047  0.048
   18  0.001  0.001  0.046  0.048
   19  0.001  0.000  0.016  0.017
   20  0.001  0.001  0.062  0.064
   21  0.001  0.001  0.062  0.064
   22  0.003  0.000  0.029  0.032
   23  0.001  0.001  0.062  0.064
   24  0.003  0.000  0.029  0.033
   25  0.001  0.000  0.016  0.017
   26  0.001  0.000  0.016  0.017
   27  0.003  0.000  0.029  0.032
   28  0.004  0.001  0.000  0.005
   29  0.000  0.001  0.012  0.013
   30  0.000  0.000  0.012  0.013
   31  0.000  0.001  0.012  0.013
   32  0.000  0.000  0.012  0.013
   33  0.000  0.000  0.012  0.013
   34  0.000  0.000  0.012  0.013
   35  0.001  0.000  0.003  0.004
   36  0.001  0.003  0.002  0.007
   37  0.002  0.001  0.000  0.003
tot    0.028  0.016  0.821  0.866
 
band    21 # energy   -5.29276404 # occ.  2.00000000
 
ion      s      p      d    tot
    1  0.000  0.000  0.004  0.004
    2  0.000  0.001  0.012  0.013
    3  0.000  0.001  0.012  0.013
    4  0.000  0.001  0.012  0.013
    5  0.004  0.001  0.000  0.005
    6  0.000  0.001  0.012  0.013
    7  0.000  0.001  0.012  0.013
    8  0.000  0.001  0.012  0.013
    9  0.003  0.001  0.001  0.005
   10  0.003  0.001  0.037  0.040
   11  0.000  0.000  0.037  0.037
   12  0.003  0.001  0.037  0.040
   13  0.000  0.000  0.037  0.037
   14  0.000  0.000  0.036  0.037
   15  0.003  0.000  0.015  0.018
   16  0.003  0.001  0.037  0.040
   17  0.003  0.000  0.015  0.018
   18  0.003  0.000  0.015  0.018
   19  0.001  0.000  0.057  0.058
   20  0.001  0.000  0.015  0.016
   21  0.001  0.000  0.015  0.016
   22  0.000  0.001  0.041  0.042
   23  0.001  0.000  0.015  0.016
   24  0.000  0.001  0.041  0.042
   25  0.001  0.000  0.057  0.059
   26  0.001  0.000  0.057  0.058
   27  0.000  0.001  0.041  0.042
   28  0.001  0.000  0.022  0.023
   29  0.001  0.000  0.012  0.014
   30  0.001  0.001  0.012  0.014
   31  0.001  0.000  0.012  0.014
   32  0.001  0.000  0.012  0.013
   33  0.001  0.001  0.012  0.014
   34  0.001  0.000  0.012  0.013
   35  0.009  0.001  0.000  0.010
   36  0.002  0.000  0.000  0.003