 vasp.6.2.0 18Jan21 (build Jun 12 2021 23:27:24) complex                        
  
 executed on             LinuxIFC date 2022.05.27  05:55:55
 running on   28 total cores
 distrk:  each k-point on   28 cores,    1 groups
 distr:  one band on NCORE=   1 cores,   28 groups


--------------------------------------------------------------------------------------------------------


 INCAR:
   ISMEAR = -5
   SIGMA = 0.1
   ISPIN = 1
   EDIFF = 1.d-5
   EDIFFG = -0.01
   NSW = 0
   NELM = 150
   ENCUT = 500
   ISIF = 2
   IBRION = 2
   LREAL = Auto
   ALGO = Fast
   ICHARG = 11
   LORBIT = 10
   LCHARG = .F.
   LWAVE = .F.

 POTCAR:    PAW_PBE Ag 02Apr2005                  
 POTCAR:    PAW_PBE Pt 04Feb2005                  
 POTCAR:    PAW_PBE H 15Jun2001                   
 -----------------------------------------------------------------------------
|                                                                             |
|           W    W    AA    RRRRR   N    N  II  N    N   GGGG   !!!           |
|           W    W   A  A   R    R  NN   N  II  NN   N  G    G  !!!           |
|           W    W  A    A  R    R  N N  N  II  N N  N  G       !!!           |
|           W WW W  AAAAAA  RRRRR   N  N N  II  N  N N  G  GGG   !            |
|           WW  WW  A    A  R   R   N   NN  II  N   NN  G    G                |
|           W    W  A    A  R    R  N    N  II  N    N   GGGG   !!!           |
|                                                                             |
|     For optimal performance we recommend to set                             |
|       NCORE = 2 up to number-of-cores-per-socket                            |
|     NCORE specifies how many cores store one orbital (NPAR=cpu/NCORE).      |
|     This setting can greatly improve the performance of VASP for DFT.       |
|     The default, NCORE=1 might be grossly inefficient on modern             |
|     multi-core architectures or massively parallel machines. Do your        |
|     own testing! More info at https://www.vasp.at/wiki/index.php/NCORE      |
|     Unfortunately you need to use the default for GW and RPA                |
|     calculations (for HF NCORE is supported but not extensively tested      |
|     yet).                                                                   |
|                                                                             |
 -----------------------------------------------------------------------------

 POTCAR:    PAW_PBE Ag 02Apr2005                  
   VRHFIN =Ag : s1 d10                                                                              
   LEXCH  = PE                                                                                      
   EATOM  =  1037.2675 eV,   76.2370 Ry                                                             
                                                                                                    
   TITEL  = PAW_PBE Ag 02Apr2005                                                                    
   LULTRA =        F    use ultrasoft PP ?                                                          
   IUNSCR =        1    unscreen: 0-lin 1-nonlin 2-no                                               
   RPACOR =    2.000    partial core radius                                                         
   POMASS =  107.868; ZVAL   =   11.000    mass and valenz                                          
   RCORE  =    2.500    outmost cutoff radius                                                       
   RWIGS  =    2.840; RWIGS  =    1.503    wigner-seitz radius (au A)                               
   ENMAX  =  249.844; ENMIN  =  187.383 eV                                                          
   ICORE  =        3    local potential                                                             
   LCOR   =        T    correct aug charges                                                         
   LPAW   =        T    paw PP                                                                      
   EAUG   =  412.496                                                                                
   DEXC   =    0.000                                                                                
   RMAX   =    2.560    core radius for proj-oper                                                   
   RAUG   =    1.300    factor for augmentation sphere                                              
   RDEP   =    2.576    radius for radial grids                                                     
   RDEPT  =    2.072    core radius for aug-charge                                                  
                                                                                                    
   Atomic configuration                                                                             
   12 entries                                                                                       
     n  l   j            E        occ.                                                              
     1  0  0.50    -25324.9161   2.0000                                                             
     2  0  0.50     -3728.5341   2.0000                                                             
     2  1  1.50     -3344.0404   6.0000                                                             
     3  0  0.50      -683.5581   2.0000                                                             
     3  1  1.50      -557.3225   6.0000                                                             
     3  2  2.50      -358.3853  10.0000                                                             
     4  0  0.50       -95.0341   2.0000                                                             
     4  1  1.50       -58.5511   6.0000                                                             
     4  2  2.50        -7.4440  10.0000                                                             
     5  0  0.50        -4.4045   1.0000                                                             
     5  1  0.50        -1.3606   0.0000                                                             
     4  3  2.50        -1.3606   0.0000                                                             
   Description                                                                                      
     l       E           TYP  RCUT    TYP  RCUT                                                     
     2     -7.4439781     23  2.400                                                                 
     2     -8.8045607     23  2.400                                                                 
     0     -4.4044681     23  2.400                                                                 
     0      1.9520038     23  2.400                                                                 
     1     -1.3605826     23  2.500                                                                 
     1     27.2116520     23  2.500                                                                 
     3     -4.0817478     23  2.400                                                                 
  local pseudopotential read in
  partial core-charges read in
  partial kinetic energy density read in
  atomic valenz-charges read in
  non local Contribution for L=           2  read in
    real space projection operators read in
  non local Contribution for L=           2  read in
    real space projection operators read in
  non local Contribution for L=           0  read in
    real space projection operators read in
  non local Contribution for L=           0  read in
    real space projection operators read in
  non local Contribution for L=           1  read in
    real space projection operators read in
  non local Contribution for L=           1  read in
    real space projection operators read in
    PAW grid and wavefunctions read in
 
   number of l-projection  operators is LMAX  =           6
   number of lm-projection operators is LMMAX =          18
 
 POTCAR:    PAW_PBE Pt 04Feb2005                  
   VRHFIN =Pt: s1d9                                                                                 
   LEXCH  = PE                                                                                      
   EATOM  =   729.1176 eV,   53.5886 Ry                                                             
                                                                                                    
   TITEL  = PAW_PBE Pt 04Feb2005                                                                    
   LULTRA =        F    use ultrasoft PP ?                                                          
   IUNSCR =        1    unscreen: 0-lin 1-nonlin 2-no                                               
   RPACOR =    2.330    partial core radius                                                         
   POMASS =  195.080; ZVAL   =   10.000    mass and valenz                                          
   RCORE  =    2.600    outmost cutoff radius                                                       
   RWIGS  =    2.750; RWIGS  =    1.455    wigner-seitz radius (au A)                               
   ENMAX  =  230.283; ENMIN  =  172.712 eV                                                          
   ICORE  =        3    local potential                                                             
   LCOR   =        T    correct aug charges                                                         
   LPAW   =        T    paw PP                                                                      
   EAUG   =  358.966                                                                                
   DEXC   =    0.000                                                                                
   RMAX   =    2.658    core radius for proj-oper                                                   
   RAUG   =    1.300    factor for augmentation sphere                                              
   RDEP   =    2.761    radius for radial grids                                                     
   RDEPT  =    2.203    core radius for aug-charge                                                  
                                                                                                    
   Atomic configuration                                                                             
   16 entries                                                                                       
     n  l   j            E        occ.                                                              
     1  0  0.50    -78401.1885   2.0000                                                             
     2  0  0.50    -13770.7750   2.0000                                                             
     2  1  1.50    -11931.0468   6.0000                                                             
     3  0  0.50     -3234.7234   2.0000                                                             
     3  1  1.50     -2699.2216   6.0000                                                             
     3  2  2.50     -2119.5714  10.0000                                                             
     4  0  0.50      -695.1528   2.0000                                                             
     4  1  1.50      -519.6034   6.0000                                                             
     4  2  2.50      -306.6786  10.0000                                                             
     4  3  3.50       -70.1041  14.0000                                                             
     5  0  0.50      -101.7747   2.0000                                                             
     5  1  1.50       -55.9873   6.0000                                                             
     5  2  2.50        -6.1423   9.0000                                                             
     6  0  0.50        -5.6573   1.0000                                                             
     6  1  1.50        -6.8029   0.0000                                                             
     5  3  2.50        -1.3606   0.0000                                                             
   Description                                                                                      
     l       E           TYP  RCUT    TYP  RCUT                                                     
     2     -6.1423404     23  2.500                                                                 
     2     -7.5029230     23  2.500                                                                 
     0     -5.6573207     23  2.500                                                                 
     0      0.7416693     23  2.500                                                                 
     1     -2.7211652     23  2.600                                                                 
     1     20.4087390     23  2.600                                                                 
     3     -1.3605826     23  2.500                                                                 
  local pseudopotential read in
  partial core-charges read in
  partial kinetic energy density read in
  atomic valenz-charges read in
  non local Contribution for L=           2  read in
    real space projection operators read in
  non local Contribution for L=           2  read in
    real space projection operators read in
  non local Contribution for L=           0  read in
    real space projection operators read in
  non local Contribution for L=           0  read in
    real space projection operators read in
  non local Contribution for L=           1  read in
    real space projection operators read in
  non local Contribution for L=           1  read in
    real space projection operators read in
    PAW grid and wavefunctions read in
 
   number of l-projection  operators is LMAX  =           6
   number of lm-projection operators is LMMAX =          18
 
 POTCAR:    PAW_PBE H 15Jun2001                   
   VRHFIN =H: ultrasoft test                                                                        
   LEXCH  = PE                                                                                      
   EATOM  =    12.4884 eV,    0.9179 Ry                                                             
                                                                                                    
   TITEL  = PAW_PBE H 15Jun2001                                                                     
   LULTRA =        F    use ultrasoft PP ?                                                          
   IUNSCR =        0    unscreen: 0-lin 1-nonlin 2-no                                               
   RPACOR =    0.000    partial core radius                                                         
   POMASS =    1.000; ZVAL   =    1.000    mass and valenz                                          
   RCORE  =    1.100    outmost cutoff radius                                                       
   RWIGS  =    0.700; RWIGS  =    0.370    wigner-seitz radius (au A)                               
   ENMAX  =  250.000; ENMIN  =  200.000 eV                                                          
   RCLOC  =    0.701    cutoff for local pot                                                        
   LCOR   =        T    correct aug charges                                                         
   LPAW   =        T    paw PP                                                                      
   EAUG   =  400.000                                                                                
   RMAX   =    1.123    core radius for proj-oper                                                   
   RAUG   =    1.200    factor for augmentation sphere                                              
   RDEP   =    1.112    radius for radial grids                                                     
   RDEPT  =    0.926    core radius for aug-charge                                                  
                                                                                                    
   Atomic configuration                                                                             
    2 entries                                                                                       
     n  l   j            E        occ.                                                              
     1  0  0.50        -6.4927   1.0000                                                             
     2  1  0.50        -3.4015   0.0000                                                             
   Description                                                                                      
     l       E           TYP  RCUT    TYP  RCUT                                                     
     0     -6.4927494     23  1.100                                                                 
     0      6.8029130     23  1.100                                                                 
     1     -4.0817478     23  1.100                                                                 
  local pseudopotential read in
  atomic valenz-charges read in
  non local Contribution for L=           0  read in
    real space projection operators read in
  non local Contribution for L=           0  read in
    real space projection operators read in
  non local Contribution for L=           1  read in
    real space projection operators read in
    PAW grid and wavefunctions read in
 
   number of l-projection  operators is LMAX  =           3
   number of lm-projection operators is LMMAX =           5
 
 Optimization of the real space projectors (new method)

 maximal supplied QI-value         = 15.12
 optimisation between [QCUT,QGAM] = [ 11.34, 22.83] = [ 36.00,145.93] Ry 
 Optimized for a Real-space Cutoff    1.43 Angstroem

   l    n(q)    QCUT    max X(q) W(low)/X(q) W(high)/X(q)  e(spline) 
   2      9    11.338    53.897    0.16E-03    0.20E-03    0.28E-06
   2      9    11.338    52.416    0.16E-03    0.20E-03    0.29E-06
   0     10    11.338   122.045    0.31E-04    0.76E-04    0.15E-06
   0     10    11.338    73.629    0.30E-04    0.72E-04    0.15E-06
   1      9    11.338    15.255    0.20E-03    0.19E-04    0.17E-06
   1      9    11.338     9.562    0.16E-03    0.15E-04    0.14E-06
 Optimization of the real space projectors (new method)

 maximal supplied QI-value         = 14.36
 optimisation between [QCUT,QGAM] = [ 11.35, 22.84] = [ 36.05,146.02] Ry 
 Optimized for a Real-space Cutoff    1.47 Angstroem

   l    n(q)    QCUT    max X(q) W(low)/X(q) W(high)/X(q)  e(spline) 
   2      9    11.346    66.195    0.31E-03    0.12E-04    0.29E-06
   2      9    11.346    64.643    0.32E-03    0.12E-04    0.29E-06
   0     10    11.346    95.520    0.90E-04    0.16E-04    0.19E-06
   0     10    11.346    63.403    0.87E-04    0.15E-04    0.19E-06
   1     10    11.346    19.961    0.17E-03    0.21E-03    0.11E-06
   1     10    11.346    13.289    0.14E-03    0.18E-03    0.89E-07
 Optimization of the real space projectors (new method)

 maximal supplied QI-value         = 34.20
 optimisation between [QCUT,QGAM] = [ 11.29, 22.57] = [ 35.68,142.71] Ry 
 Optimized for a Real-space Cutoff    1.16 Angstroem

   l    n(q)    QCUT    max X(q) W(low)/X(q) W(high)/X(q)  e(spline) 
   0      8    11.287    19.460    0.40E-03    0.73E-03    0.16E-06
   0      8    11.287    12.209    0.38E-03    0.70E-03    0.15E-06
   1      7    11.287     4.655    0.22E-03    0.25E-04    0.22E-06
  PAW_PBE Ag 02Apr2005                  :
 energy of atom  1       EATOM=-1037.2675
 kinetic energy error for atom=    0.0052 (will be added to EATOM!!)
  PAW_PBE Pt 04Feb2005                  :
 energy of atom  2       EATOM= -729.1176
 kinetic energy error for atom=    0.0039 (will be added to EATOM!!)
  PAW_PBE H 15Jun2001                   :
 energy of atom  3       EATOM=  -12.4884
 kinetic energy error for atom=    0.0020 (will be added to EATOM!!)
 
 
 POSCAR: Ag-Pt-H2
  positions in direct lattice
  velocities in cartesian coordinates
 exchange correlation table for  LEXCH =        8
   RHO(1)=    0.500       N(1)  =     2000
   RHO(2)=  100.500       N(2)  =     4000

 VTST: version 3.2, (02/03/18)

 CHAIN: initializing optimizer
 
 OPT: Using VASP Conjugate-Gradient optimizer
 CHAIN: Read ICHAIN            0
 
 POSCAR: Ag-Pt-H2
  positions in direct lattice
  velocities in cartesian coordinates
 


--------------------------------------------------------------------------------------------------------


 ion  position               nearest neighbor table
   1  0.000  0.000  0.238-   2 2.93   8 2.93   7 2.93   6 2.93   4 2.93  12 2.93  16 2.93  10 2.93
                             3 2.93
   2  0.333  0.000  0.238-   1 2.93   8 2.93   9 2.93   3 2.93   4 2.93   5 2.93  10 2.93  17 2.93
                            11 2.93
   3  0.667  0.000  0.238-   9 2.93   2 2.93   5 2.93  11 2.93   7 2.93  18 2.93   1 2.93   6 2.93
                            12 2.93
   4  0.000  0.333  0.238-   5 2.93   6 2.93   2 2.93   1 2.93   7 2.93  13 2.93  15 2.93   9 2.93
                            10 2.93
   5  0.333  0.333  0.238-   4 2.93   3 2.93   7 2.93   2 2.93   8 2.93  14 2.93  13 2.93  11 2.93
                             6 2.93
   6  0.667  0.333  0.238-   4 2.93   9 2.93   1 2.93  15 2.93   8 2.93  12 2.93   3 2.93   5 2.93
                            14 2.93
   7  0.000  0.667  0.238-   8 2.93   1 2.93   5 2.93   3 2.93   4 2.93  16 2.93  18 2.93  13 2.93
                             9 2.93
   8  0.333  0.667  0.238-   7 2.93   1 2.93   2 2.93   9 2.93   5 2.93  16 2.93   6 2.93  17 2.93
                            14 2.93
   9  0.667  0.667  0.238-   3 2.93   2 2.93   8 2.93   6 2.93  17 2.93   4 2.93  15 2.93   7 2.93
                            18 2.93
  10  0.111  0.111  0.346-  20 2.89  19 2.93  26 2.93  12 2.93  16 2.93  15 2.93  17 2.93  13 2.93
                            11 2.93   2 2.93   1 2.93   4 2.93
  11  0.444  0.111  0.346-  21 2.90  20 2.90  27 2.91  14 2.93  17 2.93  18 2.93   3 2.93  12 2.93
                            13 2.93  10 2.93   5 2.93   2 2.93
  12  0.778  0.111  0.346-  21 2.89  25 2.93  19 2.93  10 2.93  16 2.93  18 2.93  15 2.93  11 2.93
                             1 2.93  14 2.93   6 2.93   3 2.93
  13  0.111  0.444  0.346-  20 2.90  23 2.90  22 2.91  15 2.93  14 2.93  18 2.93  10 2.93  11 2.93
                            16 2.93   4 2.93   5 2.93   7 2.93
  14  0.444  0.444  0.346-  23 2.90  21 2.90  24 2.91  13 2.93  11 2.93  16 2.93   5 2.93  12 2.93
                            17 2.93   8 2.93  15 2.93   6 2.93
  15  0.778  0.444  0.346-  24 2.91  22 2.91  19 2.92  13 2.93  10 2.93  12 2.93  17 2.93  18 2.93
                             4 2.93   6 2.93   9 2.93  14 2.93
  16  0.111  0.778  0.346-  23 2.89  26 2.93  25 2.93  18 2.93  12 2.93  10 2.93  14 2.93  17 2.93
                            13 2.93   7 2.93   8 2.93   1 2.93
  17  0.444  0.778  0.346-  27 2.91  24 2.91  26 2.92  11 2.93  10 2.93   9 2.93  18 2.93  15 2.93
                            16 2.93   2 2.93  14 2.93   8 2.93
  18  0.778  0.778  0.346-  22 2.91  27 2.91  25 2.92  16 2.93  12 2.93  13 2.93  11 2.93  17 2.93
                            15 2.93   7 2.93   3 2.93   9 2.93
  19  0.888  0.223  0.454-  28 2.91  15 2.92  20 2.92  21 2.92  24 2.92  22 2.92  10 2.93  12 2.93
                            32 2.93  31 2.93  26 2.94  25 2.94
  20  0.221  0.221  0.452-  36 2.81  10 2.89  13 2.90  11 2.90  19 2.92  26 2.92  31 2.92  29 2.92
                            27 2.93  22 2.93  21 2.95  23 2.95
  21  0.557  0.221  0.452-  36 2.81  12 2.89  11 2.90  14 2.90  25 2.92  19 2.92  30 2.92  32 2.92
                            27 2.93  24 2.93  20 2.95  23 2.95
  22  0.889  0.556  0.453-  35 2.91  18 2.91  15 2.91  13 2.91  25 2.92  19 2.92  24 2.93  27 2.93
                            33 2.93  31 2.93  23 2.93  20 2.93
  23  0.221  0.557  0.452-  36 2.81  16 2.89  14 2.90  13 2.90  26 2.92  25 2.92  34 2.92  33 2.92
                            22 2.93  24 2.93  21 2.95  20 2.95
  24  0.556  0.556  0.453-  35 2.91  15 2.91  17 2.91  14 2.91  19 2.92  26 2.92  27 2.93  22 2.93
                            32 2.93  34 2.93  23 2.93  21 2.93
  25  0.888  0.888  0.454-  28 2.91  18 2.92  23 2.92  21 2.92  22 2.92  27 2.92  16 2.93  12 2.93
                            33 2.93  30 2.93  26 2.94  19 2.94
  26  0.223  0.888  0.454-  28 2.91  17 2.92  23 2.92  20 2.92  27 2.92  24 2.92  16 2.93  10 2.93
                            34 2.93  29 2.93  25 2.94  19 2.94
  27  0.556  0.889  0.453-  35 2.91  17 2.91  18 2.91  11 2.91  26 2.92  25 2.92  24 2.93  22 2.93
                            29 2.93  30 2.93  20 2.93  21 2.93
  28  0.000  0.000  0.560-  26 2.91  25 2.91  19 2.91  29 2.95  34 2.95  33 2.95  32 2.95  31 2.95
                            30 2.95
  29  0.333  0.004  0.561-  30 2.89  31 2.89  36 2.90  20 2.92  27 2.93  26 2.93  35 2.95  28 2.95
                            34 3.00
  30  0.662  0.004  0.561-  29 2.89  32 2.89  36 2.90  21 2.92  27 2.93  25 2.93  35 2.95  28 2.95
                            33 3.00
  31  0.004  0.333  0.561-  37 2.11  33 2.89  29 2.89  36 2.90  20 2.92  22 2.93  19 2.93  35 2.95
                            28 2.95  32 3.00
  32  0.662  0.333  0.561-  38 2.11  34 2.89  30 2.89  36 2.90  21 2.92  24 2.93  19 2.93  35 2.95
                            28 2.95  31 3.00
  33  0.004  0.662  0.561-  31 2.89  34 2.89  36 2.90  23 2.92  22 2.93  25 2.93  35 2.95  28 2.95
                            30 3.00
  34  0.333  0.662  0.561-  32 2.89  33 2.89  36 2.90  23 2.92  24 2.93  26 2.93  35 2.95  28 2.95
                            29 3.00
  35  0.667  0.667  0.560-  24 2.91  27 2.91  22 2.91  30 2.95  32 2.95  29 2.95  34 2.95  31 2.95
                            33 2.95
  36  0.333  0.333  0.553-  38 1.63  37 1.63  21 2.81  20 2.81  23 2.81  31 2.90  33 2.90  30 2.90
                            29 2.90  34 2.90  32 2.90
  37  0.216  0.325  0.608-  36 1.63  31 2.11
  38  0.459  0.325  0.608-  36 1.63  32 2.11
 
  LATTYP: Found a hexagonal cell.
 ALAT       =     8.7913665772
 C/A-ratio  =     2.5227160501
  
  Lattice vectors:
  
 A1 = (  -4.3956832886,  -7.6135467898,   0.0000000000)
 A2 = (   8.7913665771,   0.0000000000,   0.0000000000)
 A3 = (   0.0000000000,   0.0000000000,  22.1781215668)


Analysis of symmetry for initial positions (statically):
=====================================================================
 Subroutine PRICEL returns:
 Original cell was already a primitive cell.
 

 Routine SETGRP: Setting up the symmetry group for a 
 hexagonal supercell.


 Subroutine GETGRP returns: Found  2 space group operations
 (whereof  2 operations were pure point group operations)
 out of a pool of 24 trial point group operations.


The static configuration has the point symmetry C_1h.


Analysis of symmetry for dynamics (positions and initial velocities):
=====================================================================
 Subroutine PRICEL returns:
 Original cell was already a primitive cell.
 

 Routine SETGRP: Setting up the symmetry group for a 
 hexagonal supercell.


 Subroutine GETGRP returns: Found  2 space group operations
 (whereof  2 operations were pure point group operations)
 out of a pool of 24 trial point group operations.


The dynamic configuration has the point symmetry C_1h.


Analysis of constrained symmetry for selective dynamics:
=====================================================================
 Subroutine PRICEL returns:
 Original cell was already a primitive cell.
 

 Routine SETGRP: Setting up the symmetry group for a 
 hexagonal supercell.


 Subroutine GETGRP returns: Found  2 space group operations
 (whereof  2 operations were pure point group operations)
 out of a pool of 24 trial point group operations.


The constrained configuration has the point symmetry C_1h.


 Subroutine INISYM returns: Found  2 space group operations
 (whereof  2 operations are pure point group operations),
 and found     1 'primitive' translations


----------------------------------------------------------------------------------------

                                     Primitive cell                                     

  volume of cell :    1484.4589

  direct lattice vectors                    reciprocal lattice vectors
     8.791366577  0.000000000  0.000000000     0.113747958 -0.065672414  0.000000000
     4.395683289  7.613546790  0.000000000     0.000000000  0.131344829  0.000000000
     0.000000000  0.000000000 22.178121567     0.000000000  0.000000000  0.045089481

  length of vectors
     8.791366577  8.791366577 22.178121567     0.131344829  0.131344829  0.045089481

  position of ions in fractional coordinates (direct lattice)
     0.000000000  0.000000000  0.238171124
     0.333333313  0.000000000  0.238171124
     0.666666627  0.000000000  0.238171124
     0.000000000  0.333333343  0.238171124
     0.333333313  0.333333343  0.238171124
     0.666666687  0.333333343  0.238171124
     0.000000000  0.666666687  0.238171124
     0.333333313  0.666666687  0.238171124
     0.666666627  0.666666687  0.238171124
     0.111111104  0.111111112  0.346057051
     0.444444448  0.111111112  0.346057051
     0.777777791  0.111111112  0.346057051
     0.111111097  0.444444448  0.346057051
     0.444444418  0.444444448  0.346057051
     0.777777791  0.444444448  0.346057051
     0.111111104  0.777777791  0.346057051
     0.444444448  0.777777791  0.346057051
     0.777777791  0.777777791  0.346057051
     0.888351115  0.223297786  0.453645795
     0.221460933  0.221460948  0.452135443
     0.557078073  0.221460948  0.452135443
     0.888564182  0.555717939  0.452932934
     0.221460948  0.557078133  0.452135443
     0.555717939  0.555717939  0.452932934
     0.888351115  0.888351115  0.453645795
     0.223297756  0.888351115  0.453645795
     0.555717879  0.888564182  0.452932934
     0.000000000  0.000000000  0.560116231
     0.333362240  0.004221406  0.560670276
     0.662416294  0.004221406  0.560670276
     0.004221406  0.333362270  0.560670276
     0.662416354  0.333362270  0.560670276
     0.004221406  0.662416354  0.560670276
     0.333362240  0.662416354  0.560670276
     0.666666627  0.666666687  0.559672782
     0.333333313  0.333333343  0.552641797
     0.215996284  0.324741916  0.608018049
     0.459261770  0.324741916  0.608018049

  ion indices of the primitive-cell ions
   primitive index   ion index
                 1           1
                 2           2
                 3           3
                 4           4
                 5           5
                 6           6
                 7           7
                 8           8
                 9           9
                10          10
                11          11
                12          12
                13          13
                14          14
                15          15
                16          16
                17          17
                18          18
                19          19
                20          20
                21          21
                22          22
                23          23
                24          24
                25          25
                26          26
                27          27
                28          28
                29          29
                30          30
                31          31
                32          32
                33          33
                34          34
                35          35
                36          36
                37          37
                38          38

----------------------------------------------------------------------------------------

 
 
 KPOINTS: Automatic mesh                          

Automatic generation of k-mesh.
 Grid dimensions read from file:
 generate k-points for:    8    8    1

 Generating k-lattice:

  Cartesian coordinates                     Fractional coordinates (reciprocal lattice)
     0.014218495 -0.008209052  0.000000000     0.125000000  0.000000000  0.000000000
     0.000000000  0.016418104  0.000000000     0.000000000  0.125000000  0.000000000
     0.000000000  0.000000000  0.045089481     0.000000000  0.000000000  1.000000000

  Length of vectors
     0.016418104  0.016418104  0.045089481

  Shift w.r.t. Gamma in fractional coordinates (k-lattice)
     0.000000000  0.000000000  0.000000000

 TETIRR: Found    100 inequivalent tetrahedra from      384
 
 Subroutine IBZKPT returns following result:
 ===========================================
 
 Found     21 irreducible k-points:
 
 Following reciprocal coordinates:
            Coordinates               Weight
  0.000000  0.000000  0.000000      1.000000
  0.125000 -0.000000  0.000000      4.000000
  0.000000  0.125000  0.000000      2.000000
  0.250000 -0.000000  0.000000      4.000000
  0.000000  0.250000  0.000000      2.000000
  0.375000 -0.000000  0.000000      4.000000
  0.000000  0.375000  0.000000      2.000000
  0.500000 -0.000000  0.000000      2.000000
  0.000000  0.500000  0.000000      1.000000
  0.250000  0.125000  0.000000      2.000000
  0.125000  0.250000  0.000000      4.000000
  0.375000  0.125000  0.000000      4.000000
  0.250000  0.375000  0.000000      4.000000
 -0.125000  0.250000  0.000000      4.000000
  0.500000  0.125000  0.000000      4.000000
  0.375000  0.500000  0.000000      4.000000
 -0.125000  0.375000  0.000000      4.000000
  0.500000  0.250000  0.000000      2.000000
  0.250000  0.500000  0.000000      4.000000
 -0.375000  0.250000  0.000000      4.000000
 -0.250000  0.375000  0.000000      2.000000
 
 Following cartesian coordinates:
            Coordinates               Weight
  0.000000  0.000000  0.000000      1.000000
  0.014218 -0.008209  0.000000      4.000000
  0.000000  0.016418  0.000000      2.000000
  0.028437 -0.016418  0.000000      4.000000
  0.000000  0.032836  0.000000      2.000000
  0.042655 -0.024627  0.000000      4.000000
  0.000000  0.049254  0.000000      2.000000
  0.056874 -0.032836  0.000000      2.000000
  0.000000  0.065672  0.000000      1.000000
  0.028437 -0.000000  0.000000      2.000000
  0.014218  0.024627  0.000000      4.000000
  0.042655 -0.008209  0.000000      4.000000
  0.028437  0.032836  0.000000      4.000000
 -0.014218  0.041045  0.000000      4.000000
  0.056874 -0.016418  0.000000      4.000000
  0.042655  0.041045  0.000000      4.000000
 -0.014218  0.057463  0.000000      4.000000
  0.056874 -0.000000  0.000000      2.000000
  0.028437  0.049254  0.000000      4.000000
 -0.042655  0.057463  0.000000      4.000000
 -0.028437  0.065672  0.000000      2.000000
 


--------------------------------------------------------------------------------------------------------




 Dimension of arrays:
   k-points           NKPTS =     21   k-points in BZ     NKDIM =     21   number of bands    NBANDS=    252
   number of dos      NEDOS =    301   number of ions     NIONS =     38
   non local maximal  LDIM  =      6   non local SUM 2l+1 LMDIM =     18
   total plane-waves  NPLWV = 290304
   max r-space proj   IRMAX =   2675   max aug-charges    IRDMAX=  12043
   dimension x,y,z NGX =    48 NGY =   48 NGZ =  126
   dimension x,y,z NGXF=    96 NGYF=   96 NGZF=  252
   support grid    NGXF=    96 NGYF=   96 NGZF=  252
   ions per type =              35   1   2
   NGX,Y,Z   is equivalent  to a cutoff of   9.08,  9.08,  9.44 a.u.
   NGXF,Y,Z  is equivalent  to a cutoff of  18.15, 18.15, 18.89 a.u.

 SYSTEM =  unknown system                          
 POSCAR =  Ag-Pt-H2                                

 Startparameter for this run:
   NWRITE =      2    write-flag & timer
   PREC   = normal    normal or accurate (medium, high low for compatibility)
   ISTART =      0    job   : 0-new  1-cont  2-samecut
   ICHARG =     11    charge: 1-file 2-atom 10-const
   ISPIN  =      1    spin polarized calculation?
   LNONCOLLINEAR =      F non collinear calculations
   LSORBIT =      F    spin-orbit coupling
   INIWAV =      1    electr: 0-lowe 1-rand  2-diag
   LASPH  =      F    aspherical Exc in radial PAW
   METAGGA=      F    non-selfconsistent MetaGGA calc.

 Electronic Relaxation 1
   ENCUT  =  500.0 eV  36.75 Ry    6.06 a.u.  16.03 16.03 40.44*2*pi/ulx,y,z
   ENINI  =  500.0     initial cutoff
   ENAUG  =  412.5 eV  augmentation charge cutoff
   NELM   =    150;   NELMIN=  2; NELMDL= -5     # of ELM steps 
   EDIFF  = 0.1E-04   stopping-criterion for ELM
   LREAL  =      T    real-space projection
   NLSPLINE    = F    spline interpolate recip. space projectors
   LCOMPAT=      F    compatible to vasp.4.4
   GGA_COMPAT  = T    GGA compatible to vasp.4.4-vasp.4.6
   LMAXPAW     = -100 max onsite density
   LMAXMIX     =    2 max onsite mixed and CHGCAR
   VOSKOWN=      0    Vosko Wilk Nusair interpolation
   ROPT   =   -0.00050  -0.00050  -0.00050
 Ionic relaxation
   EDIFFG = -.1E-01   stopping-criterion for IOM
   NSW    =      0    number of steps for IOM
   NBLOCK =      1;   KBLOCK =      1    inner block; outer block 
   IBRION =     -1    ionic relax: 0-MD 1-quasi-New 2-CG
   NFREE  =      1    steps in history (QN), initial steepest desc. (CG)
   ISIF   =      2    stress and relaxation
   IWAVPR =     10    prediction:  0-non 1-charg 2-wave 3-comb
   ISYM   =      2    0-nonsym 1-usesym 2-fastsym
   LCORR  =      T    Harris-Foulkes like correction to forces

   POTIM  = 0.5000    time-step for ionic-motion
   TEIN   =    0.0    initial temperature
   TEBEG  =    0.0;   TEEND  =   0.0 temperature during run
   SMASS  =  -3.00    Nose mass-parameter (am)
   estimated Nose-frequenzy (Omega)   =  0.10E-29 period in steps = 0.13E+47 mass=  -0.177E-26a.u.
   SCALEE = 1.0000    scale energy and forces
   NPACO  =    256;   APACO  = 16.0  distance and # of slots for P.C.
   PSTRESS=    0.0 pullay stress

  Mass of Ions in am
   POMASS = 107.87195.08  1.00
  Ionic Valenz
   ZVAL   =  11.00 10.00  1.00
  Atomic Wigner-Seitz radii
   RWIGS  =  -1.00 -1.00 -1.00
  virtual crystal weights 
   VCA    =   1.00  1.00  1.00
   NELECT =     397.0000    total number of electrons
   NUPDOWN=      -1.0000    fix difference up-down

 DOS related values:
   EMIN   =  10.00;   EMAX   =-10.00  energy-range for DOS
   EFERMI =   0.00
   ISMEAR =    -5;   SIGMA  =   0.10  broadening in eV -4-tet -1-fermi 0-gaus

 Electronic relaxation 2 (details)
   IALGO  =     68    algorithm
   LDIAG  =      T    sub-space diagonalisation (order eigenvalues)
   LSUBROT=      F    optimize rotation matrix (better conditioning)
   TURBO    =      0    0=normal 1=particle mesh
   IRESTART =      0    0=no restart 2=restart with 2 vectors
   NREBOOT  =      0    no. of reboots
   NMIN     =      0    reboot dimension
   EREF     =   0.00    reference energy to select bands
   IMIX   =      4    mixing-type and parameters
     AMIX     =   0.40;   BMIX     =  1.00
     AMIX_MAG =   1.60;   BMIX_MAG =  1.00
     AMIN     =   0.10
     WC   =   100.;   INIMIX=   1;  MIXPRE=   1;  MAXMIX= -45

 Intra band minimization:
   WEIMIN = 0.0000     energy-eigenvalue tresh-hold
   EBREAK =  0.99E-08  absolut break condition
   DEPER  =   0.30     relativ break condition  

   TIME   =   0.40     timestep for ELM

  volume/ion in A,a.u.               =      39.06       263.62
  Fermi-wavevector in a.u.,A,eV,Ry     =   1.054749  1.993186 15.136407  1.112495
  Thomas-Fermi vector in A             =   2.189921
 
 Write flags
   LWAVE        =      F    write WAVECAR
   LDOWNSAMPLE  =      F    k-point downsampling of WAVECAR
   LCHARG       =      F    write CHGCAR
   LVTOT        =      F    write LOCPOT, total local potential
   LVHAR        =      F    write LOCPOT, Hartree potential only
   LELF         =      F    write electronic localiz. function (ELF)
   LORBIT       =     10    0 simple, 1 ext, 2 COOP (PROOUT), +10 PAW based schemes


 Dipole corrections
   LMONO  =      F    monopole corrections only (constant potential shift)
   LDIPOL =      F    correct potential (dipole corrections)
   IDIPOL =      0    1-x, 2-y, 3-z, 4-all directions 
   EPSILON=  1.0000000 bulk dielectric constant

 Exchange correlation treatment:
   GGA     =    --    GGA type
   LEXCH   =     8    internal setting for exchange type
   VOSKOWN=      0    Vosko Wilk Nusair interpolation
   LHFCALC =     F    Hartree Fock is set to
   LHFONE  =     F    Hartree Fock one center treatment
   AEXX    =    0.0000 exact exchange contribution

 Linear response parameters
   LEPSILON=     F    determine dielectric tensor
   LRPA    =     F    only Hartree local field effects (RPA)
   LNABLA  =     F    use nabla operator in PAW spheres
   LVEL    =     F    velocity operator in full k-point grid
   LINTERFAST=   F  fast interpolation
   KINTER  =     0    interpolate to denser k-point grid
   CSHIFT  =0.1000    complex shift for real part using Kramers Kronig
   OMEGAMAX=  -1.0    maximum frequency
   DEG_THRESHOLD= 0.2000000E-02 threshold for treating states as degnerate
   RTIME   =   -0.100 relaxation time in fs
  (WPLASMAI=    0.000 imaginary part of plasma frequency in eV, 0.658/RTIME)
   DFIELD  = 0.0000000 0.0000000 0.0000000 field for delta impulse in time
 
 Orbital magnetization related:
   ORBITALMAG=     F  switch on orbital magnetization
   LCHIMAG   =     F  perturbation theory with respect to B field
   DQ        =  0.001000  dq finite difference perturbation B field
   LLRAUG    =     F  two centre corrections for induced B field



--------------------------------------------------------------------------------------------------------


 Static calculation
 charge density and potential remain constant during run
 non-spin polarized calculation
 RMM-DIIS sequential band-by-band and
  variant of blocked Davidson during initial phase
 perform sub-space diagonalisation
    before iterative eigenvector-optimisation
 no mixing
 using additional bands           53
 real space projection scheme for non local part
 use partial core corrections
 calculate Harris-corrections to forces 
   (improved forces if not selfconsistent)
 use gradient corrections 
 WARNING: stress and forces are not correct
  (second derivative of E(xc) not defined)
 use of overlap-Matrix (Vanderbilt PP)
 Fermi weights with tetrahedron method with Bloechl corrections


--------------------------------------------------------------------------------------------------------


  energy-cutoff  :      500.00
  volume of cell :     1484.46
      direct lattice vectors                 reciprocal lattice vectors
     8.791366577  0.000000000  0.000000000     0.113747958 -0.065672414  0.000000000
     4.395683289  7.613546790  0.000000000     0.000000000  0.131344829  0.000000000
     0.000000000  0.000000000 22.178121567     0.000000000  0.000000000  0.045089481

  length of vectors
     8.791366577  8.791366577 22.178121567     0.131344829  0.131344829  0.045089481


 
 k-points in units of 2pi/SCALE and weight: Automatic mesh                          
   0.00000000  0.00000000  0.00000000       0.016
   0.01421849 -0.00820905  0.00000000       0.062
   0.00000000  0.01641810  0.00000000       0.031
   0.02843699 -0.01641810  0.00000000       0.062
   0.00000000  0.03283621  0.00000000       0.031
   0.04265548 -0.02462716  0.00000000       0.062
   0.00000000  0.04925431  0.00000000       0.031
   0.05687398 -0.03283621  0.00000000       0.031
   0.00000000  0.06567241  0.00000000       0.016
   0.02843699 -0.00000000  0.00000000       0.031
   0.01421849  0.02462716  0.00000000       0.062
   0.04265548 -0.00820905  0.00000000       0.062
   0.02843699  0.03283621  0.00000000       0.062
  -0.01421849  0.04104526  0.00000000       0.062
   0.05687398 -0.01641810  0.00000000       0.062
   0.04265548  0.04104526  0.00000000       0.062
  -0.01421849  0.05746336  0.00000000       0.062
   0.05687398 -0.00000000  0.00000000       0.031
   0.02843699  0.04925431  0.00000000       0.062
  -0.04265548  0.05746336  0.00000000       0.062
  -0.02843699  0.06567241  0.00000000       0.031
 
 k-points in reciprocal lattice and weights: Automatic mesh                          
   0.00000000  0.00000000  0.00000000       0.016
   0.12500000 -0.00000000  0.00000000       0.062
   0.00000000  0.12500000  0.00000000       0.031
   0.25000000 -0.00000000  0.00000000       0.062
   0.00000000  0.25000000  0.00000000       0.031
   0.37500000 -0.00000000  0.00000000       0.062
   0.00000000  0.37500000  0.00000000       0.031
   0.50000000 -0.00000000  0.00000000       0.031
   0.00000000  0.50000000  0.00000000       0.016
   0.25000000  0.12500000  0.00000000       0.031
   0.12500000  0.25000000  0.00000000       0.062
   0.37500000  0.12500000  0.00000000       0.062
   0.25000000  0.37500000  0.00000000       0.062
  -0.12500000  0.25000000  0.00000000       0.062
   0.50000000  0.12500000  0.00000000       0.062
   0.37500000  0.50000000  0.00000000       0.062
  -0.12500000  0.37500000  0.00000000       0.062
   0.50000000  0.25000000  0.00000000       0.031
   0.25000000  0.50000000  0.00000000       0.062
  -0.37500000  0.25000000  0.00000000       0.062
  -0.25000000  0.37500000  0.00000000       0.031
 
 position of ions in fractional coordinates (direct lattice) 
   0.00000000  0.00000000  0.23817112
   0.33333331  0.00000000  0.23817112
   0.66666663  0.00000000  0.23817112
   0.00000000  0.33333334  0.23817112
   0.33333331  0.33333334  0.23817112
   0.66666669  0.33333334  0.23817112
   0.00000000  0.66666669  0.23817112
   0.33333331  0.66666669  0.23817112
   0.66666663  0.66666669  0.23817112
   0.11111110  0.11111111  0.34605705
   0.44444445  0.11111111  0.34605705
   0.77777779  0.11111111  0.34605705
   0.11111110  0.44444445  0.34605705
   0.44444442  0.44444445  0.34605705
   0.77777779  0.44444445  0.34605705
   0.11111110  0.77777779  0.34605705
   0.44444445  0.77777779  0.34605705
   0.77777779  0.77777779  0.34605705
   0.88835112  0.22329779  0.45364579
   0.22146093  0.22146095  0.45213544
   0.55707807  0.22146095  0.45213544
   0.88856418  0.55571794  0.45293293
   0.22146095  0.55707813  0.45213544
   0.55571794  0.55571794  0.45293293
   0.88835112  0.88835112  0.45364579
   0.22329776  0.88835112  0.45364579
   0.55571788  0.88856418  0.45293293
   0.00000000  0.00000000  0.56011623
   0.33336224  0.00422141  0.56067028
   0.66241629  0.00422141  0.56067028
   0.00422141  0.33336227  0.56067028
   0.66241635  0.33336227  0.56067028
   0.00422141  0.66241635  0.56067028
   0.33336224  0.66241635  0.56067028
   0.66666663  0.66666669  0.55967278
   0.33333331  0.33333334  0.55264180
   0.21599628  0.32474192  0.60801805
   0.45926177  0.32474192  0.60801805
 
 position of ions in cartesian coordinates  (Angst):
   0.00000000  0.00000000  5.28218814
   2.93045535  0.00000000  5.28218814
   5.86091070  0.00000000  5.28218814
   1.46522781  2.53784900  5.28218814
   4.39568315  2.53784900  5.28218814
   7.32613904  2.53784900  5.28218814
   2.93045562  5.07569801  5.28218814
   5.86091096  5.07569801  5.28218814
   8.79136632  5.07569801  5.28218814
   1.46522770  0.84594965  7.67489535
   4.39568332  0.84594965  7.67489535
   7.32613893  0.84594965  7.67489535
   2.93045542  3.38379860  7.67489535
   5.86091083  3.38379860  7.67489535
   8.79136671  3.38379860  7.67489535
   4.39568328  5.92164760  7.67489535
   7.32613890  5.92164760  7.67489535
  10.25659451  5.92164760  7.67489535
   8.79136665  1.70008814 10.06101158
   2.92041644  1.68610329 10.02751482
   5.87094974  1.68610329 10.02751482
  10.25445351  4.23098453 10.04520166
   4.39568342  4.24134043 10.02751482
   7.32828017  4.23098453 10.04520166
  11.71473045  6.76350278 10.06101158
   5.86800258  6.76350278 10.06101158
   8.79136631  6.76512497 10.04520166
   0.00000000  0.00000000 12.42232586
   2.94926562  0.03213987 12.43461354
   5.84210043  0.03213987 12.43461354
   1.50246689  2.53806924 12.43461354
   7.28889995  2.53806924 12.43461354
   2.94888442  5.04333790 12.43461354
   5.84248215  5.04333790 12.43461354
   8.79136632  5.07569801 12.41249099
   4.39568315  2.53784900 12.25655696
   3.32636512  2.47243777 13.48469820
   5.46500118  2.47243777 13.48469820
 


--------------------------------------------------------------------------------------------------------


 k-point   1 :   0.0000 0.0000 0.0000  plane waves:   37683
 k-point   2 :   0.1250-0.0000 0.0000  plane waves:   37658
 k-point   3 :   0.0000 0.1250 0.0000  plane waves:   37658
 k-point   4 :   0.2500-0.0000 0.0000  plane waves:   37682
 k-point   5 :   0.0000 0.2500 0.0000  plane waves:   37682
 k-point   6 :   0.3750-0.0000 0.0000  plane waves:   37686
 k-point   7 :   0.0000 0.3750 0.0000  plane waves:   37686
 k-point   8 :   0.5000-0.0000 0.0000  plane waves:   37668
 k-point   9 :   0.0000 0.5000 0.0000  plane waves:   37668
 k-point  10 :   0.2500 0.1250 0.0000  plane waves:   37666
 k-point  11 :   0.1250 0.2500 0.0000  plane waves:   37666
 k-point  12 :   0.3750 0.1250 0.0000  plane waves:   37708
 k-point  13 :   0.2500 0.3750 0.0000  plane waves:   37708
 k-point  14 :  -0.1250 0.2500 0.0000  plane waves:   37708
 k-point  15 :   0.5000 0.1250 0.0000  plane waves:   37726
 k-point  16 :   0.3750 0.5000 0.0000  plane waves:   37726
 k-point  17 :  -0.1250 0.3750 0.0000  plane waves:   37726
 k-point  18 :   0.5000 0.2500 0.0000  plane waves:   37706
 k-point  19 :   0.2500 0.5000 0.0000  plane waves:   37706
 k-point  20 :  -0.3750 0.2500 0.0000  plane waves:   37686
 k-point  21 :  -0.2500 0.3750 0.0000  plane waves:   37686

 maximum and minimum number of plane-waves per node :     37726    37658

 maximum number of plane-waves:     37726
 maximum index in each direction: 
   IXMAX=   16   IYMAX=   16   IZMAX=   40
   IXMIN=  -16   IYMIN=  -16   IZMIN=  -40


 serial   3D FFT for wavefunctions
 parallel 3D FFT for charge:
    minimum data exchange during FFTs selected (reduces bandwidth)


 total amount of memory used by VASP MPI-rank0   184071. kBytes
=======================================================================

   base      :      30000. kBytes
   nonlr-proj:      15103. kBytes
   fftplans  :       4330. kBytes
   grid      :      17879. kBytes
   one-center:        590. kBytes
   wavefun   :     116169. kBytes
 
     INWAV:  cpu time    0.0000: real time    0.0001
 initial charge density was supplied:
 number of electron     396.9999896 magnetization 
 keeping initial charge density in first step


--------------------------------------------------------------------------------------------------------


 Maximum index for non-local projection operator         2566
 Maximum index for augmentation-charges          702 (set IRDMAX)


--------------------------------------------------------------------------------------------------------


 First call to EWALD:  gamma=   0.155
 Maximum number of real-space cells 4x 4x 2
 Maximum number of reciprocal cells 2x 2x 5

    FEWALD:  cpu time    0.0015: real time    0.0016


--------------------------------------- Iteration      1(   1)  ---------------------------------------


    POTLOK:  cpu time    0.0439: real time    0.0443
    SETDIJ:  cpu time    0.0048: real time    0.0048
     EDDAV:  cpu time   15.0508: real time   15.0524
 BZINTS: Fermi energy:    9.401223;  397.000000 electrons
         Band energy: 0.125073E+04;  BLOECHL correction:   -0.024177
       DOS:  cpu time    0.0345: real time    0.0345
    --------------------------------------------
      LOOP:  cpu time   15.1340: real time   15.1360

 eigenvalue-minimisations  : 10584
 total energy-change (2. order) : 0.2403564E+04  (-0.1833241E+05)
 number of electron     396.9999896 magnetization 
 augmentation part      396.9999896 magnetization 

 Free energy of the ion-electron system (eV)
  ---------------------------------------------------
  alpha Z        PSCENC =       750.51402263
  Ewald energy   TEWEN  =     99220.87227275
  -Hartree energ DENC   =   -137058.24844896
  -exchange      EXHF   =         0.00000000
  -V(xc)+E(xc)   XCENC  =      -380.25635828
  PAW double counting   =     39251.73992733   -37690.05037726
  entropy T*S    EENTRO =         0.00000000
  eigenvalues    EBANDS =      1250.72582365
  atomic energy  EATOM  =     37058.26735199
  Solvation  Ediel_sol  =         0.00000000
  ---------------------------------------------------
  free energy    TOTEN  =      2403.56421385 eV

  energy without entropy =     2403.56421385  energy(sigma->0) =     2403.56421385


--------------------------------------------------------------------------------------------------------




--------------------------------------- Iteration      1(   2)  ---------------------------------------


     EDDAV:  cpu time   15.6587: real time   15.6590
 BZINTS: Fermi energy:    1.350146;  397.000000 electrons
         Band energy:-0.117725E+04;  BLOECHL correction:   -0.052262
       DOS:  cpu time    0.0292: real time    0.0292
    --------------------------------------------
      LOOP:  cpu time   15.6879: real time   15.6881

 eigenvalue-minimisations  : 11172
 total energy-change (2. order) :-0.2427976E+04  (-0.2303980E+04)
 number of electron     396.9999896 magnetization 
 augmentation part      396.9999896 magnetization 

 Free energy of the ion-electron system (eV)
  ---------------------------------------------------
  alpha Z        PSCENC =       750.51402263
  Ewald energy   TEWEN  =     99220.87227275
  -Hartree energ DENC   =   -137058.24844896
  -exchange      EXHF   =         0.00000000
  -V(xc)+E(xc)   XCENC  =      -380.25635828
  PAW double counting   =     39251.73992733   -37690.05037726
  entropy T*S    EENTRO =         0.00000000
  eigenvalues    EBANDS =     -1177.24968347
  atomic energy  EATOM  =     37058.26735199
  Solvation  Ediel_sol  =         0.00000000
  ---------------------------------------------------
  free energy    TOTEN  =       -24.41129327 eV

  energy without entropy =      -24.41129327  energy(sigma->0) =      -24.41129327


--------------------------------------------------------------------------------------------------------




--------------------------------------- Iteration      1(   3)  ---------------------------------------


     EDDAV:  cpu time   16.6701: real time   16.6704
 BZINTS: Fermi energy:    0.962307;  397.000000 electrons
         Band energy:-0.125411E+04;  BLOECHL correction:   -0.067627
       DOS:  cpu time    0.0302: real time    0.0302
    --------------------------------------------
      LOOP:  cpu time   16.7004: real time   16.7006

 eigenvalue-minimisations  : 12040
 total energy-change (2. order) :-0.7685802E+02  (-0.7555286E+02)
 number of electron     396.9999896 magnetization 
 augmentation part      396.9999896 magnetization 

 Free energy of the ion-electron system (eV)
  ---------------------------------------------------
  alpha Z        PSCENC =       750.51402263
  Ewald energy   TEWEN  =     99220.87227275
  -Hartree energ DENC   =   -137058.24844896
  -exchange      EXHF   =         0.00000000
  -V(xc)+E(xc)   XCENC  =      -380.25635828
  PAW double counting   =     39251.73992733   -37690.05037726
  entropy T*S    EENTRO =         0.00000000
  eigenvalues    EBANDS =     -1254.10770172
  atomic energy  EATOM  =     37058.26735199
  Solvation  Ediel_sol  =         0.00000000
  ---------------------------------------------------
  free energy    TOTEN  =      -101.26931152 eV

  energy without entropy =     -101.26931152  energy(sigma->0) =     -101.26931152


--------------------------------------------------------------------------------------------------------




--------------------------------------- Iteration      1(   4)  ---------------------------------------


     EDDAV:  cpu time   16.9918: real time   16.9920
 BZINTS: Fermi energy:    0.956050;  397.000000 electrons
         Band energy:-0.125504E+04;  BLOECHL correction:   -0.067374
       DOS:  cpu time    0.0302: real time    0.0302
    --------------------------------------------
      LOOP:  cpu time   17.0220: real time   17.0222

 eigenvalue-minimisations  : 12348
 total energy-change (2. order) :-0.9324840E+00  (-0.9320201E+00)
 number of electron     396.9999896 magnetization 
 augmentation part      396.9999896 magnetization 

 Free energy of the ion-electron system (eV)
  ---------------------------------------------------
  alpha Z        PSCENC =       750.51402263
  Ewald energy   TEWEN  =     99220.87227275
  -Hartree energ DENC   =   -137058.24844896
  -exchange      EXHF   =         0.00000000
  -V(xc)+E(xc)   XCENC  =      -380.25635828
  PAW double counting   =     39251.73992733   -37690.05037726
  entropy T*S    EENTRO =         0.00000000
  eigenvalues    EBANDS =     -1255.04018568
  atomic energy  EATOM  =     37058.26735199
  Solvation  Ediel_sol  =         0.00000000
  ---------------------------------------------------
  free energy    TOTEN  =      -102.20179548 eV

  energy without entropy =     -102.20179548  energy(sigma->0) =     -102.20179548


--------------------------------------------------------------------------------------------------------




--------------------------------------- Iteration      1(   5)  ---------------------------------------


     EDDAV:  cpu time   18.1720: real time   18.1721
 BZINTS: Fermi energy:    0.955893;  397.000000 electrons
         Band energy:-0.125506E+04;  BLOECHL correction:   -0.067364
       DOS:  cpu time    0.0287: real time    0.0287
    --------------------------------------------
      LOOP:  cpu time   18.2007: real time   18.2008

 eigenvalue-minimisations  : 13384
 total energy-change (2. order) :-0.1958868E-01  (-0.1959245E-01)
 number of electron     396.9999896 magnetization 
 augmentation part      396.9999896 magnetization 

 Free energy of the ion-electron system (eV)
  ---------------------------------------------------
  alpha Z        PSCENC =       750.51402263
  Ewald energy   TEWEN  =     99220.87227275
  -Hartree energ DENC   =   -137058.24844896
  -exchange      EXHF   =         0.00000000
  -V(xc)+E(xc)   XCENC  =      -380.25635828
  PAW double counting   =     39251.73992733   -37690.05037726
  entropy T*S    EENTRO =         0.00000000
  eigenvalues    EBANDS =     -1255.05977436
  atomic energy  EATOM  =     37058.26735199
  Solvation  Ediel_sol  =         0.00000000
  ---------------------------------------------------
  free energy    TOTEN  =      -102.22138416 eV

  energy without entropy =     -102.22138416  energy(sigma->0) =     -102.22138416


--------------------------------------------------------------------------------------------------------




--------------------------------------- Iteration      1(   6)  ---------------------------------------


    EDDIAG:  cpu time    2.9334: real time    2.9336
  RMM-DIIS:  cpu time    8.1823: real time    8.1824
    ORTHCH:  cpu time    0.5465: real time    0.5465
 BZINTS: Fermi energy:    0.955891;  397.000000 electrons
         Band energy:-0.125506E+04;  BLOECHL correction:   -0.067364
       DOS:  cpu time    0.0302: real time    0.0302
    --------------------------------------------
      LOOP:  cpu time   11.6925: real time   11.6926

 eigenvalue-minimisations  : 10605
 total energy-change (2. order) :-0.4443631E-03  (-0.4444667E-03)
 number of electron     396.9999896 magnetization 
 augmentation part      396.9999896 magnetization 

 Free energy of the ion-electron system (eV)
  ---------------------------------------------------
  alpha Z        PSCENC =       750.51402263
  Ewald energy   TEWEN  =     99220.87227275
  -Hartree energ DENC   =   -137058.24844896
  -exchange      EXHF   =         0.00000000
  -V(xc)+E(xc)   XCENC  =      -380.25635828
  PAW double counting   =     39251.73992733   -37690.05037726
  entropy T*S    EENTRO =         0.00000000
  eigenvalues    EBANDS =     -1255.06021872
  atomic energy  EATOM  =     37058.26735199
  Solvation  Ediel_sol  =         0.00000000
  ---------------------------------------------------
  free energy    TOTEN  =      -102.22182852 eV

  energy without entropy =     -102.22182852  energy(sigma->0) =     -102.22182852


--------------------------------------------------------------------------------------------------------




--------------------------------------- Iteration      1(   7)  ---------------------------------------


    EDDIAG:  cpu time    2.9330: real time    2.9333
  RMM-DIIS:  cpu time   11.0798: real time   11.0798
    ORTHCH:  cpu time    0.5472: real time    0.5472
 BZINTS: Fermi energy:    0.955890;  397.000000 electrons
         Band energy:-0.125506E+04;  BLOECHL correction:   -0.067364
       DOS:  cpu time    0.0309: real time    0.0309
    --------------------------------------------
      LOOP:  cpu time   14.5908: real time   14.5911

 eigenvalue-minimisations  : 14424
 total energy-change (2. order) :-0.1462414E-03  (-0.1460405E-03)
 number of electron     396.9999896 magnetization 
 augmentation part      396.9999896 magnetization 

 Free energy of the ion-electron system (eV)
  ---------------------------------------------------
  alpha Z        PSCENC =       750.51402263
  Ewald energy   TEWEN  =     99220.87227275
  -Hartree energ DENC   =   -137058.24844896
  -exchange      EXHF   =         0.00000000
  -V(xc)+E(xc)   XCENC  =      -380.25635828
  PAW double counting   =     39251.73992733   -37690.05037726
  entropy T*S    EENTRO =         0.00000000
  eigenvalues    EBANDS =     -1255.06036497
  atomic energy  EATOM  =     37058.26735199
  Solvation  Ediel_sol  =         0.00000000
  ---------------------------------------------------
  free energy    TOTEN  =      -102.22197476 eV

  energy without entropy =     -102.22197476  energy(sigma->0) =     -102.22197476


--------------------------------------------------------------------------------------------------------




--------------------------------------- Iteration      1(   8)  ---------------------------------------


    EDDIAG:  cpu time    2.9427: real time    2.9428
  RMM-DIIS:  cpu time    7.5692: real time    7.5693
    ORTHCH:  cpu time    0.5473: real time    0.5473
 BZINTS: Fermi energy:    0.955890;  397.000000 electrons
         Band energy:-0.125506E+04;  BLOECHL correction:   -0.067364
       DOS:  cpu time    0.0301: real time    0.0301
    --------------------------------------------
      LOOP:  cpu time   11.0893: real time   11.0895

 eigenvalue-minimisations  :  8168
 total energy-change (2. order) :-0.7081107E-05  (-0.6913172E-05)
 number of electron     396.9999896 magnetization 
 augmentation part      396.9999896 magnetization 

 Free energy of the ion-electron system (eV)
  ---------------------------------------------------
  alpha Z        PSCENC =       750.51402263
  Ewald energy   TEWEN  =     99220.87227275
  -Hartree energ DENC   =   -137058.24844896
  -exchange      EXHF   =         0.00000000
  -V(xc)+E(xc)   XCENC  =      -380.25635828
  PAW double counting   =     39251.73992733   -37690.05037726
  entropy T*S    EENTRO =         0.00000000
  eigenvalues    EBANDS =     -1255.06037205
  atomic energy  EATOM  =     37058.26735199
  Solvation  Ediel_sol  =         0.00000000
  ---------------------------------------------------
  free energy    TOTEN  =      -102.22198184 eV

  energy without entropy =     -102.22198184  energy(sigma->0) =     -102.22198184


--------------------------------------------------------------------------------------------------------




 average (electrostatic) potential at core
  the test charge radii are     1.1249  1.2059  0.5201
  (the norm of the test charge is              1.0000)
       1 -78.0211       2 -77.9645       3 -77.9645       4 -77.9559       5 -77.9330
       6 -77.9556       7 -77.9670       8 -77.9668       9 -78.0003      10 -78.1958
      11 -78.1589      12 -78.1956      13 -78.1688      14 -78.1685      15 -78.1922
      16 -78.2001      17 -78.1987      18 -78.1988      19 -78.1800      20 -78.1771
      21 -78.1769      22 -78.1930      23 -78.1631      24 -78.1928      25 -78.1712
      26 -78.1712      27 -78.1909      28 -77.9222      29 -77.8819      30 -77.8819
      31 -78.0383      32 -78.0381      33 -77.8745      34 -77.8743      35 -77.9123
      36 -73.1183      37 -36.3077      38 -36.3076
 
 
 
 E-fermi :   0.9559     XC(G=0):  -5.9158     alpha+bet : -5.6179

 Fermi energy:         0.9558900295

 k-point     1 :       0.0000    0.0000    0.0000
  band No.  band energies     occupation 
      1      -6.5567      2.00000
      2      -5.9597      2.00000
      3      -5.3532      2.00000
      4      -5.2578      2.00000
      5      -5.0177      2.00000
      6      -4.9316      2.00000
      7      -4.9209      2.00000
      8      -4.9197      2.00000
      9      -4.9139      2.00000
     10      -4.9080      2.00000
     11      -4.8940      2.00000
     12      -4.8849      2.00000
     13      -4.8778      2.00000
     14      -4.8767      2.00000
     15      -4.8755      2.00000
     16      -4.8740      2.00000
     17      -4.8609      2.00000
     18      -4.7463      2.00000
     19      -4.7191      2.00000
     20      -4.7156      2.00000
     21      -4.7060      2.00000
     22      -4.7039      2.00000
     23      -4.6921      2.00000
     24      -4.6794      2.00000
     25      -4.5331      2.00000
     26      -4.5242      2.00000
     27      -4.5187      2.00000
     28      -4.5154      2.00000
     29      -4.5121      2.00000
     30      -4.4924      2.00000
     31      -4.4854      2.00000
     32      -4.4644      2.00000
     33      -4.4627      2.00000
     34      -4.4623      2.00000
     35      -4.4531      2.00000
     36      -4.4444      2.00000
     37      -4.3772      2.00000
     38      -4.3548      2.00000
     39      -4.3537      2.00000
     40      -4.3456      2.00000
     41      -4.3384      2.00000
     42      -4.1692      2.00000
     43      -4.1395      2.00000
     44      -4.1384      2.00000
     45      -4.1267      2.00000
     46      -4.1245      2.00000
     47      -4.1230      2.00000
     48      -4.1224      2.00000
     49      -4.1161      2.00000
     50      -4.1053      2.00000
     51      -4.0362      2.00000
     52      -4.0064      2.00000
     53      -3.9582      2.00000
     54      -3.9558      2.00000
     55      -3.9387      2.00000
     56      -3.8766      2.00000
     57      -3.7369      2.00000
     58      -3.7367      2.00000
     59      -3.7305      2.00000
     60      -3.7263      2.00000
     61      -3.7169      2.00000
     62      -3.7142      2.00000
     63      -3.6991      2.00000
     64      -3.6971      2.00000
     65      -3.6605      2.00000
     66      -3.6600      2.00000
     67      -3.6237      2.00000
     68      -3.5707      2.00000
     69      -3.5697      2.00000
     70      -3.5602      2.00000
     71      -3.5593      2.00000
     72      -3.5558      2.00000
     73      -3.5479      2.00000
     74      -3.5436      2.00000
     75      -3.5323      2.00000
     76      -3.5143      2.00000
     77      -3.5076      2.00000
     78      -3.4979      2.00000
     79      -3.4965      2.00000
     80      -3.4930      2.00000
     81      -3.4870      2.00000
     82      -3.4869      2.00000
     83      -3.4782      2.00000
     84      -3.4526      2.00000
     85      -3.4191      2.00000
     86      -3.4179      2.00000
     87      -3.3547      2.00000
     88      -3.3457      2.00000
     89      -3.3428      2.00000
     90      -3.3375      2.00000
     91      -3.3344      2.00000
     92      -3.3223      2.00000
     93      -3.3142      2.00000
     94      -3.2925      2.00000
     95      -3.2749      2.00000
     96      -3.2742      2.00000
     97      -3.2471      2.00000
     98      -3.2464      2.00000
     99      -3.2218      2.00000
    100      -3.1057      2.00000
    101      -3.0343      2.00000
    102      -3.0342      2.00000
    103      -3.0218      2.00000
    104      -3.0181      2.00000
    105      -3.0128      2.00000
    106      -3.0023      2.00000
    107      -2.9993      2.00000
    108      -2.9811      2.00000
    109      -2.9520      2.00000
    110      -2.9480      2.00000
    111      -2.9435      2.00000
    112      -2.8990      2.00000
    113      -2.8770      2.00000
    114      -2.8695      2.00000
    115      -2.7946      2.00000
    116      -2.7811      2.00000
    117      -2.7621      2.00000
    118      -2.7512      2.00000
    119      -2.7350      2.00000
    120      -2.7344      2.00000
    121      -2.6914      2.00000
    122      -2.6865      2.00000
    123      -2.6585      2.00000
    124      -2.6508      2.00000
    125      -2.6494      2.00000
    126      -2.6467      2.00000
    127      -2.6261      2.00000
    128      -2.6247      2.00000
    129      -2.6209      2.00000
    130      -2.6159      2.00000
    131      -2.6154      2.00000
    132      -2.6117      2.00000
    133      -2.5970      2.00000
    134      -2.5521      2.00000
    135      -2.5228      2.00000
    136      -2.4490      2.00000
    137      -2.4310      2.00000
    138      -2.4217      2.00000
    139      -2.4171      2.00000
    140      -2.4105      2.00000
    141      -2.4077      2.00000
    142      -2.4016      2.00000
    143      -2.3996      2.00000
    144      -2.3995      2.00000
    145      -2.3919      2.00000
    146      -2.3844      2.00000
    147      -2.3818      2.00000
    148      -2.3545      2.00000
    149      -2.3424      2.00000
    150      -2.3312      2.00000
    151      -2.3230      2.00000
    152      -2.3227      2.00000
    153      -2.3140      2.00000
    154      -2.3122      2.00000
    155      -2.2949      2.00000
    156      -2.2905      2.00000
    157      -2.2602      2.00000
    158      -2.2581      2.00000
    159      -2.2294      2.00000
    160      -2.2267      2.00000
    161      -2.2236      2.00000
    162      -2.2162      2.00000
    163      -2.2157      2.00000
    164      -2.2098      2.00000
    165      -2.1896      2.00000
    166      -2.1806      2.00000
    167      -2.1805      2.00000
    168      -2.1782      2.00000
    169      -2.1741      2.00000
    170      -2.1574      2.00000
    171      -2.1485      2.00000
    172      -2.1442      2.00000
    173      -2.1132      2.00000
    174      -2.0955      2.00000
    175      -2.0624      2.00000
    176      -2.0577      2.00000
    177      -2.0219      2.00000
    178      -2.0199      2.00000
    179      -2.0121      2.00000
    180      -2.0022      2.00000
    181      -1.9447      2.00000
    182      -1.9376      2.00000
    183      -1.9361      2.00000
    184      -1.9171      2.00000
    185      -1.8794      2.00000
    186      -1.7681      2.00000
    187      -1.4588      2.00000
    188      -1.3664      2.00000
    189      -1.3047      2.00000
    190      -1.2524      2.00000
    191      -1.2379      2.00000
    192      -1.1657      2.00000
    193      -1.1455      2.00000
    194      -0.9868      2.00000
    195      -0.9293      2.00000
    196      -0.5007      2.00000
    197       0.2263      2.00000
    198       0.4053      2.00000
    199       0.5636      2.00000
    200       0.5719      2.00000
    201       0.5890      2.00000
    202       0.5961      2.26643
    203       1.1098      0.00000
    204       2.1717      0.00000
    205       2.6271      0.00000
    206       2.7854      0.00000
    207       2.8009      0.00000
    208       2.8169      0.00000
    209       2.9109      0.00000
    210       3.8460      0.00000
    211       4.1525      0.00000
    212       4.1700      0.00000
    213       4.3447      0.00000
    214       4.3874      0.00000
    215       4.3880      0.00000
    216       4.5698      0.00000
    217       4.6311      0.00000
    218       4.9665      0.00000
    219       5.0818      0.00000
    220       5.1095      0.00000
    221       5.1266      0.00000
    222       5.1419      0.00000
    223       5.1453      0.00000
    224       5.1529      0.00000
    225       5.1853      0.00000
    226       5.2362      0.00000
    227       5.2661      0.00000
    228       5.3328      0.00000
    229       5.4393      0.00000
    230       6.1905      0.00000
    231       6.4139      0.00000
    232       6.5373      0.00000
    233       6.6835      0.00000
    234       6.7581      0.00000
    235       6.7767      0.00000
    236       6.8129      0.00000
    237       6.9005      0.00000
    238       6.9946      0.00000
    239       6.9949      0.00000
    240       7.0867      0.00000
    241       7.0883      0.00000
    242       7.0963      0.00000
    243       7.1033      0.00000
    244       7.3326      0.00000
    245       7.4000      0.00000
    246       7.4228      0.00000
    247       7.4496      0.00000
    248       7.4716      0.00000
    249       7.4798      0.00000
    250       7.5095      0.00000
    251       7.6939      0.00000
    252       7.7771      0.00000

 k-point     2 :       0.1250   -0.0000    0.0000
  band No.  band energies     occupation 
      1      -6.5265      2.00000
      2      -5.9275      2.00000
      3      -5.3703      2.00000
      4      -5.2235      2.00000
      5      -4.9894      2.00000
      6      -4.9689      2.00000
      7      -4.9442      2.00000
      8      -4.9199      2.00000
      9      -4.9145      2.00000
     10      -4.9053      2.00000
     11      -4.8918      2.00000
     12      -4.8899      2.00000
     13      -4.8771      2.00000
     14      -4.8729      2.00000
     15      -4.8127      2.00000
     16      -4.8075      2.00000
     17      -4.8003      2.00000
     18      -4.7877      2.00000
     19      -4.7595      2.00000
     20      -4.7452      2.00000
     21      -4.7065      2.00000
     22      -4.6463      2.00000
     23      -4.6417      2.00000
     24      -4.6022      2.00000
     25      -4.5912      2.00000
     26      -4.5814      2.00000
     27      -4.5725      2.00000
     28      -4.5374      2.00000
     29      -4.5090      2.00000
     30      -4.4811      2.00000
     31      -4.4734      2.00000
     32      -4.4571      2.00000
     33      -4.4407      2.00000
     34      -4.4329      2.00000
     35      -4.4149      2.00000
     36      -4.3801      2.00000
     37      -4.3741      2.00000
     38      -4.3634      2.00000
     39      -4.3193      2.00000
     40      -4.2833      2.00000
     41      -4.2660      2.00000
     42      -4.2080      2.00000
     43      -4.1964      2.00000
     44      -4.1863      2.00000
     45      -4.1648      2.00000
     46      -4.1580      2.00000
     47      -4.1474      2.00000
     48      -4.1360      2.00000
     49      -4.0975      2.00000
     50      -4.0721      2.00000
     51      -4.0290      2.00000
     52      -3.9959      2.00000
     53      -3.9537      2.00000
     54      -3.9326      2.00000
     55      -3.9269      2.00000
     56      -3.8893      2.00000
     57      -3.7661      2.00000
     58      -3.7581      2.00000
     59      -3.7429      2.00000
     60      -3.7297      2.00000
     61      -3.7252      2.00000
     62      -3.7198      2.00000
     63      -3.7076      2.00000
     64      -3.7004      2.00000
     65      -3.6780      2.00000
     66      -3.6436      2.00000
     67      -3.6421      2.00000
     68      -3.6053      2.00000
     69      -3.5912      2.00000
     70      -3.5827      2.00000
     71      -3.5726      2.00000
     72      -3.5557      2.00000
     73      -3.5418      2.00000
     74      -3.5366      2.00000
     75      -3.5351      2.00000
     76      -3.5273      2.00000
     77      -3.5249      2.00000
     78      -3.5230      2.00000
     79      -3.4989      2.00000
     80      -3.4883      2.00000
     81      -3.4771      2.00000
     82      -3.4731      2.00000
     83      -3.4611      2.00000
     84      -3.4530      2.00000
     85      -3.4454      2.00000
     86      -3.4324      2.00000
     87      -3.4265      2.00000
     88      -3.4051      2.00000
     89      -3.3882      2.00000
     90      -3.3604      2.00000
     91      -3.3482      2.00000
     92      -3.3281      2.00000
     93      -3.3187      2.00000
     94      -3.2907      2.00000
     95      -3.2709      2.00000
     96      -3.2209      2.00000
     97      -3.1729      2.00000
     98      -3.1535      2.00000
     99      -3.1384      2.00000
    100      -3.1122      2.00000
    101      -3.0831      2.00000
    102      -3.0753      2.00000
    103      -3.0562      2.00000
    104      -3.0508      2.00000
    105      -3.0345      2.00000
    106      -3.0234      2.00000
    107      -3.0123      2.00000
    108      -3.0044      2.00000
    109      -2.9531      2.00000
    110      -2.9448      2.00000
    111      -2.9179      2.00000
    112      -2.9004      2.00000
    113      -2.8938      2.00000
    114      -2.8663      2.00000
    115      -2.8535      2.00000
    116      -2.8179      2.00000
    117      -2.7978      2.00000
    118      -2.7893      2.00000
    119      -2.7747      2.00000
    120      -2.7654      2.00000
    121      -2.7366      2.00000
    122      -2.7114      2.00000
    123      -2.7095      2.00000
    124      -2.6980      2.00000
    125      -2.6902      2.00000
    126      -2.6744      2.00000
    127      -2.6666      2.00000
    128      -2.6504      2.00000
    129      -2.6390      2.00000
    130      -2.6297      2.00000
    131      -2.6189      2.00000
    132      -2.6026      2.00000
    133      -2.5928      2.00000
    134      -2.5750      2.00000
    135      -2.5625      2.00000
    136      -2.5591      2.00000
    137      -2.5480      2.00000
    138      -2.5155      2.00000
    139      -2.5061      2.00000
    140      -2.4847      2.00000
    141      -2.4683      2.00000
    142      -2.4251      2.00000
    143      -2.4164      2.00000
    144      -2.4066      2.00000
    145      -2.4041      2.00000
[...]
  0.000   0.000   0.000   0.000   0.000   0.000   0.000   0.000   0.000   0.000   0.000   0.000   0.000   0.000   0.000   0.000
  0.000   0.000   0.000   0.000   0.000   0.000   0.000   0.000   0.000   0.000   0.000   0.000   0.000   0.000   0.000   0.000
  0.000   0.000   0.000   0.000   0.000   0.000   0.000   0.000   0.000   0.000   1.000   0.000   0.000   0.000   0.000   0.000
  0.000   0.000   0.000   0.000   0.000   0.000   0.000   0.000   0.000   0.000   0.000   0.000   0.000   0.000   0.000   0.000
  0.000   0.000   0.000   0.000   0.000   0.000   0.000   0.000   0.000   0.000   0.000   0.000   0.000   0.000   0.000   0.000
  0.000   0.000   0.000   0.000   0.000   0.000   0.000   0.000   0.000   0.000   0.000   0.000   0.000   0.000   0.000   0.000
  0.000   0.000   0.000   0.000   0.000   0.000   0.000   0.000   0.000   0.000   0.000   0.000   0.000   0.000   0.000   0.000
  0.000   0.000   0.000   0.000   0.000   0.000   0.000   0.000   0.000   0.000   0.000   0.000   0.000   0.000   0.000   0.000
  0.000   0.000   0.000   0.000   0.000   0.000   0.000   0.000   0.000   0.000   0.000   0.000   0.000   0.000   0.000   0.000
  0.000   0.000   0.000   0.000   0.000   0.000   0.000   0.000   0.000   0.000   0.000   0.000   0.000   0.000   0.000   0.000


------------------------ aborting loop because EDIFF is reached ----------------------------------------





 total charge

# of ion       s       p       d       tot
------------------------------------------
    1        0.415   0.203   9.179   9.797
    2        0.419   0.202   9.177   9.799
    3        0.419   0.202   9.177   9.799
    4        0.419   0.203   9.177   9.799
    5        0.418   0.205   9.174   9.797
    6        0.419   0.203   9.177   9.799
    7        0.418   0.203   9.177   9.798
    8        0.418   0.203   9.177   9.798
    9        0.414   0.204   9.178   9.796
   10        0.406   0.271   9.163   9.840
   11        0.411   0.268   9.166   9.845
   12        0.406   0.271   9.163   9.840
   13        0.409   0.269   9.166   9.844
   14        0.409   0.269   9.166   9.844
   15        0.402   0.272   9.164   9.838
   16        0.406   0.270   9.164   9.840
   17        0.400   0.272   9.166   9.837
   18        0.400   0.272   9.166   9.837
   19        0.404   0.271   9.164   9.839
   20        0.420   0.287   9.157   9.864
   21        0.420   0.287   9.157   9.864
   22        0.397   0.275   9.166   9.838
   23        0.415   0.288   9.158   9.861
   24        0.397   0.275   9.166   9.838
   25        0.403   0.270   9.165   9.838
   26        0.403   0.270   9.165   9.838
   27        0.398   0.276   9.164   9.838
   28        0.418   0.197   9.182   9.798
   29        0.401   0.211   9.185   9.797
   30        0.401   0.211   9.185   9.797
   31        0.399   0.240   9.168   9.807
   32        0.399   0.240   9.168   9.807
   33        0.402   0.210   9.185   9.796
   34        0.402   0.210   9.185   9.796
   35        0.417   0.199   9.182   9.797
   36        0.676   0.597   8.138   9.410
   37        0.497   0.024   0.000   0.522
   38        0.497   0.024   0.000   0.522
--------------------------------------------------
tot         15.975   9.126 329.115 354.217
 
    CHARGE:  cpu time    0.6594: real time    0.6595
    FORLOC:  cpu time    0.0102: real time    0.0102
    FORNL :  cpu time    3.0599: real time    3.0601
    STRESS:  cpu time    9.1822: real time    9.1825
    FORCOR:  cpu time    0.0506: real time    0.0507
    FORHAR:  cpu time    0.0166: real time    0.0166
    OFIELD:  cpu time    0.0002: real time    0.0002

  FORCE on cell =-STRESS in cart. coord.  units (eV):
  Direction    XX          YY          ZZ          XY          YZ          ZX
  --------------------------------------------------------------------------------------
  Alpha Z   750.51402   750.51402   750.51402
  Ewald  122161.61195122092.88542************     0.00002    -1.91445     0.00001
  Hartree132341.57845132322.16351************     0.00001    -0.08776     0.00000
  E(xc)   -2079.80058 -2080.27355 -2085.61732    -0.00003    -0.01622     0.00000
  Local  ************************266062.83035     0.00034     1.11480    -0.00005
  n-local  -317.06379  -316.50343  -321.82971     2.33635     0.05819     0.05423
  augment  3271.78183  3274.82936  3279.97290    -0.00021     0.14955    -0.00004
  Kinetic  4926.13489  4936.96127  4950.49545     1.03545     0.77771     0.00969
  Fock        0.00000     0.00000     0.00000     0.00000     0.00000     0.00000
  -------------------------------------------------------------------------------------
  Total      -6.64568    -6.47051    -0.19999    -0.00000     0.08182     0.00000
  in kB      -7.17269    -6.98362    -0.21585    -0.00000     0.08830     0.00000
  external pressure =       -4.79 kB  Pullay stress =        0.00 kB


 VOLUME and BASIS-vectors are now :
 -----------------------------------------------------------------------------
  energy-cutoff  :      500.00
  volume of cell :     1484.46
      direct lattice vectors                 reciprocal lattice vectors
     8.791366577  0.000000000  0.000000000     0.113747958 -0.065672414  0.000000000
     4.395683289  7.613546790  0.000000000     0.000000000  0.131344829  0.000000000
     0.000000000  0.000000000 22.178121567     0.000000000  0.000000000  0.045089481

  length of vectors
     8.791366577  8.791366577 22.178121567     0.131344829  0.131344829  0.045089481


 FORCES acting on ions
    electron-ion (+dipol)            ewald-force                    non-local-force                 convergence-correction
 -----------------------------------------------------------------------------------------------
   0.460E-04 -.293E-01 0.251E+04   -.954E-04 -.189E-01 -.251E+04   0.229E-12 0.348E-01 -.244E+01   -.107E-03 0.173E-01 -.610E-01
   0.425E+00 0.387E+00 0.251E+04   -.410E+00 -.341E+00 -.251E+04   0.153E-01 -.344E-02 -.167E+01   -.158E-01 -.205E-01 0.285E-01
   -.425E+00 0.387E+00 0.251E+04   0.410E+00 -.341E+00 -.251E+04   -.153E-01 -.344E-02 -.167E+01   0.152E-01 -.186E-01 0.292E-01
   0.551E+00 0.162E+00 0.251E+04   -.485E+00 -.189E+00 -.251E+04   -.117E-01 0.155E-01 -.161E+01   -.318E-01 0.116E-01 -.221E-01
   -.788E-05 0.467E-01 0.251E+04   0.981E-04 0.512E-02 -.251E+04   -.332E-12 -.505E-01 -.145E+01   0.624E-02 -.374E-02 0.401E-01
   -.551E+00 0.162E+00 0.251E+04   0.485E+00 -.189E+00 -.251E+04   0.117E-01 0.155E-01 -.161E+01   0.304E-01 0.125E-01 -.212E-01
   0.126E+00 -.541E+00 0.251E+04   -.737E-01 0.531E+00 -.251E+04   -.565E-02 -.237E-01 -.167E+01   -.329E-01 0.939E-02 0.139E-02
   -.126E+00 -.541E+00 0.251E+04   0.736E-01 0.530E+00 -.251E+04   0.565E-02 -.237E-01 -.167E+01   0.345E-01 0.839E-02 0.155E-02
   0.361E-04 0.602E-02 0.251E+04   0.792E-04 0.139E-01 -.251E+04   0.192E-14 0.292E-03 -.207E+01   -.667E-02 -.223E-01 0.263E-01
   0.518E+01 0.325E+01 0.850E+03   -.497E+01 -.299E+01 -.849E+03   -.303E+00 -.272E+00 -.887E+00   0.853E-01 0.177E-01 0.899E-01
   -.285E-04 0.282E+01 0.855E+03   0.411E-04 -.292E+01 -.854E+03   0.358E-12 0.545E-01 -.537E+00   0.629E-02 0.165E-01 0.786E-01
   -.518E+01 0.325E+01 0.850E+03   0.497E+01 -.299E+01 -.849E+03   0.303E+00 -.272E+00 -.887E+00   -.868E-01 0.187E-01 0.898E-01
   0.236E+01 -.145E+01 0.855E+03   -.241E+01 0.152E+01 -.854E+03   0.902E-02 -.460E-01 -.490E+00   0.183E-01 -.555E-02 0.100E+00
   -.236E+01 -.145E+01 0.855E+03   0.241E+01 0.152E+01 -.854E+03   -.902E-02 -.460E-01 -.490E+00   -.764E-02 -.636E-02 0.994E-01
   0.162E-04 0.113E+01 0.851E+03   -.108E-03 -.128E+01 -.850E+03   0.618E-12 0.941E-01 -.694E+00   -.166E-02 0.340E-01 0.107E+00
   -.797E-05 -.603E+01 0.850E+03   0.205E-04 0.574E+01 -.849E+03   0.237E-11 0.360E+00 -.933E+00   0.117E-03 -.757E-01 0.109E+00
   0.119E+01 -.738E+00 0.851E+03   -.121E+01 0.712E+00 -.850E+03   0.275E-02 0.368E-01 -.762E+00   0.291E-02 0.135E-03 0.849E-01
   -.119E+01 -.738E+00 0.851E+03   0.121E+01 0.712E+00 -.850E+03   -.275E-02 0.368E-01 -.762E+00   -.291E-02 0.205E-02 0.855E-01
   0.422E-04 0.444E+01 -.846E+03   -.130E-03 -.434E+01 0.845E+03   -.545E-12 -.829E-01 0.404E+00   -.622E-03 -.114E-01 0.838E-01
   0.922E+01 0.619E+01 -.811E+03   -.852E+01 -.569E+01 0.811E+03   -.731E+00 -.557E+00 -.911E+00   0.316E-01 0.458E-01 0.135E+00
   -.922E+01 0.619E+01 -.811E+03   0.852E+01 -.569E+01 0.811E+03   0.731E+00 -.557E+00 -.911E+00   -.316E-01 0.459E-01 0.134E+00
   0.304E+01 -.274E+01 -.835E+03   -.341E+01 0.288E+01 0.834E+03   0.299E+00 -.144E+00 0.693E+00   0.901E-01 -.136E-01 0.738E-01
   -.545E-04 -.119E+02 -.813E+03   0.434E-04 0.110E+02 0.813E+03   0.556E-11 0.847E+00 -.792E+00   0.502E-03 -.106E-01 0.131E+00
   -.304E+01 -.274E+01 -.835E+03   0.341E+01 0.288E+01 0.834E+03   -.299E+00 -.144E+00 0.693E+00   -.900E-01 -.135E-01 0.744E-01
   -.361E+01 -.140E+01 -.847E+03   0.348E+01 0.145E+01 0.847E+03   0.111E+00 -.644E-02 0.633E+00   0.298E-01 -.398E-01 0.754E-01
   0.361E+01 -.140E+01 -.847E+03   -.348E+01 0.145E+01 0.847E+03   -.111E+00 -.644E-02 0.633E+00   -.298E-01 -.407E-01 0.753E-01
   0.192E-04 0.398E+01 -.836E+03   0.110E-03 -.416E+01 0.835E+03   0.118E-11 0.180E+00 0.682E+00   -.559E-03 0.386E-01 0.669E-01
   0.542E-04 0.292E+01 -.251E+04   -.116E-03 -.286E+01 0.250E+04   -.963E-12 -.147E+00 0.190E+01   -.112E-02 0.583E-01 0.144E+00
   0.113E+02 0.272E+02 -.251E+04   -.110E+02 -.276E+02 0.251E+04   -.291E+00 0.200E+00 0.220E+01   -.564E-01 0.314E-01 0.133E+00
   -.113E+02 0.272E+02 -.251E+04   0.110E+02 -.276E+02 0.251E+04   0.291E+00 0.200E+00 0.220E+01   0.661E-01 0.329E-01 0.133E+00
   0.387E+02 -.121E+01 -.250E+04   -.388E+02 0.126E+01 0.250E+04   -.161E+00 -.490E-01 0.165E+01   -.116E-01 0.204E-01 0.169E+00
   -.387E+02 -.121E+01 -.250E+04   0.388E+02 0.126E+01 0.250E+04   0.161E+00 -.490E-01 0.165E+01   0.211E-01 0.212E-01 0.169E+00
   0.105E+02 -.251E+02 -.251E+04   -.103E+02 0.254E+02 0.251E+04   -.234E+00 -.501E-01 0.215E+01   -.291E-01 -.321E-01 0.124E+00
   -.105E+02 -.251E+02 -.251E+04   0.103E+02 0.254E+02 0.251E+04   0.234E+00 -.501E-01 0.215E+01   0.408E-01 -.327E-01 0.124E+00
   0.235E-04 -.226E+01 -.250E+04   0.106E-03 0.220E+01 0.250E+04   0.114E-11 0.174E+00 0.193E+01   -.774E-02 -.932E-01 0.154E+00
   -.752E-05 -.439E+01 -.214E+04   0.953E-04 0.421E+01 0.214E+04   0.115E-11 0.175E+00 -.433E+01   0.180E-02 0.275E-01 0.741E-02
   0.962E+01 0.640E+00 -.294E+03   -.108E+02 -.730E+00 0.296E+03   0.114E+01 0.838E-01 -.191E+01   -.379E-03 0.224E-02 -.496E-02
   -.962E+01 0.640E+00 -.294E+03   0.108E+02 -.730E+00 0.296E+03   -.114E+01 0.838E-01 -.191E+01   0.295E-03 0.227E-02 -.503E-02
 -----------------------------------------------------------------------------------------------
   0.352E-03 -.423E-01 0.107E+02   0.107E-12 0.201E-12 0.364E-11   0.486E-13 0.737E-02 -.135E+02   0.362E-01 0.346E-01 0.286E+01
 
 
 POSITION                                       TOTAL-FORCE (eV/Angst)
 -----------------------------------------------------------------------------------
      0.00000      0.00000      5.28219         0.000000      0.003941      0.058690
      2.93046      0.00000      5.28219         0.014177      0.022828      0.041071
      5.86091      0.00000      5.28219        -0.014177      0.022828      0.041071
      1.46523      2.53785      5.28219         0.023856      0.000300      0.049457
      4.39568      2.53785      5.28219        -0.000000     -0.002449      0.022874
      7.32614      2.53785      5.28219        -0.023856      0.000300      0.049457
      2.93046      5.07570      5.28219         0.013413     -0.025568      0.046699
      5.86091      5.07570      5.28219        -0.013413     -0.025568      0.046699
      8.79137      5.07570      5.28219        -0.000000     -0.002052      0.049679
      1.46523      0.84595      7.67490        -0.008079      0.003345     -0.013177
      4.39568      0.84595      7.67490        -0.000000     -0.033538     -0.088954
      7.32614      0.84595      7.67490         0.008079      0.003345     -0.013177
      2.93046      3.38380      7.67490        -0.028759      0.013258     -0.089103
      5.86091      3.38380      7.67490         0.028759      0.013258     -0.089103
      8.79137      3.38380      7.67490        -0.000000     -0.027189     -0.024518
      4.39568      5.92165      7.67490        -0.000000     -0.009536     -0.018201
      7.32614      5.92165      7.67490        -0.013705      0.012121     -0.012636
     10.25659      5.92165      7.67490         0.013705      0.012121     -0.012636
      8.79137      1.70009     10.06101         0.000000      0.006216      0.019749
      2.92042      1.68610     10.02751         0.000458     -0.002922     -0.165307
      5.87095      1.68610     10.02751        -0.000458     -0.002922     -0.165307
     10.25445      4.23098     10.04520         0.013125     -0.023068      0.005094
      4.39568      4.24134     10.02751         0.000000      0.002628     -0.185563
      7.32828      4.23098     10.04520        -0.013125     -0.023068      0.005094
     11.71473      6.76350     10.06101         0.008783      0.001701      0.005250
      5.86800      6.76350     10.06101        -0.008783      0.001701      0.005250
      8.79137      6.76512     10.04520         0.000000      0.038620      0.022659
      0.00000      0.00000     12.42233        -0.000000     -0.027152     -0.009992
      2.94927      0.03214     12.43461        -0.069367     -0.188214     -0.049620
      5.84210      0.03214     12.43461         0.069367     -0.188214     -0.049620
      1.50247      2.53807     12.43461        -0.244240      0.017318     -0.021390
      7.28890      2.53807     12.43461         0.244240      0.017318     -0.021390
      2.94888      5.04334     12.43461        -0.073584      0.179064     -0.034097
      5.84248      5.04334     12.43461         0.073584      0.179064     -0.034097
      8.79137      5.07570     12.41249         0.000000      0.020425     -0.017634
      4.39568      2.53785     12.25656         0.000000      0.017345      0.661491
      3.32637      2.47244     13.48470        -0.011709     -0.003793     -0.007381
      5.46500      2.47244     13.48470         0.011709     -0.003793     -0.007381
 -----------------------------------------------------------------------------------
    total drift:                                0.036583     -0.000313      0.058715


--------------------------------------------------------------------------------------------------------



  FREE ENERGIE OF THE ION-ELECTRON SYSTEM (eV)
  ---------------------------------------------------
  free  energy   TOTEN  =      -102.22198184 eV

  energy  without entropy=     -102.22198184  energy(sigma->0) =     -102.22198184
 


--------------------------------------------------------------------------------------------------------


    POTLOK:  cpu time    0.0443: real time    0.0443


--------------------------------------------------------------------------------------------------------


 stress matrix after NEB project (eV)
     -6.64568     -0.00000      0.00000
     -0.00000     -6.47051      0.08182
      0.00000      0.08182     -0.19999
  FORCES: max atom, RMS     0.014351    0.003292
  FORCE total and by dimension    0.020296    0.011709
  Stress total and by dimension    9.278252    6.645683
     LOOP+:  cpu time  133.2210: real time  133.2319
 -----------------------------------------------------------------------------
|                                                                             |
|           W    W    AA    RRRRR   N    N  II  N    N   GGGG   !!!           |
|           W    W   A  A   R    R  NN   N  II  NN   N  G    G  !!!           |
|           W    W  A    A  R    R  N N  N  II  N N  N  G       !!!           |
|           W WW W  AAAAAA  RRRRR   N  N N  II  N  N N  G  GGG   !            |
|           WW  WW  A    A  R   R   N   NN  II  N   NN  G    G                |
|           W    W  A    A  R    R  N    N  II  N    N   GGGG   !!!           |
|                                                                             |
|     Tetrahedron method does not include variations of the Fermi             |
|     occupations, so forces and stress will be inaccurate. We suggest        |
|     using a different smearing scheme ISMEAR = 1 or 2 for metals in         |
|     relaxations.                                                            |
|                                                                             |
 -----------------------------------------------------------------------------

    4ORBIT:  cpu time    0.0000: real time    0.0000



 total charge

# of ion       s       p       d       tot
------------------------------------------
    1        0.415   0.203   9.179   9.797
    2        0.419   0.202   9.177   9.799
    3        0.419   0.202   9.177   9.799
    4        0.419   0.203   9.177   9.799
    5        0.418   0.205   9.174   9.797
    6        0.419   0.203   9.177   9.799
    7        0.418   0.203   9.177   9.798
    8        0.418   0.203   9.177   9.798
    9        0.414   0.204   9.178   9.796
   10        0.406   0.271   9.163   9.840
   11        0.411   0.268   9.166   9.845
   12        0.406   0.271   9.163   9.840
   13        0.409   0.269   9.166   9.844
   14        0.409   0.269   9.166   9.844
   15        0.402   0.272   9.164   9.838
   16        0.406   0.270   9.164   9.840
   17        0.400   0.272   9.166   9.837
   18        0.400   0.272   9.166   9.837
   19        0.404   0.271   9.164   9.839
   20        0.420   0.287   9.157   9.864
   21        0.420   0.287   9.157   9.864
   22        0.397   0.275   9.166   9.838
   23        0.415   0.288   9.158   9.861
   24        0.397   0.275   9.166   9.838
   25        0.403   0.270   9.165   9.838
   26        0.403   0.270   9.165   9.838
   27        0.398   0.276   9.164   9.838
   28        0.418   0.197   9.182   9.798
   29        0.401   0.211   9.185   9.797
   30        0.401   0.211   9.185   9.797
   31        0.399   0.240   9.168   9.807
   32        0.399   0.240   9.168   9.807
   33        0.402   0.210   9.185   9.796
   34        0.402   0.210   9.185   9.796
   35        0.417   0.199   9.182   9.797
   36        0.676   0.597   8.138   9.410
   37        0.497   0.024   0.000   0.522
   38        0.497   0.024   0.000   0.522
--------------------------------------------------
tot         15.975   9.126 329.115 354.217
 
 BZINTS: Fermi energy:    0.955890;  397.000000 electrons
         Band energy:-0.125506E+04;  BLOECHL correction:   -0.067364

 total amount of memory used by VASP MPI-rank0   184071. kBytes
=======================================================================

   base      :      30000. kBytes
   nonlr-proj:      15103. kBytes
   fftplans  :       4330. kBytes
   grid      :      17879. kBytes
   one-center:        590. kBytes
   wavefun   :     116169. kBytes
 
  
  
 General timing and accounting informations for this job:
 ========================================================
  
                  Total CPU time used (sec):      146.878
                            User time (sec):      141.486
                          System time (sec):        5.392
                         Elapsed time (sec):      147.297
  
                   Maximum memory used (kb):      458024.
                   Average memory used (kb):          N/A
  
                          Minor page faults:        89890
                          Major page faults:            0
                 Voluntary context switches:         5508
