 vasp.6.2.0 18Jan21 (build Jun 12 2021 23:27:24) complex                        
  
 executed on             LinuxIFC date 2022.05.28  01:35:22
 running on   28 total cores
 distrk:  each k-point on   28 cores,    1 groups
 distr:  one band on NCORE=   1 cores,   28 groups


--------------------------------------------------------------------------------------------------------


 INCAR:
   ISMEAR = -5
   SIGMA = 0.1
   ISPIN = 1
   EDIFF = 1.d-5
   EDIFFG = -0.01
   NSW = 0
   NELM = 150
   ENCUT = 500
   ISIF = 2
   IBRION = 2
   LREAL = Auto
   ALGO = Fast
   ICHARG = 11
   LORBIT = 10
   LCHARG = .F.
   LWAVE = .F.

 POTCAR:    PAW_PBE Ag 02Apr2005                  
 POTCAR:    PAW_PBE Co 02Aug2007                  
 POTCAR:    PAW_PBE H 15Jun2001                   
 POTCAR:    PAW_PBE O 08Apr2002                   
 -----------------------------------------------------------------------------
|                                                                             |
|           W    W    AA    RRRRR   N    N  II  N    N   GGGG   !!!           |
|           W    W   A  A   R    R  NN   N  II  NN   N  G    G  !!!           |
|           W    W  A    A  R    R  N N  N  II  N N  N  G       !!!           |
|           W WW W  AAAAAA  RRRRR   N  N N  II  N  N N  G  GGG   !            |
|           WW  WW  A    A  R   R   N   NN  II  N   NN  G    G                |
|           W    W  A    A  R    R  N    N  II  N    N   GGGG   !!!           |
|                                                                             |
|     For optimal performance we recommend to set                             |
|       NCORE = 2 up to number-of-cores-per-socket                            |
|     NCORE specifies how many cores store one orbital (NPAR=cpu/NCORE).      |
|     This setting can greatly improve the performance of VASP for DFT.       |
|     The default, NCORE=1 might be grossly inefficient on modern             |
|     multi-core architectures or massively parallel machines. Do your        |
|     own testing! More info at https://www.vasp.at/wiki/index.php/NCORE      |
|     Unfortunately you need to use the default for GW and RPA                |
|     calculations (for HF NCORE is supported but not extensively tested      |
|     yet).                                                                   |
|                                                                             |
 -----------------------------------------------------------------------------

 POTCAR:    PAW_PBE Ag 02Apr2005                  
   VRHFIN =Ag : s1 d10                                                                              
   LEXCH  = PE                                                                                      
   EATOM  =  1037.2675 eV,   76.2370 Ry                                                             
                                                                                                    
   TITEL  = PAW_PBE Ag 02Apr2005                                                                    
   LULTRA =        F    use ultrasoft PP ?                                                          
   IUNSCR =        1    unscreen: 0-lin 1-nonlin 2-no                                               
   RPACOR =    2.000    partial core radius                                                         
   POMASS =  107.868; ZVAL   =   11.000    mass and valenz                                          
   RCORE  =    2.500    outmost cutoff radius                                                       
   RWIGS  =    2.840; RWIGS  =    1.503    wigner-seitz radius (au A)                               
   ENMAX  =  249.844; ENMIN  =  187.383 eV                                                          
   ICORE  =        3    local potential                                                             
   LCOR   =        T    correct aug charges                                                         
   LPAW   =        T    paw PP                                                                      
   EAUG   =  412.496                                                                                
   DEXC   =    0.000                                                                                
   RMAX   =    2.560    core radius for proj-oper                                                   
   RAUG   =    1.300    factor for augmentation sphere                                              
   RDEP   =    2.576    radius for radial grids                                                     
   RDEPT  =    2.072    core radius for aug-charge                                                  
                                                                                                    
   Atomic configuration                                                                             
   12 entries                                                                                       
     n  l   j            E        occ.                                                              
     1  0  0.50    -25324.9161   2.0000                                                             
     2  0  0.50     -3728.5341   2.0000                                                             
     2  1  1.50     -3344.0404   6.0000                                                             
     3  0  0.50      -683.5581   2.0000                                                             
     3  1  1.50      -557.3225   6.0000                                                             
     3  2  2.50      -358.3853  10.0000                                                             
     4  0  0.50       -95.0341   2.0000                                                             
     4  1  1.50       -58.5511   6.0000                                                             
     4  2  2.50        -7.4440  10.0000                                                             
     5  0  0.50        -4.4045   1.0000                                                             
     5  1  0.50        -1.3606   0.0000                                                             
     4  3  2.50        -1.3606   0.0000                                                             
   Description                                                                                      
     l       E           TYP  RCUT    TYP  RCUT                                                     
     2     -7.4439781     23  2.400                                                                 
     2     -8.8045607     23  2.400                                                                 
     0     -4.4044681     23  2.400                                                                 
     0      1.9520038     23  2.400                                                                 
     1     -1.3605826     23  2.500                                                                 
     1     27.2116520     23  2.500                                                                 
     3     -4.0817478     23  2.400                                                                 
  local pseudopotential read in
  partial core-charges read in
  partial kinetic energy density read in
  atomic valenz-charges read in
  non local Contribution for L=           2  read in
    real space projection operators read in
  non local Contribution for L=           2  read in
    real space projection operators read in
  non local Contribution for L=           0  read in
    real space projection operators read in
  non local Contribution for L=           0  read in
    real space projection operators read in
  non local Contribution for L=           1  read in
    real space projection operators read in
  non local Contribution for L=           1  read in
    real space projection operators read in
    PAW grid and wavefunctions read in
 
   number of l-projection  operators is LMAX  =           6
   number of lm-projection operators is LMMAX =          18
 
 POTCAR:    PAW_PBE Co 02Aug2007                  
   VRHFIN =Co: d8 s1                                                                                
   LEXCH  = PE                                                                                      
   EATOM  =   813.3670 eV,   59.7808 Ry                                                             
                                                                                                    
   TITEL  = PAW_PBE Co 02Aug2007                                                                    
   LULTRA =        F    use ultrasoft PP ?                                                          
   IUNSCR =        1    unscreen: 0-lin 1-nonlin 2-no                                               
   RPACOR =    2.000    partial core radius                                                         
   POMASS =   58.933; ZVAL   =    9.000    mass and valenz                                          
   RCORE  =    2.300    outmost cutoff radius                                                       
   RWIGS  =    2.460; RWIGS  =    1.302    wigner-seitz radius (au A)                               
   ENMAX  =  267.968; ENMIN  =  200.976 eV                                                          
   RCLOC  =    1.203    cutoff for local pot                                                        
   LCOR   =        T    correct aug charges                                                         
   LPAW   =        T    paw PP                                                                      
   EAUG   =  477.818                                                                                
   DEXC   =    0.000                                                                                
   RMAX   =    2.360    core radius for proj-oper                                                   
   RAUG   =    1.300    factor for augmentation sphere                                              
   RDEP   =    2.393    radius for radial grids                                                     
   RDEPT  =    1.864    core radius for aug-charge                                                  
                                                                                                    
   Atomic configuration                                                                             
    9 entries                                                                                       
     n  l   j            E        occ.                                                              
     1  0  0.50     -7587.6674   2.0000                                                             
     2  0  0.50      -893.6084   2.0000                                                             
     2  1  1.50      -764.5805   6.0000                                                             
     3  0  0.50       -97.5973   2.0000                                                             
     3  1  1.50       -60.9648   6.0000                                                             
     3  2  2.50        -4.2382   8.0000                                                             
     4  0  0.50        -4.3746   1.0000                                                             
     4  1  1.50        -4.0817   0.0000                                                             
     4  3  2.50        -1.3606   0.0000                                                             
   Description                                                                                      
     l       E           TYP  RCUT    TYP  RCUT                                                     
     2     -4.2382362     23  2.300                                                                 
     2     -5.5988188     23  2.300                                                                 
     0     -4.3745797     23  2.300                                                                 
     0      5.7660125     23  2.300                                                                 
     1     -2.7211652     23  2.300                                                                 
     1     16.9860234     23  2.300                                                                 
  local pseudopotential read in
  partial core-charges read in
  partial kinetic energy density read in
  atomic valenz-charges read in
  non local Contribution for L=           2  read in
    real space projection operators read in
  non local Contribution for L=           2  read in
    real space projection operators read in
  non local Contribution for L=           0  read in
    real space projection operators read in
  non local Contribution for L=           0  read in
    real space projection operators read in
  non local Contribution for L=           1  read in
    real space projection operators read in
  non local Contribution for L=           1  read in
    real space projection operators read in
    PAW grid and wavefunctions read in
 
   number of l-projection  operators is LMAX  =           6
   number of lm-projection operators is LMMAX =          18
 
 POTCAR:    PAW_PBE H 15Jun2001                   
   VRHFIN =H: ultrasoft test                                                                        
   LEXCH  = PE                                                                                      
   EATOM  =    12.4884 eV,    0.9179 Ry                                                             
                                                                                                    
   TITEL  = PAW_PBE H 15Jun2001                                                                     
   LULTRA =        F    use ultrasoft PP ?                                                          
   IUNSCR =        0    unscreen: 0-lin 1-nonlin 2-no                                               
   RPACOR =    0.000    partial core radius                                                         
   POMASS =    1.000; ZVAL   =    1.000    mass and valenz                                          
   RCORE  =    1.100    outmost cutoff radius                                                       
   RWIGS  =    0.700; RWIGS  =    0.370    wigner-seitz radius (au A)                               
   ENMAX  =  250.000; ENMIN  =  200.000 eV                                                          
   RCLOC  =    0.701    cutoff for local pot                                                        
   LCOR   =        T    correct aug charges                                                         
   LPAW   =        T    paw PP                                                                      
   EAUG   =  400.000                                                                                
   RMAX   =    1.123    core radius for proj-oper                                                   
   RAUG   =    1.200    factor for augmentation sphere                                              
   RDEP   =    1.112    radius for radial grids                                                     
   RDEPT  =    0.926    core radius for aug-charge                                                  
                                                                                                    
   Atomic configuration                                                                             
    2 entries                                                                                       
     n  l   j            E        occ.                                                              
     1  0  0.50        -6.4927   1.0000                                                             
     2  1  0.50        -3.4015   0.0000                                                             
   Description                                                                                      
     l       E           TYP  RCUT    TYP  RCUT                                                     
     0     -6.4927494     23  1.100                                                                 
     0      6.8029130     23  1.100                                                                 
     1     -4.0817478     23  1.100                                                                 
  local pseudopotential read in
  atomic valenz-charges read in
  non local Contribution for L=           0  read in
    real space projection operators read in
  non local Contribution for L=           0  read in
    real space projection operators read in
  non local Contribution for L=           1  read in
    real space projection operators read in
    PAW grid and wavefunctions read in
 
   number of l-projection  operators is LMAX  =           3
   number of lm-projection operators is LMMAX =           5
 
 POTCAR:    PAW_PBE O 08Apr2002                   
   VRHFIN =O: s2p4                                                                                  
   LEXCH  = PE                                                                                      
   EATOM  =   432.3788 eV,   31.7789 Ry                                                             
                                                                                                    
   TITEL  = PAW_PBE O 08Apr2002                                                                     
   LULTRA =        F    use ultrasoft PP ?                                                          
   IUNSCR =        1    unscreen: 0-lin 1-nonlin 2-no                                               
   RPACOR =    1.200    partial core radius                                                         
   POMASS =   16.000; ZVAL   =    6.000    mass and valenz                                          
   RCORE  =    1.520    outmost cutoff radius                                                       
   RWIGS  =    1.550; RWIGS  =    0.820    wigner-seitz radius (au A)                               
   ENMAX  =  400.000; ENMIN  =  300.000 eV                                                          
   ICORE  =        2    local potential                                                             
   LCOR   =        T    correct aug charges                                                         
   LPAW   =        T    paw PP                                                                      
   EAUG   =  605.392                                                                                
   DEXC   =    0.000                                                                                
   RMAX   =    1.553    core radius for proj-oper                                                   
   RAUG   =    1.300    factor for augmentation sphere                                              
   RDEP   =    1.550    radius for radial grids                                                     
   RDEPT  =    1.329    core radius for aug-charge                                                  
                                                                                                    
   Atomic configuration                                                                             
    4 entries                                                                                       
     n  l   j            E        occ.                                                              
     1  0  0.50      -514.6923   2.0000                                                             
     2  0  0.50       -23.9615   2.0000                                                             
     2  1  0.50        -9.0305   4.0000                                                             
     3  2  1.50        -9.5241   0.0000                                                             
   Description                                                                                      
     l       E           TYP  RCUT    TYP  RCUT                                                     
     0    -23.9615318     23  1.200                                                                 
     0     -9.5240782     23  1.200                                                                 
     1     -9.0304911     23  1.520                                                                 
     1      8.1634956     23  1.520                                                                 
     2     -9.5240782      7  1.500                                                                 
  local pseudopotential read in
  partial core-charges read in
  partial kinetic energy density read in
  kinetic energy density of atom read in
  atomic valenz-charges read in
  non local Contribution for L=           0  read in
    real space projection operators read in
  non local Contribution for L=           0  read in
    real space projection operators read in
  non local Contribution for L=           1  read in
    real space projection operators read in
  non local Contribution for L=           1  read in
    real space projection operators read in
    PAW grid and wavefunctions read in
 
   number of l-projection  operators is LMAX  =           4
   number of lm-projection operators is LMMAX =           8
 
 Optimization of the real space projectors (new method)

 maximal supplied QI-value         = 15.12
 optimisation between [QCUT,QGAM] = [ 11.34, 22.83] = [ 36.00,145.93] Ry 
 Optimized for a Real-space Cutoff    1.43 Angstroem

   l    n(q)    QCUT    max X(q) W(low)/X(q) W(high)/X(q)  e(spline) 
   2      9    11.338    53.897    0.16E-03    0.20E-03    0.28E-06
   2      9    11.338    52.416    0.16E-03    0.20E-03    0.29E-06
   0     10    11.338   122.045    0.31E-04    0.76E-04    0.15E-06
   0     10    11.338    73.629    0.30E-04    0.72E-04    0.15E-06
   1      9    11.338    15.255    0.20E-03    0.19E-04    0.17E-06
   1      9    11.338     9.562    0.16E-03    0.15E-04    0.14E-06
 Optimization of the real space projectors (new method)

 maximal supplied QI-value         = 16.25
 optimisation between [QCUT,QGAM] = [ 11.38, 22.75] = [ 36.24,144.96] Ry 
 Optimized for a Real-space Cutoff    1.39 Angstroem

   l    n(q)    QCUT    max X(q) W(low)/X(q) W(high)/X(q)  e(spline) 
   2      8    11.376    65.824    0.20E-03    0.32E-04    0.13E-06
   2      8    11.376    61.429    0.20E-03    0.33E-04    0.14E-06
   0      9    11.376    56.174    0.76E-04    0.11E-03    0.19E-06
   0      9    11.376    31.263    0.69E-04    0.99E-04    0.17E-06
   1      9    11.376    19.828    0.35E-03    0.11E-03    0.12E-06
   1      9    11.376    15.139    0.29E-03    0.94E-04    0.10E-06
 Optimization of the real space projectors (new method)

 maximal supplied QI-value         = 34.20
 optimisation between [QCUT,QGAM] = [ 11.29, 22.57] = [ 35.68,142.71] Ry 
 Optimized for a Real-space Cutoff    1.16 Angstroem

   l    n(q)    QCUT    max X(q) W(low)/X(q) W(high)/X(q)  e(spline) 
   0      8    11.287    19.460    0.40E-03    0.73E-03    0.16E-06
   0      8    11.287    12.209    0.38E-03    0.70E-03    0.15E-06
   1      7    11.287     4.655    0.22E-03    0.25E-04    0.22E-06
 Optimization of the real space projectors (new method)

 maximal supplied QI-value         = 24.76
 optimisation between [QCUT,QGAM] = [ 11.39, 22.77] = [ 36.31,145.25] Ry 
 Optimized for a Real-space Cutoff    1.00 Angstroem

   l    n(q)    QCUT    max X(q) W(low)/X(q) W(high)/X(q)  e(spline) 
   0      7    11.387    20.381    0.39E-03    0.13E-02    0.15E-06
   0      7    11.387    15.268    0.42E-03    0.14E-02    0.17E-06
   1      6    11.387     5.964    0.41E-03    0.11E-02    0.17E-06
   1      6    11.387     5.382    0.39E-03    0.87E-03    0.15E-06
  PAW_PBE Ag 02Apr2005                  :
 energy of atom  1       EATOM=-1037.2675
 kinetic energy error for atom=    0.0052 (will be added to EATOM!!)
  PAW_PBE Co 02Aug2007                  :
 energy of atom  2       EATOM= -813.3670
 kinetic energy error for atom=    0.0028 (will be added to EATOM!!)
  PAW_PBE H 15Jun2001                   :
 energy of atom  3       EATOM=  -12.4884
 kinetic energy error for atom=    0.0020 (will be added to EATOM!!)
  PAW_PBE O 08Apr2002                   :
 energy of atom  4       EATOM= -432.3788
 kinetic energy error for atom=    0.0224 (will be added to EATOM!!)
 
 
 POSCAR: Ag-Co-H2O
  positions in direct lattice
  velocities in cartesian coordinates
 exchange correlation table for  LEXCH =        8
   RHO(1)=    0.500       N(1)  =     2000
   RHO(2)=  100.500       N(2)  =     4000

 VTST: version 3.2, (02/03/18)

 CHAIN: initializing optimizer
 
 OPT: Using VASP Conjugate-Gradient optimizer
 CHAIN: Read ICHAIN            0
 
 POSCAR: Ag-Co-H2O
  positions in direct lattice
  velocities in cartesian coordinates
 


--------------------------------------------------------------------------------------------------------


 ion  position               nearest neighbor table
   1  0.000  0.000  0.212-   2 2.93   8 2.93   7 2.93   6 2.93   4 2.93  12 2.93  16 2.93  10 2.93
                             3 2.93
   2  0.333  0.000  0.212-   1 2.93   8 2.93   9 2.93   3 2.93   4 2.93   5 2.93  10 2.93  17 2.93
                            11 2.93
   3  0.667  0.000  0.212-   9 2.93   2 2.93   5 2.93  11 2.93   7 2.93  18 2.93   1 2.93   6 2.93
                            12 2.93
   4  0.000  0.333  0.212-   5 2.93   6 2.93   2 2.93   1 2.93   7 2.93  13 2.93  15 2.93   9 2.93
                            10 2.93
   5  0.333  0.333  0.212-   4 2.93   3 2.93   7 2.93   2 2.93   8 2.93  14 2.93  13 2.93  11 2.93
                             6 2.93
   6  0.667  0.333  0.212-   4 2.93   9 2.93   1 2.93  15 2.93   8 2.93  12 2.93   3 2.93   5 2.93
                            14 2.93
   7  0.000  0.667  0.212-   8 2.93   1 2.93   5 2.93   3 2.93   4 2.93  16 2.93  18 2.93  13 2.93
                             9 2.93
   8  0.333  0.667  0.212-   7 2.93   1 2.93   2 2.93   9 2.93   5 2.93  16 2.93   6 2.93  17 2.93
                            14 2.93
   9  0.667  0.667  0.212-   3 2.93   2 2.93   8 2.93   6 2.93  17 2.93   4 2.93  15 2.93   7 2.93
                            18 2.93
  10  0.111  0.111  0.308-  20 2.92  19 2.93  26 2.93  12 2.93  16 2.93  15 2.93  17 2.93  13 2.93
                            11 2.93   2 2.93   1 2.93   4 2.93
  11  0.444  0.111  0.308-  21 2.90  20 2.90  27 2.92  14 2.93  17 2.93  18 2.93   3 2.93  12 2.93
                            13 2.93  10 2.93   5 2.93   2 2.93
  12  0.778  0.111  0.308-  21 2.92  25 2.93  19 2.93  10 2.93  16 2.93  18 2.93  15 2.93  11 2.93
                             1 2.93  14 2.93   6 2.93   3 2.93
  13  0.111  0.444  0.308-  20 2.90  23 2.90  22 2.92  15 2.93  14 2.93  18 2.93  10 2.93  11 2.93
                            16 2.93   4 2.93   5 2.93   7 2.93
  14  0.444  0.444  0.308-  23 2.90  21 2.90  24 2.92  13 2.93  11 2.93  16 2.93   5 2.93  12 2.93
                            17 2.93   8 2.93  15 2.93   6 2.93
  15  0.778  0.444  0.308-  24 2.91  22 2.91  19 2.92  13 2.93  10 2.93  12 2.93  17 2.93  18 2.93
                             4 2.93   6 2.93   9 2.93  14 2.93
  16  0.111  0.778  0.308-  23 2.92  26 2.93  25 2.93  18 2.93  12 2.93  10 2.93  14 2.93  17 2.93
                            13 2.93   7 2.93   8 2.93   1 2.93
  17  0.444  0.778  0.308-  27 2.91  24 2.91  26 2.92  11 2.93  10 2.93   9 2.93  18 2.93  15 2.93
                            16 2.93   2 2.93  14 2.93   8 2.93
  18  0.778  0.778  0.308-  22 2.91  27 2.91  25 2.92  16 2.93  12 2.93  13 2.93  11 2.93  17 2.93
                            15 2.93   7 2.93   3 2.93   9 2.93
  19  0.889  0.222  0.403-  28 2.91  15 2.92  10 2.93  12 2.93  24 2.93  22 2.93  26 2.93  25 2.93
                            32 2.94  31 2.94  20 2.94  21 2.94
  20  0.223  0.223  0.402-  36 2.69  31 2.89  29 2.89  13 2.90  11 2.90  21 2.91  23 2.91  10 2.92
                            27 2.93  22 2.93  19 2.94  26 2.94
  21  0.554  0.223  0.402-  36 2.69  30 2.89  32 2.89  11 2.90  14 2.90  20 2.91  23 2.91  12 2.92
                            27 2.93  24 2.93  25 2.94  19 2.94
  22  0.888  0.556  0.403-  35 2.91  33 2.91  31 2.91  18 2.91  15 2.91  13 2.92  24 2.92  27 2.92
                            25 2.93  19 2.93  23 2.93  20 2.93
  23  0.223  0.554  0.402-  36 2.69  34 2.89  33 2.89  14 2.90  13 2.90  21 2.91  20 2.91  16 2.92
                            22 2.93  24 2.93  26 2.94  25 2.94
  24  0.556  0.556  0.403-  35 2.91  32 2.91  34 2.91  15 2.91  17 2.91  14 2.92  27 2.92  22 2.92
                            19 2.93  26 2.93  23 2.93  21 2.93
  25  0.889  0.889  0.403-  28 2.91  18 2.92  16 2.93  12 2.93  22 2.93  27 2.93  26 2.93  19 2.93
                            33 2.94  30 2.94  23 2.94  21 2.94
  26  0.222  0.889  0.403-  28 2.91  17 2.92  16 2.93  10 2.93  27 2.93  24 2.93  25 2.93  19 2.93
                            34 2.94  29 2.94  23 2.94  20 2.94
  27  0.556  0.888  0.403-  35 2.91  29 2.91  30 2.91  17 2.91  18 2.91  11 2.92  24 2.92  22 2.92
                            26 2.93  25 2.93  20 2.93  21 2.93
  28  0.000  0.000  0.498-  26 2.91  25 2.91  19 2.91  29 2.97  34 2.97  33 2.97  32 2.97  31 2.97
                            30 2.97
  29  0.333  0.008  0.498-  31 2.86  30 2.86  36 2.87  20 2.89  27 2.91  26 2.94  28 2.97  35 2.97
                            34 3.07
  30  0.659  0.008  0.498-  32 2.86  29 2.86  36 2.87  21 2.89  27 2.91  25 2.94  28 2.97  35 2.97
                            33 3.07
  31  0.008  0.333  0.498-  29 2.86  33 2.86  36 2.87  20 2.89  22 2.91  19 2.94  28 2.97  35 2.97
                            32 3.07
  32  0.659  0.333  0.498-  30 2.86  34 2.86  36 2.87  21 2.89  24 2.91  19 2.94  28 2.97  35 2.97
                            31 3.07
  33  0.008  0.659  0.498-  34 2.86  31 2.86  36 2.87  23 2.89  22 2.91  25 2.94  28 2.97  35 2.97
                            30 3.07
  34  0.333  0.659  0.498-  33 2.86  32 2.86  36 2.87  23 2.89  24 2.91  26 2.94  28 2.97  35 2.97
                            29 3.07
  35  0.667  0.667  0.498-  24 2.91  27 2.91  22 2.91  32 2.97  30 2.97  29 2.97  34 2.97  31 2.97
                            33 2.97
  36  0.333  0.333  0.486-  39 2.14  21 2.69  20 2.69  23 2.69  31 2.87  30 2.87  33 2.87  29 2.87
                            34 2.87  32 2.87
  37  0.274  0.280  0.581-  39 0.98
  38  0.455  0.273  0.580-  39 0.98
  39  0.330  0.348  0.572-  37 0.98  38 0.98  36 2.14
 
  LATTYP: Found a hexagonal cell.
 ALAT       =     8.7913665772
 C/A-ratio  =     2.8382349142
  
  Lattice vectors:
  
 A1 = (  -4.3956832886,  -7.6135467898,   0.0000000000)
 A2 = (   8.7913665771,   0.0000000000,   0.0000000000)
 A3 = (   0.0000000000,   0.0000000000,  24.9519635625)


Analysis of symmetry for initial positions (statically):
=====================================================================
 Subroutine PRICEL returns:
 Original cell was already a primitive cell.
 

 Routine SETGRP: Setting up the symmetry group for a 
 hexagonal supercell.


 Subroutine GETGRP returns: Found  1 space group operations
 (whereof  1 operations were pure point group operations)
 out of a pool of 24 trial point group operations.


The static configuration has the point symmetry C_1 .


Analysis of symmetry for dynamics (positions and initial velocities):
=====================================================================
 Subroutine PRICEL returns:
 Original cell was already a primitive cell.
 

 Routine SETGRP: Setting up the symmetry group for a 
 hexagonal supercell.


 Subroutine GETGRP returns: Found  1 space group operations
 (whereof  1 operations were pure point group operations)
 out of a pool of 24 trial point group operations.


The dynamic configuration has the point symmetry C_1 .


Analysis of constrained symmetry for selective dynamics:
=====================================================================
 Subroutine PRICEL returns:
 Original cell was already a primitive cell.
 

 Routine SETGRP: Setting up the symmetry group for a 
 hexagonal supercell.


 Subroutine GETGRP returns: Found  1 space group operations
 (whereof  1 operations were pure point group operations)
 out of a pool of 24 trial point group operations.


The constrained configuration has the point symmetry C_1 .


 Subroutine INISYM returns: Found  1 space group operations
 (whereof  1 operations are pure point group operations),
 and found     1 'primitive' translations


----------------------------------------------------------------------------------------

                                     Primitive cell                                     

  volume of cell :    1670.1218

  direct lattice vectors                    reciprocal lattice vectors
     8.791366577  0.000000000  0.000000000     0.113747958 -0.065672414  0.000000000
     4.395683289  7.613546790  0.000000000     0.000000000  0.131344829  0.000000000
     0.000000000  0.000000000 24.951963562     0.000000000  0.000000000  0.040077006

  length of vectors
     8.791366577  8.791366577 24.951963562     0.131344829  0.131344829  0.040077006

  position of ions in fractional coordinates (direct lattice)
     0.000000000  0.000000000  0.211694287
     0.333333313  0.000000000  0.211694287
     0.666666627  0.000000000  0.211694287
     0.000000000  0.333333343  0.211694287
     0.333333313  0.333333343  0.211694287
     0.666666687  0.333333343  0.211694287
     0.000000000  0.666666687  0.211694287
     0.333333313  0.666666687  0.211694287
     0.666666627  0.666666687  0.211694287
     0.111111104  0.111111112  0.307586829
     0.444444448  0.111111112  0.307586829
     0.777777791  0.111111112  0.307586829
     0.111111097  0.444444448  0.307586829
     0.444444418  0.444444448  0.307586829
     0.777777791  0.444444448  0.307586829
     0.111111104  0.777777791  0.307586829
     0.444444448  0.777777791  0.307586829
     0.777777791  0.777777791  0.307586829
     0.888752503  0.222495009  0.403246950
     0.223120888  0.223120903  0.402340317
     0.553758163  0.223120903  0.402340317
     0.888275417  0.555862322  0.402770948
     0.223120903  0.553758223  0.402340317
     0.555862322  0.555862322  0.402770948
     0.888752503  0.888752503  0.403246950
     0.222494979  0.888752503  0.403246950
     0.555862262  0.888275417  0.402770948
     0.000000000  0.000000000  0.497981681
     0.333222951  0.008221705  0.497737002
     0.658555284  0.008221705  0.497737002
     0.008221705  0.333222981  0.497737002
     0.658555344  0.333222981  0.497737002
     0.008221705  0.658555344  0.497737002
     0.333222951  0.658555344  0.497737002
     0.666666627  0.666666687  0.497807117
     0.333333313  0.333333343  0.486354464
     0.273585073  0.280295030  0.581461256
     0.454882967  0.273039398  0.580362169
     0.330052335  0.348496068  0.571879018

  ion indices of the primitive-cell ions
   primitive index   ion index
                 1           1
                 2           2
                 3           3
                 4           4
                 5           5
                 6           6
                 7           7
                 8           8
                 9           9
                10          10
                11          11
                12          12
                13          13
                14          14
                15          15
                16          16
                17          17
                18          18
                19          19
                20          20
                21          21
                22          22
                23          23
                24          24
                25          25
                26          26
                27          27
                28          28
                29          29
                30          30
                31          31
                32          32
                33          33
                34          34
                35          35
                36          36
                37          37
                38          38
                39          39

----------------------------------------------------------------------------------------

 
 
 KPOINTS: Automatic mesh                          

Automatic generation of k-mesh.
 Grid dimensions read from file:
 generate k-points for:    8    8    1

 Generating k-lattice:

  Cartesian coordinates                     Fractional coordinates (reciprocal lattice)
     0.014218495 -0.008209052  0.000000000     0.125000000  0.000000000  0.000000000
     0.000000000  0.016418104  0.000000000     0.000000000  0.125000000  0.000000000
     0.000000000  0.000000000  0.040077006     0.000000000  0.000000000  1.000000000

  Length of vectors
     0.016418104  0.016418104  0.040077006

  Shift w.r.t. Gamma in fractional coordinates (k-lattice)
     0.000000000  0.000000000  0.000000000

 TETIRR: Found    192 inequivalent tetrahedra from      384
 
 Subroutine IBZKPT returns following result:
 ===========================================
 
 Found     34 irreducible k-points:
 
 Following reciprocal coordinates:
            Coordinates               Weight
  0.000000  0.000000  0.000000      1.000000
  0.125000  0.000000  0.000000      2.000000
  0.125000  0.125000  0.000000      2.000000
  0.000000  0.125000  0.000000      2.000000
  0.250000  0.000000  0.000000      2.000000
  0.250000  0.250000  0.000000      2.000000
  0.000000  0.250000  0.000000      2.000000
  0.375000  0.000000  0.000000      2.000000
  0.375000  0.375000  0.000000      2.000000
  0.000000  0.375000  0.000000      2.000000
  0.500000  0.000000  0.000000      1.000000
  0.500000  0.500000  0.000000      1.000000
  0.000000  0.500000  0.000000      1.000000
  0.250000  0.125000  0.000000      2.000000
  0.125000  0.250000  0.000000      2.000000
 -0.125000  0.125000  0.000000      2.000000
  0.375000  0.125000  0.000000      2.000000
  0.250000  0.375000  0.000000      2.000000
 -0.125000  0.250000  0.000000      2.000000
  0.250000 -0.125000  0.000000      2.000000
 -0.125000 -0.375000  0.000000      2.000000
 -0.375000 -0.250000  0.000000      2.000000
  0.500000  0.125000  0.000000      2.000000
  0.375000  0.500000  0.000000      2.000000
 -0.125000  0.375000  0.000000      2.000000
  0.375000 -0.125000  0.000000      2.000000
 -0.125000  0.500000  0.000000      2.000000
  0.500000 -0.375000  0.000000      2.000000
  0.500000  0.250000  0.000000      2.000000
  0.250000  0.500000  0.000000      2.000000
 -0.250000  0.250000  0.000000      2.000000
 -0.375000  0.250000  0.000000      2.000000
  0.375000 -0.375000  0.000000      2.000000
 -0.250000  0.375000  0.000000      2.000000
 
 Following cartesian coordinates:
            Coordinates               Weight
  0.000000  0.000000  0.000000      1.000000
  0.014218 -0.008209  0.000000      2.000000
  0.014218  0.008209  0.000000      2.000000
  0.000000  0.016418  0.000000      2.000000
  0.028437 -0.016418  0.000000      2.000000
  0.028437  0.016418  0.000000      2.000000
  0.000000  0.032836  0.000000      2.000000
  0.042655 -0.024627  0.000000      2.000000
  0.042655  0.024627  0.000000      2.000000
  0.000000  0.049254  0.000000      2.000000
  0.056874 -0.032836  0.000000      1.000000
  0.056874  0.032836  0.000000      1.000000
  0.000000  0.065672  0.000000      1.000000
  0.028437 -0.000000  0.000000      2.000000
  0.014218  0.024627  0.000000      2.000000
 -0.014218  0.024627  0.000000      2.000000
  0.042655 -0.008209  0.000000      2.000000
  0.028437  0.032836  0.000000      2.000000
 -0.014218  0.041045  0.000000      2.000000
  0.028437 -0.032836  0.000000      2.000000
 -0.014218 -0.041045  0.000000      2.000000
 -0.042655 -0.008209  0.000000      2.000000
  0.056874 -0.016418  0.000000      2.000000
  0.042655  0.041045  0.000000      2.000000
 -0.014218  0.057463  0.000000      2.000000
  0.042655 -0.041045  0.000000      2.000000
 -0.014218  0.073881  0.000000      2.000000
  0.056874 -0.082091  0.000000      2.000000
  0.056874 -0.000000  0.000000      2.000000
  0.028437  0.049254  0.000000      2.000000
 -0.028437  0.049254  0.000000      2.000000
 -0.042655  0.057463  0.000000      2.000000
  0.042655 -0.073881  0.000000      2.000000
 -0.028437  0.065672  0.000000      2.000000
 


--------------------------------------------------------------------------------------------------------




 Dimension of arrays:
   k-points           NKPTS =     34   k-points in BZ     NKDIM =     34   number of bands    NBANDS=    252
   number of dos      NEDOS =    301   number of ions     NIONS =     39
   non local maximal  LDIM  =      6   non local SUM 2l+1 LMDIM =     18
   total plane-waves  NPLWV = 322560
   max r-space proj   IRMAX =   2422   max aug-charges    IRDMAX=   9695
   dimension x,y,z NGX =    48 NGY =   48 NGZ =  140
   dimension x,y,z NGXF=    96 NGYF=   96 NGZF=  280
   support grid    NGXF=    96 NGYF=   96 NGZF=  280
   ions per type =              35   1   2   1
   NGX,Y,Z   is equivalent  to a cutoff of   9.08,  9.08,  9.33 a.u.
   NGXF,Y,Z  is equivalent  to a cutoff of  18.15, 18.15, 18.66 a.u.

 SYSTEM =  unknown system                          
 POSCAR =  Ag-Co-H2O                               

 Startparameter for this run:
   NWRITE =      2    write-flag & timer
   PREC   = normal    normal or accurate (medium, high low for compatibility)
   ISTART =      0    job   : 0-new  1-cont  2-samecut
   ICHARG =     11    charge: 1-file 2-atom 10-const
   ISPIN  =      1    spin polarized calculation?
   LNONCOLLINEAR =      F non collinear calculations
   LSORBIT =      F    spin-orbit coupling
   INIWAV =      1    electr: 0-lowe 1-rand  2-diag
   LASPH  =      F    aspherical Exc in radial PAW
   METAGGA=      F    non-selfconsistent MetaGGA calc.

 Electronic Relaxation 1
   ENCUT  =  500.0 eV  36.75 Ry    6.06 a.u.  16.03 16.03 45.49*2*pi/ulx,y,z
   ENINI  =  500.0     initial cutoff
   ENAUG  =  605.4 eV  augmentation charge cutoff
   NELM   =    150;   NELMIN=  2; NELMDL= -5     # of ELM steps 
   EDIFF  = 0.1E-04   stopping-criterion for ELM
   LREAL  =      T    real-space projection
   NLSPLINE    = F    spline interpolate recip. space projectors
   LCOMPAT=      F    compatible to vasp.4.4
   GGA_COMPAT  = T    GGA compatible to vasp.4.4-vasp.4.6
   LMAXPAW     = -100 max onsite density
   LMAXMIX     =    2 max onsite mixed and CHGCAR
   VOSKOWN=      0    Vosko Wilk Nusair interpolation
   ROPT   =   -0.00050  -0.00050  -0.00050  -0.00050
 Ionic relaxation
   EDIFFG = -.1E-01   stopping-criterion for IOM
   NSW    =      0    number of steps for IOM
   NBLOCK =      1;   KBLOCK =      1    inner block; outer block 
   IBRION =     -1    ionic relax: 0-MD 1-quasi-New 2-CG
   NFREE  =      1    steps in history (QN), initial steepest desc. (CG)
   ISIF   =      2    stress and relaxation
   IWAVPR =     10    prediction:  0-non 1-charg 2-wave 3-comb
   ISYM   =      2    0-nonsym 1-usesym 2-fastsym
   LCORR  =      T    Harris-Foulkes like correction to forces

   POTIM  = 0.5000    time-step for ionic-motion
   TEIN   =    0.0    initial temperature
   TEBEG  =    0.0;   TEEND  =   0.0 temperature during run
   SMASS  =  -3.00    Nose mass-parameter (am)
   estimated Nose-frequenzy (Omega)   =  0.10E-29 period in steps = 0.13E+47 mass=  -0.177E-26a.u.
   SCALEE = 1.0000    scale energy and forces
   NPACO  =    256;   APACO  = 16.0  distance and # of slots for P.C.
   PSTRESS=    0.0 pullay stress

  Mass of Ions in am
   POMASS = 107.87 58.93  1.00 16.00
  Ionic Valenz
   ZVAL   =  11.00  9.00  1.00  6.00
  Atomic Wigner-Seitz radii
   RWIGS  =  -1.00 -1.00 -1.00 -1.00
  virtual crystal weights 
   VCA    =   1.00  1.00  1.00  1.00
   NELECT =     402.0000    total number of electrons
   NUPDOWN=      -1.0000    fix difference up-down

 DOS related values:
   EMIN   =  10.00;   EMAX   =-10.00  energy-range for DOS
   EFERMI =   0.00
   ISMEAR =    -5;   SIGMA  =   0.10  broadening in eV -4-tet -1-fermi 0-gaus

 Electronic relaxation 2 (details)
   IALGO  =     68    algorithm
   LDIAG  =      T    sub-space diagonalisation (order eigenvalues)
   LSUBROT=      F    optimize rotation matrix (better conditioning)
   TURBO    =      0    0=normal 1=particle mesh
   IRESTART =      0    0=no restart 2=restart with 2 vectors
   NREBOOT  =      0    no. of reboots
   NMIN     =      0    reboot dimension
   EREF     =   0.00    reference energy to select bands
   IMIX   =      4    mixing-type and parameters
     AMIX     =   0.40;   BMIX     =  1.00
     AMIX_MAG =   1.60;   BMIX_MAG =  1.00
     AMIN     =   0.10
     WC   =   100.;   INIMIX=   1;  MIXPRE=   1;  MAXMIX= -45

 Intra band minimization:
   WEIMIN = 0.0000     energy-eigenvalue tresh-hold
   EBREAK =  0.99E-08  absolut break condition
   DEPER  =   0.30     relativ break condition  

   TIME   =   0.40     timestep for ELM

  volume/ion in A,a.u.               =      42.82       288.99
  Fermi-wavevector in a.u.,A,eV,Ry     =   1.018359  1.924419 14.109984  1.037055
  Thomas-Fermi vector in A             =   2.151812
 
 Write flags
   LWAVE        =      F    write WAVECAR
   LDOWNSAMPLE  =      F    k-point downsampling of WAVECAR
   LCHARG       =      F    write CHGCAR
   LVTOT        =      F    write LOCPOT, total local potential
   LVHAR        =      F    write LOCPOT, Hartree potential only
   LELF         =      F    write electronic localiz. function (ELF)
   LORBIT       =     10    0 simple, 1 ext, 2 COOP (PROOUT), +10 PAW based schemes


 Dipole corrections
   LMONO  =      F    monopole corrections only (constant potential shift)
   LDIPOL =      F    correct potential (dipole corrections)
   IDIPOL =      0    1-x, 2-y, 3-z, 4-all directions 
   EPSILON=  1.0000000 bulk dielectric constant

 Exchange correlation treatment:
   GGA     =    --    GGA type
   LEXCH   =     8    internal setting for exchange type
   VOSKOWN=      0    Vosko Wilk Nusair interpolation
   LHFCALC =     F    Hartree Fock is set to
   LHFONE  =     F    Hartree Fock one center treatment
   AEXX    =    0.0000 exact exchange contribution

 Linear response parameters
   LEPSILON=     F    determine dielectric tensor
   LRPA    =     F    only Hartree local field effects (RPA)
   LNABLA  =     F    use nabla operator in PAW spheres
   LVEL    =     F    velocity operator in full k-point grid
   LINTERFAST=   F  fast interpolation
   KINTER  =     0    interpolate to denser k-point grid
   CSHIFT  =0.1000    complex shift for real part using Kramers Kronig
   OMEGAMAX=  -1.0    maximum frequency
   DEG_THRESHOLD= 0.2000000E-02 threshold for treating states as degnerate
   RTIME   =   -0.100 relaxation time in fs
  (WPLASMAI=    0.000 imaginary part of plasma frequency in eV, 0.658/RTIME)
   DFIELD  = 0.0000000 0.0000000 0.0000000 field for delta impulse in time
 
 Orbital magnetization related:
   ORBITALMAG=     F  switch on orbital magnetization
   LCHIMAG   =     F  perturbation theory with respect to B field
   DQ        =  0.001000  dq finite difference perturbation B field
   LLRAUG    =     F  two centre corrections for induced B field



--------------------------------------------------------------------------------------------------------


 Static calculation
 charge density and potential remain constant during run
 non-spin polarized calculation
 RMM-DIIS sequential band-by-band and
  variant of blocked Davidson during initial phase
 perform sub-space diagonalisation
    before iterative eigenvector-optimisation
 no mixing
 using additional bands           51
 real space projection scheme for non local part
 use partial core corrections
 calculate Harris-corrections to forces 
   (improved forces if not selfconsistent)
 use gradient corrections 
 WARNING: stress and forces are not correct
  (second derivative of E(xc) not defined)
 use of overlap-Matrix (Vanderbilt PP)
 Fermi weights with tetrahedron method with Bloechl corrections


--------------------------------------------------------------------------------------------------------


  energy-cutoff  :      500.00
  volume of cell :     1670.12
      direct lattice vectors                 reciprocal lattice vectors
     8.791366577  0.000000000  0.000000000     0.113747958 -0.065672414  0.000000000
     4.395683289  7.613546790  0.000000000     0.000000000  0.131344829  0.000000000
     0.000000000  0.000000000 24.951963562     0.000000000  0.000000000  0.040077006

  length of vectors
     8.791366577  8.791366577 24.951963562     0.131344829  0.131344829  0.040077006


 
 k-points in units of 2pi/SCALE and weight: Automatic mesh                          
   0.00000000  0.00000000  0.00000000       0.016
   0.01421849 -0.00820905  0.00000000       0.031
   0.01421849  0.00820905  0.00000000       0.031
   0.00000000  0.01641810  0.00000000       0.031
   0.02843699 -0.01641810  0.00000000       0.031
   0.02843699  0.01641810  0.00000000       0.031
   0.00000000  0.03283621  0.00000000       0.031
   0.04265548 -0.02462716  0.00000000       0.031
   0.04265548  0.02462716  0.00000000       0.031
   0.00000000  0.04925431  0.00000000       0.031
   0.05687398 -0.03283621  0.00000000       0.016
   0.05687398  0.03283621  0.00000000       0.016
   0.00000000  0.06567241  0.00000000       0.016
   0.02843699 -0.00000000  0.00000000       0.031
   0.01421849  0.02462716  0.00000000       0.031
  -0.01421849  0.02462716  0.00000000       0.031
   0.04265548 -0.00820905  0.00000000       0.031
   0.02843699  0.03283621  0.00000000       0.031
  -0.01421849  0.04104526  0.00000000       0.031
   0.02843699 -0.03283621  0.00000000       0.031
  -0.01421849 -0.04104526  0.00000000       0.031
  -0.04265548 -0.00820905  0.00000000       0.031
   0.05687398 -0.01641810  0.00000000       0.031
   0.04265548  0.04104526  0.00000000       0.031
  -0.01421849  0.05746336  0.00000000       0.031
   0.04265548 -0.04104526  0.00000000       0.031
  -0.01421849  0.07388147  0.00000000       0.031
   0.05687398 -0.08209052  0.00000000       0.031
   0.05687398 -0.00000000  0.00000000       0.031
   0.02843699  0.04925431  0.00000000       0.031
  -0.02843699  0.04925431  0.00000000       0.031
  -0.04265548  0.05746336  0.00000000       0.031
   0.04265548 -0.07388147  0.00000000       0.031
  -0.02843699  0.06567241  0.00000000       0.031
 
 k-points in reciprocal lattice and weights: Automatic mesh                          
   0.00000000  0.00000000  0.00000000       0.016
   0.12500000  0.00000000  0.00000000       0.031
   0.12500000  0.12500000  0.00000000       0.031
   0.00000000  0.12500000  0.00000000       0.031
   0.25000000  0.00000000  0.00000000       0.031
   0.25000000  0.25000000  0.00000000       0.031
   0.00000000  0.25000000  0.00000000       0.031
   0.37500000  0.00000000  0.00000000       0.031
   0.37500000  0.37500000  0.00000000       0.031
   0.00000000  0.37500000  0.00000000       0.031
   0.50000000  0.00000000  0.00000000       0.016
   0.50000000  0.50000000  0.00000000       0.016
   0.00000000  0.50000000  0.00000000       0.016
   0.25000000  0.12500000  0.00000000       0.031
   0.12500000  0.25000000  0.00000000       0.031
  -0.12500000  0.12500000  0.00000000       0.031
   0.37500000  0.12500000  0.00000000       0.031
   0.25000000  0.37500000  0.00000000       0.031
  -0.12500000  0.25000000  0.00000000       0.031
   0.25000000 -0.12500000  0.00000000       0.031
  -0.12500000 -0.37500000  0.00000000       0.031
  -0.37500000 -0.25000000  0.00000000       0.031
   0.50000000  0.12500000  0.00000000       0.031
   0.37500000  0.50000000  0.00000000       0.031
  -0.12500000  0.37500000  0.00000000       0.031
   0.37500000 -0.12500000  0.00000000       0.031
  -0.12500000  0.50000000  0.00000000       0.031
   0.50000000 -0.37500000  0.00000000       0.031
   0.50000000  0.25000000  0.00000000       0.031
   0.25000000  0.50000000  0.00000000       0.031
  -0.25000000  0.25000000  0.00000000       0.031
  -0.37500000  0.25000000  0.00000000       0.031
   0.37500000 -0.37500000  0.00000000       0.031
  -0.25000000  0.37500000  0.00000000       0.031
 
 position of ions in fractional coordinates (direct lattice) 
   0.00000000  0.00000000  0.21169429
   0.33333331  0.00000000  0.21169429
   0.66666663  0.00000000  0.21169429
   0.00000000  0.33333334  0.21169429
   0.33333331  0.33333334  0.21169429
   0.66666669  0.33333334  0.21169429
   0.00000000  0.66666669  0.21169429
   0.33333331  0.66666669  0.21169429
   0.66666663  0.66666669  0.21169429
   0.11111110  0.11111111  0.30758683
   0.44444445  0.11111111  0.30758683
   0.77777779  0.11111111  0.30758683
   0.11111110  0.44444445  0.30758683
   0.44444442  0.44444445  0.30758683
   0.77777779  0.44444445  0.30758683
   0.11111110  0.77777779  0.30758683
   0.44444445  0.77777779  0.30758683
   0.77777779  0.77777779  0.30758683
   0.88875250  0.22249501  0.40324695
   0.22312089  0.22312090  0.40234032
   0.55375816  0.22312090  0.40234032
   0.88827542  0.55586232  0.40277095
   0.22312090  0.55375822  0.40234032
   0.55586232  0.55586232  0.40277095
   0.88875250  0.88875250  0.40324695
   0.22249498  0.88875250  0.40324695
   0.55586226  0.88827542  0.40277095
   0.00000000  0.00000000  0.49798168
   0.33322295  0.00822170  0.49773700
   0.65855528  0.00822170  0.49773700
   0.00822170  0.33322298  0.49773700
   0.65855534  0.33322298  0.49773700
   0.00822170  0.65855534  0.49773700
   0.33322295  0.65855534  0.49773700
   0.66666663  0.66666669  0.49780712
   0.33333331  0.33333334  0.48635446
   0.27358507  0.28029503  0.58146126
   0.45488297  0.27303940  0.58036217
   0.33005234  0.34849607  0.57187902
 
 position of ions in cartesian coordinates  (Angst):
   0.00000000  0.00000000  5.28218814
   2.93045535  0.00000000  5.28218814
   5.86091070  0.00000000  5.28218814
   1.46522781  2.53784900  5.28218814
   4.39568315  2.53784900  5.28218814
   7.32613904  2.53784900  5.28218814
   2.93045562  5.07569801  5.28218814
   5.86091096  5.07569801  5.28218814
   8.79136632  5.07569801  5.28218814
   1.46522770  0.84594965  7.67489535
   4.39568332  0.84594965  7.67489535
   7.32613893  0.84594965  7.67489535
   2.93045542  3.38379860  7.67489535
   5.86091083  3.38379860  7.67489535
   8.79136671  3.38379860  7.67489535
   4.39568328  5.92164760  7.67489535
   7.32613890  5.92164760  7.67489535
  10.25659451  5.92164760  7.67489535
   8.79136665  1.69397616 10.06180321
   2.94230635  1.69874144 10.03918093
   5.84905984  1.69874144 10.03918093
  10.25254953  4.23208379 10.04992602
   4.39568342  4.21606414 10.03918093
   7.33018415  4.23208379 10.04992602
  11.72002358  6.76655877 10.06180321
   5.86270945  6.76655877 10.06180321
   8.79136631  6.76292645 10.04992602
   0.00000000  0.00000000 12.42562075
   2.96562513  0.06259633 12.41951554
   5.82574092  0.06259633 12.41951554
   1.53702271  2.53700876 12.41951554
   7.25434413  2.53700876 12.41951554
   2.96708074  5.01394193 12.41951554
   5.82428584  5.01394193 12.41951554
   8.79136632  5.07569801 12.42126504
   4.39568315  2.53784900 12.13549887
   3.63727484  2.13403933 14.50860008
   5.19923763  2.07879823 14.48117569
   4.43348941  2.65329112 14.26950441
 


--------------------------------------------------------------------------------------------------------


 k-point   1 :   0.0000 0.0000 0.0000  plane waves:   42349
 k-point   2 :   0.1250 0.0000 0.0000  plane waves:   42346
 k-point   3 :   0.1250 0.1250 0.0000  plane waves:   42346
 k-point   4 :   0.0000 0.1250 0.0000  plane waves:   42346
 k-point   5 :   0.2500 0.0000 0.0000  plane waves:   42376
 k-point   6 :   0.2500 0.2500 0.0000  plane waves:   42376
 k-point   7 :   0.0000 0.2500 0.0000  plane waves:   42376
 k-point   8 :   0.3750 0.0000 0.0000  plane waves:   42380
 k-point   9 :   0.3750 0.3750 0.0000  plane waves:   42380
 k-point  10 :   0.0000 0.3750 0.0000  plane waves:   42380
 k-point  11 :   0.5000 0.0000 0.0000  plane waves:   42416
 k-point  12 :   0.5000 0.5000 0.0000  plane waves:   42416
 k-point  13 :   0.0000 0.5000 0.0000  plane waves:   42416
 k-point  14 :   0.2500 0.1250 0.0000  plane waves:   42390
 k-point  15 :   0.1250 0.2500 0.0000  plane waves:   42390
 k-point  16 :  -0.1250 0.1250 0.0000  plane waves:   42390
 k-point  17 :   0.3750 0.1250 0.0000  plane waves:   42414
 k-point  18 :   0.2500 0.3750 0.0000  plane waves:   42414
 k-point  19 :  -0.1250 0.2500 0.0000  plane waves:   42414
 k-point  20 :   0.2500-0.1250 0.0000  plane waves:   42414
 k-point  21 :  -0.1250-0.3750 0.0000  plane waves:   42414
 k-point  22 :  -0.3750-0.2500 0.0000  plane waves:   42414
 k-point  23 :   0.5000 0.1250 0.0000  plane waves:   42428
 k-point  24 :   0.3750 0.5000 0.0000  plane waves:   42428
 k-point  25 :  -0.1250 0.3750 0.0000  plane waves:   42428
 k-point  26 :   0.3750-0.1250 0.0000  plane waves:   42428
 k-point  27 :  -0.1250 0.5000 0.0000  plane waves:   42428
 k-point  28 :   0.5000-0.3750 0.0000  plane waves:   42428
 k-point  29 :   0.5000 0.2500 0.0000  plane waves:   42438
 k-point  30 :   0.2500 0.5000 0.0000  plane waves:   42438
 k-point  31 :  -0.2500 0.2500 0.0000  plane waves:   42438
 k-point  32 :  -0.3750 0.2500 0.0000  plane waves:   42416
 k-point  33 :   0.3750-0.3750 0.0000  plane waves:   42416
 k-point  34 :  -0.2500 0.3750 0.0000  plane waves:   42416

 maximum and minimum number of plane-waves per node :     42438    42346

 maximum number of plane-waves:     42438
 maximum index in each direction: 
   IXMAX=   16   IYMAX=   16   IZMAX=   45
   IXMIN=  -16   IYMIN=  -16   IZMIN=  -45


 serial   3D FFT for wavefunctions
 parallel 3D FFT for charge:
    minimum data exchange during FFTs selected (reduces bandwidth)


 total amount of memory used by VASP MPI-rank0   282133. kBytes
=======================================================================

   base      :      30000. kBytes
   nonlr-proj:      14881. kBytes
   fftplans  :       4808. kBytes
   grid      :      20723. kBytes
   one-center:        606. kBytes
   wavefun   :     211115. kBytes
 
     INWAV:  cpu time    0.0000: real time    0.0001
 initial charge density was supplied:
 number of electron     402.0000104 magnetization 
 keeping initial charge density in first step


--------------------------------------------------------------------------------------------------------


 Maximum index for non-local projection operator         2320
 Maximum index for augmentation-charges          701 (set IRDMAX)


--------------------------------------------------------------------------------------------------------


 First call to EWALD:  gamma=   0.149
 Maximum number of real-space cells 4x 4x 2
 Maximum number of reciprocal cells 2x 2x 5

    FEWALD:  cpu time    0.0014: real time    0.0014


--------------------------------------- Iteration      1(   1)  ---------------------------------------


    POTLOK:  cpu time    0.0592: real time    0.0596
    SETDIJ:  cpu time    0.0047: real time    0.0049
     EDDAV:  cpu time   26.7019: real time   26.7036
 BZINTS: Fermi energy:    9.072869;  402.000000 electrons
         Band energy: 0.108491E+04;  BLOECHL correction:   -0.027183
       DOS:  cpu time    0.0554: real time    0.0555
    --------------------------------------------
      LOOP:  cpu time   26.8213: real time   26.8237

 eigenvalue-minimisations  : 17136
 total energy-change (2. order) : 0.2454867E+04  (-0.1817425E+05)
 number of electron     402.0000104 magnetization 
 augmentation part      402.0000104 magnetization 

 Free energy of the ion-electron system (eV)
  ---------------------------------------------------
  alpha Z        PSCENC =       669.50511577
  Ewald energy   TEWEN  =    140809.37880939
  -Hartree energ DENC   =   -178826.21450148
  -exchange      EXHF   =         0.00000000
  -V(xc)+E(xc)   XCENC  =      -339.46781993
  PAW double counting   =     39645.56652941   -38163.68722855
  entropy T*S    EENTRO =         0.00000000
  eigenvalues    EBANDS =      1084.91207650
  atomic energy  EATOM  =     37574.87430029
  Solvation  Ediel_sol  =         0.00000000
  ---------------------------------------------------
  free energy    TOTEN  =      2454.86728140 eV

  energy without entropy =     2454.86728140  energy(sigma->0) =     2454.86728140


--------------------------------------------------------------------------------------------------------




--------------------------------------- Iteration      1(   2)  ---------------------------------------


     EDDAV:  cpu time   27.8688: real time   27.8690
 BZINTS: Fermi energy:    1.036702;  402.000000 electrons
         Band energy:-0.137568E+04;  BLOECHL correction:   -0.026310
       DOS:  cpu time    0.0558: real time    0.0558
    --------------------------------------------
      LOOP:  cpu time   27.9246: real time   27.9249

 eigenvalue-minimisations  : 18088
 total energy-change (2. order) :-0.2460594E+04  (-0.2331781E+04)
 number of electron     402.0000104 magnetization 
 augmentation part      402.0000104 magnetization 

 Free energy of the ion-electron system (eV)
  ---------------------------------------------------
  alpha Z        PSCENC =       669.50511577
  Ewald energy   TEWEN  =    140809.37880939
  -Hartree energ DENC   =   -178826.21450148
  -exchange      EXHF   =         0.00000000
  -V(xc)+E(xc)   XCENC  =      -339.46781993
  PAW double counting   =     39645.56652941   -38163.68722855
  entropy T*S    EENTRO =         0.00000000
  eigenvalues    EBANDS =     -1375.68173786
  atomic energy  EATOM  =     37574.87430029
  Solvation  Ediel_sol  =         0.00000000
  ---------------------------------------------------
  free energy    TOTEN  =        -5.72653296 eV

  energy without entropy =       -5.72653296  energy(sigma->0) =       -5.72653296


--------------------------------------------------------------------------------------------------------




--------------------------------------- Iteration      1(   3)  ---------------------------------------


     EDDAV:  cpu time   30.7019: real time   30.7020
 BZINTS: Fermi energy:    0.490483;  402.000000 electrons
         Band energy:-0.147711E+04;  BLOECHL correction:   -0.039063
       DOS:  cpu time    0.0586: real time    0.0586
    --------------------------------------------
      LOOP:  cpu time   30.7605: real time   30.7606

 eigenvalue-minimisations  : 20328
 total energy-change (2. order) :-0.1014318E+03  (-0.9966287E+02)
 number of electron     402.0000104 magnetization 
 augmentation part      402.0000104 magnetization 

 Free energy of the ion-electron system (eV)
  ---------------------------------------------------
  alpha Z        PSCENC =       669.50511577
  Ewald energy   TEWEN  =    140809.37880939
  -Hartree energ DENC   =   -178826.21450148
  -exchange      EXHF   =         0.00000000
  -V(xc)+E(xc)   XCENC  =      -339.46781993
  PAW double counting   =     39645.56652941   -38163.68722855
  entropy T*S    EENTRO =         0.00000000
  eigenvalues    EBANDS =     -1477.11352249
  atomic energy  EATOM  =     37574.87430029
  Solvation  Ediel_sol  =         0.00000000
  ---------------------------------------------------
  free energy    TOTEN  =      -107.15831758 eV

  energy without entropy =     -107.15831758  energy(sigma->0) =     -107.15831758


--------------------------------------------------------------------------------------------------------




--------------------------------------- Iteration      1(   4)  ---------------------------------------


     EDDAV:  cpu time   28.4461: real time   28.4464
 BZINTS: Fermi energy:    0.479788;  402.000000 electrons
         Band energy:-0.147854E+04;  BLOECHL correction:   -0.038739
       DOS:  cpu time    0.0563: real time    0.0563
    --------------------------------------------
      LOOP:  cpu time   28.5024: real time   28.5027

 eigenvalue-minimisations  : 18536
 total energy-change (2. order) :-0.1431420E+01  (-0.1429781E+01)
 number of electron     402.0000104 magnetization 
 augmentation part      402.0000104 magnetization 

 Free energy of the ion-electron system (eV)
  ---------------------------------------------------
  alpha Z        PSCENC =       669.50511577
  Ewald energy   TEWEN  =    140809.37880939
  -Hartree energ DENC   =   -178826.21450148
  -exchange      EXHF   =         0.00000000
  -V(xc)+E(xc)   XCENC  =      -339.46781993
  PAW double counting   =     39645.56652941   -38163.68722855
  entropy T*S    EENTRO =         0.00000000
  eigenvalues    EBANDS =     -1478.54494246
  atomic energy  EATOM  =     37574.87430029
  Solvation  Ediel_sol  =         0.00000000
  ---------------------------------------------------
  free energy    TOTEN  =      -108.58973755 eV

  energy without entropy =     -108.58973755  energy(sigma->0) =     -108.58973755


--------------------------------------------------------------------------------------------------------




--------------------------------------- Iteration      1(   5)  ---------------------------------------


     EDDAV:  cpu time   32.0109: real time   32.0111
 BZINTS: Fermi energy:    0.479587;  402.000000 electrons
         Band energy:-0.147858E+04;  BLOECHL correction:   -0.038724
       DOS:  cpu time    0.0576: real time    0.0576
    --------------------------------------------
      LOOP:  cpu time   32.0685: real time   32.0687

 eigenvalue-minimisations  : 21364
 total energy-change (2. order) :-0.3684384E-01  (-0.3684461E-01)
 number of electron     402.0000104 magnetization 
 augmentation part      402.0000104 magnetization 

 Free energy of the ion-electron system (eV)
  ---------------------------------------------------
  alpha Z        PSCENC =       669.50511577
  Ewald energy   TEWEN  =    140809.37880939
  -Hartree energ DENC   =   -178826.21450148
  -exchange      EXHF   =         0.00000000
  -V(xc)+E(xc)   XCENC  =      -339.46781993
  PAW double counting   =     39645.56652941   -38163.68722855
  entropy T*S    EENTRO =         0.00000000
  eigenvalues    EBANDS =     -1478.58178630
  atomic energy  EATOM  =     37574.87430029
  Solvation  Ediel_sol  =         0.00000000
  ---------------------------------------------------
  free energy    TOTEN  =      -108.62658139 eV

  energy without entropy =     -108.62658139  energy(sigma->0) =     -108.62658139


--------------------------------------------------------------------------------------------------------




--------------------------------------- Iteration      1(   6)  ---------------------------------------


    EDDIAG:  cpu time    5.2504: real time    5.2538
  RMM-DIIS:  cpu time   14.8858: real time   14.8859
    ORTHCH:  cpu time    0.9815: real time    0.9815
 BZINTS: Fermi energy:    0.479582;  402.000000 electrons
         Band energy:-0.147858E+04;  BLOECHL correction:   -0.038724
       DOS:  cpu time    0.0576: real time    0.0576
    --------------------------------------------
      LOOP:  cpu time   21.1751: real time   21.1787

 eigenvalue-minimisations  : 17267
 total energy-change (2. order) :-0.9355512E-03  (-0.9356172E-03)
 number of electron     402.0000104 magnetization 
 augmentation part      402.0000104 magnetization 

 Free energy of the ion-electron system (eV)
  ---------------------------------------------------
  alpha Z        PSCENC =       669.50511577
  Ewald energy   TEWEN  =    140809.37880939
  -Hartree energ DENC   =   -178826.21450148
  -exchange      EXHF   =         0.00000000
  -V(xc)+E(xc)   XCENC  =      -339.46781993
  PAW double counting   =     39645.56652941   -38163.68722855
  entropy T*S    EENTRO =         0.00000000
  eigenvalues    EBANDS =     -1478.58272185
  atomic energy  EATOM  =     37574.87430029
  Solvation  Ediel_sol  =         0.00000000
  ---------------------------------------------------
  free energy    TOTEN  =      -108.62751694 eV

  energy without entropy =     -108.62751694  energy(sigma->0) =     -108.62751694


--------------------------------------------------------------------------------------------------------




--------------------------------------- Iteration      1(   7)  ---------------------------------------


    EDDIAG:  cpu time    5.2534: real time    5.2537
  RMM-DIIS:  cpu time   21.8146: real time   21.8146
    ORTHCH:  cpu time    0.9808: real time    0.9809
 BZINTS: Fermi energy:    0.479580;  402.000000 electrons
         Band energy:-0.147858E+04;  BLOECHL correction:   -0.038724
       DOS:  cpu time    0.0575: real time    0.0575
    --------------------------------------------
      LOOP:  cpu time   28.1064: real time   28.1067

 eigenvalue-minimisations  : 24897
 total energy-change (2. order) :-0.4016263E-03  (-0.3956175E-03)
 number of electron     402.0000104 magnetization 
 augmentation part      402.0000104 magnetization 

 Free energy of the ion-electron system (eV)
  ---------------------------------------------------
  alpha Z        PSCENC =       669.50511577
  Ewald energy   TEWEN  =    140809.37880939
  -Hartree energ DENC   =   -178826.21450148
  -exchange      EXHF   =         0.00000000
  -V(xc)+E(xc)   XCENC  =      -339.46781993
  PAW double counting   =     39645.56652941   -38163.68722855
  entropy T*S    EENTRO =         0.00000000
  eigenvalues    EBANDS =     -1478.58312348
  atomic energy  EATOM  =     37574.87430029
  Solvation  Ediel_sol  =         0.00000000
  ---------------------------------------------------
  free energy    TOTEN  =      -108.62791857 eV

  energy without entropy =     -108.62791857  energy(sigma->0) =     -108.62791857


--------------------------------------------------------------------------------------------------------




--------------------------------------- Iteration      1(   8)  ---------------------------------------


    EDDIAG:  cpu time    5.2511: real time    5.2515
  RMM-DIIS:  cpu time   17.4701: real time   17.4701
    ORTHCH:  cpu time    0.9809: real time    0.9809
 BZINTS: Fermi energy:    0.479580;  402.000000 electrons
         Band energy:-0.147858E+04;  BLOECHL correction:   -0.038724
       DOS:  cpu time    0.0588: real time    0.0588
    --------------------------------------------
      LOOP:  cpu time   23.7610: real time   23.7614

 eigenvalue-minimisations  : 18245
 total energy-change (2. order) :-0.2487743E-04  (-0.2550619E-04)
 number of electron     402.0000104 magnetization 
 augmentation part      402.0000104 magnetization 

 Free energy of the ion-electron system (eV)
  ---------------------------------------------------
  alpha Z        PSCENC =       669.50511577
  Ewald energy   TEWEN  =    140809.37880939
  -Hartree energ DENC   =   -178826.21450148
  -exchange      EXHF   =         0.00000000
  -V(xc)+E(xc)   XCENC  =      -339.46781993
  PAW double counting   =     39645.56652941   -38163.68722855
  entropy T*S    EENTRO =         0.00000000
  eigenvalues    EBANDS =     -1478.58314835
  atomic energy  EATOM  =     37574.87430029
  Solvation  Ediel_sol  =         0.00000000
  ---------------------------------------------------
  free energy    TOTEN  =      -108.62794345 eV

  energy without entropy =     -108.62794345  energy(sigma->0) =     -108.62794345


--------------------------------------------------------------------------------------------------------




--------------------------------------- Iteration      1(   9)  ---------------------------------------


    EDDIAG:  cpu time    5.2529: real time    5.2531
  RMM-DIIS:  cpu time   13.0542: real time   13.0542
    ORTHCH:  cpu time    0.9801: real time    0.9801
 BZINTS: Fermi energy:    0.479580;  402.000000 electrons
         Band energy:-0.147858E+04;  BLOECHL correction:   -0.038724
       DOS:  cpu time    0.0576: real time    0.0576
    --------------------------------------------
      LOOP:  cpu time   19.3448: real time   19.3450

 eigenvalue-minimisations  : 12855
 total energy-change (2. order) :-0.6114336E-05  (-0.6190945E-05)
 number of electron     402.0000104 magnetization 
 augmentation part      402.0000104 magnetization 

 Free energy of the ion-electron system (eV)
  ---------------------------------------------------
  alpha Z        PSCENC =       669.50511577
  Ewald energy   TEWEN  =    140809.37880939
  -Hartree energ DENC   =   -178826.21450148
  -exchange      EXHF   =         0.00000000
  -V(xc)+E(xc)   XCENC  =      -339.46781993
  PAW double counting   =     39645.56652941   -38163.68722855
  entropy T*S    EENTRO =         0.00000000
  eigenvalues    EBANDS =     -1478.58315447
  atomic energy  EATOM  =     37574.87430029
  Solvation  Ediel_sol  =         0.00000000
  ---------------------------------------------------
  free energy    TOTEN  =      -108.62794956 eV

  energy without entropy =     -108.62794956  energy(sigma->0) =     -108.62794956


--------------------------------------------------------------------------------------------------------




 average (electrostatic) potential at core
  the test charge radii are     1.1249  1.0452  0.5201  0.7215
  (the norm of the test charge is              1.0000)
       1 -78.4413       2 -78.3963       3 -78.3964       4 -78.3960       5 -78.3940
       6 -78.3963       7 -78.3992       8 -78.3993       9 -78.4262      10 -78.6403
      11 -78.6167      12 -78.6401      13 -78.6178      14 -78.6179      15 -78.6369
      16 -78.6410      17 -78.6398      18 -78.6394      19 -78.6054      20 -78.6201
      21 -78.6182      22 -78.6245      23 -78.6165      24 -78.6253      25 -78.6090
      26 -78.6092      27 -78.6254      28 -78.3820      29 -78.3872      30 -78.3941
      31 -78.3853      32 -78.3892      33 -78.3466      34 -78.3458      35 -78.3697
      36 -87.1650      37 -41.0594      38 -41.0495      39 -77.5504
 
 
 
 E-fermi :   0.4796     XC(G=0):  -5.3249     alpha+bet : -5.0033

 Fermi energy:         0.4795803140

 k-point     1 :       0.0000    0.0000    0.0000
  band No.  band energies     occupation 
      1     -22.1073      2.00000
      2      -9.8595      2.00000
      3      -6.6860      2.00000
      4      -6.5216      2.00000
      5      -5.7643      2.00000
      6      -5.4852      2.00000
      7      -5.3765      2.00000
      8      -5.3557      2.00000
      9      -5.3506      2.00000
     10      -5.3502      2.00000
     11      -5.3433      2.00000
     12      -5.3424      2.00000
     13      -5.3293      2.00000
     14      -5.3235      2.00000
     15      -5.3065      2.00000
     16      -5.3054      2.00000
     17      -5.2963      2.00000
     18      -5.2959      2.00000
     19      -5.2862      2.00000
     20      -5.1505      2.00000
     21      -5.1411      2.00000
     22      -5.1369      2.00000
     23      -5.1366      2.00000
     24      -5.1331      2.00000
     25      -5.1328      2.00000
     26      -5.0206      2.00000
     27      -4.9569      2.00000
     28      -4.9553      2.00000
     29      -4.9531      2.00000
     30      -4.9173      2.00000
     31      -4.9172      2.00000
     32      -4.9123      2.00000
     33      -4.9119      2.00000
     34      -4.8987      2.00000
     35      -4.8987      2.00000
     36      -4.8841      2.00000
     37      -4.8831      2.00000
     38      -4.8808      2.00000
     39      -4.7920      2.00000
     40      -4.7856      2.00000
     41      -4.7818      2.00000
     42      -4.6397      2.00000
     43      -4.6393      2.00000
     44      -4.6069      2.00000
     45      -4.5765      2.00000
     46      -4.5758      2.00000
     47      -4.5585      2.00000
     48      -4.5580      2.00000
     49      -4.5572      2.00000
     50      -4.5294      2.00000
     51      -4.5286      2.00000
     52      -4.4949      2.00000
     53      -4.4818      2.00000
     54      -4.4790      2.00000
     55      -4.4040      2.00000
     56      -4.3999      2.00000
     57      -4.3837      2.00000
     58      -4.3670      2.00000
     59      -4.1672      2.00000
     60      -4.1660      2.00000
     61      -4.1633      2.00000
     62      -4.1617      2.00000
     63      -4.1520      2.00000
     64      -4.1510      2.00000
     65      -4.1261      2.00000
     66      -4.1259      2.00000
     67      -4.1148      2.00000
     68      -4.0970      2.00000
     69      -4.0970      2.00000
     70      -4.0029      2.00000
     71      -4.0022      2.00000
     72      -3.9987      2.00000
     73      -3.9956      2.00000
     74      -3.9918      2.00000
     75      -3.9850      2.00000
     76      -3.9799      2.00000
     77      -3.9785      2.00000
     78      -3.9569      2.00000
     79      -3.9555      2.00000
     80      -3.9388      2.00000
     81      -3.9249      2.00000
     82      -3.9244      2.00000
     83      -3.9187      2.00000
     84      -3.9053      2.00000
     85      -3.8896      2.00000
     86      -3.8889      2.00000
     87      -3.8522      2.00000
     88      -3.8518      2.00000
     89      -3.7904      2.00000
     90      -3.7854      2.00000
     91      -3.7851      2.00000
     92      -3.7575      2.00000
     93      -3.7534      2.00000
     94      -3.7257      2.00000
     95      -3.7255      2.00000
     96      -3.7099      2.00000
     97      -3.7099      2.00000
     98      -3.6823      2.00000
     99      -3.6820      2.00000
    100      -3.6681      2.00000
    101      -3.6143      2.00000
    102      -3.5807      2.00000
    103      -3.4650      2.00000
    104      -3.4599      2.00000
    105      -3.4583      2.00000
    106      -3.4416      2.00000
    107      -3.4370      2.00000
    108      -3.4352      2.00000
    109      -3.3967      2.00000
    110      -3.3960      2.00000
    111      -3.3905      2.00000
    112      -3.3872      2.00000
    113      -3.3789      2.00000
    114      -3.3235      2.00000
    115      -3.3161      2.00000
    116      -3.2467      2.00000
    117      -3.2463      2.00000
    118      -3.2350      2.00000
    119      -3.1883      2.00000
    120      -3.1876      2.00000
    121      -3.1659      2.00000
    122      -3.1641      2.00000
    123      -3.1163      2.00000
    124      -3.1141      2.00000
[...]
  0.000   0.000   0.000   0.000   0.000   0.000   0.000   0.000   0.000   0.000   1.000   0.000   0.000   0.000   0.000   0.000
  0.000   0.000   0.000   0.000   0.000   0.000   0.000   0.000   0.000   0.000   0.000   0.000   0.000   0.000   0.000   0.000
  0.000   0.000   0.000   0.000   0.000   0.000   0.000   0.000   0.000   0.000   0.000   0.000   0.000   0.000   0.000   0.000
  0.000   0.000   0.000   0.000   0.000   0.000   0.000   0.000   0.000   0.000   0.000   0.000   0.000   0.000   0.000   0.000
  0.000   0.000   0.000   0.000   0.000   0.000   0.000   0.000   0.000   0.000   0.000   0.000   0.000   0.000   0.000   0.000
  0.000   0.000   0.000   0.000   0.000   0.000   0.000   0.000   0.000   0.000   0.000   0.000   0.000   0.000   0.000   0.000
  0.000   0.000   0.000   0.000   0.000   0.000   0.000   0.000   0.000   0.000   0.000   0.000   0.000   0.000   0.000   0.000
  0.000   0.000   0.000   0.000   0.000   0.000   0.000   0.000   0.000   0.000   0.000   0.000   0.000   0.000   0.000   0.000


------------------------ aborting loop because EDIFF is reached ----------------------------------------





 total charge

# of ion       s       p       d       tot
------------------------------------------
    1        0.416   0.203   9.178   9.797
    2        0.419   0.203   9.177   9.800
    3        0.419   0.203   9.177   9.800
    4        0.419   0.203   9.177   9.800
    5        0.416   0.205   9.177   9.798
    6        0.419   0.203   9.177   9.800
    7        0.419   0.203   9.178   9.800
    8        0.419   0.203   9.178   9.800
    9        0.414   0.203   9.179   9.797
   10        0.407   0.268   9.164   9.839
   11        0.409   0.267   9.168   9.844
   12        0.407   0.268   9.164   9.838
   13        0.408   0.268   9.168   9.844
   14        0.408   0.268   9.168   9.844
   15        0.402   0.270   9.166   9.837
   16        0.407   0.268   9.164   9.839
   17        0.402   0.270   9.166   9.837
   18        0.402   0.270   9.166   9.837
   19        0.406   0.266   9.166   9.838
   20        0.422   0.292   9.149   9.864
   21        0.422   0.292   9.150   9.864
   22        0.400   0.275   9.166   9.841
   23        0.421   0.293   9.150   9.864
   24        0.400   0.275   9.166   9.841
   25        0.404   0.266   9.166   9.837
   26        0.404   0.266   9.166   9.837
   27        0.401   0.274   9.166   9.842
   28        0.412   0.197   9.179   9.789
   29        0.424   0.212   9.171   9.807
   30        0.425   0.212   9.171   9.808
   31        0.425   0.211   9.172   9.808
   32        0.426   0.211   9.172   9.809
   33        0.418   0.204   9.178   9.801
   34        0.418   0.204   9.179   9.801
   35        0.408   0.199   9.180   9.787
   36        0.336   0.255   7.317   7.908
   37        0.605   0.118   0.000   0.723
   38        0.605   0.118   0.000   0.722
   39        1.569   3.596   0.000   5.165
--------------------------------------------------
tot         17.565  12.483 328.256 358.304
 
    CHARGE:  cpu time    1.2185: real time    1.2186
    FORLOC:  cpu time    0.0124: real time    0.0124
    FORNL :  cpu time    5.4404: real time    5.4405
    STRESS:  cpu time   16.3508: real time   16.3510
    FORCOR:  cpu time    0.0589: real time    0.0590
    FORHAR:  cpu time    0.0198: real time    0.0198
    OFIELD:  cpu time    0.0003: real time    0.0003

  FORCE on cell =-STRESS in cart. coord.  units (eV):
  Direction    XX          YY          ZZ          XY          YZ          ZX
  --------------------------------------------------------------------------------------
  Alpha Z   669.50512   669.50512   669.50512
  Ewald  163665.66227163600.23665************    -2.56345   -18.30725    -2.19968
  Hartree173800.89222173788.34871************    -0.49564    -1.69781    -0.39187
  E(xc)   -2111.08625 -2111.35819 -2116.27824    -0.00949    -0.04210    -0.00557
  Local  ************************348604.91958     2.32710    13.67632     1.98215
  n-local  -358.73894  -359.55456  -364.69371    -0.03629    -0.02349    -0.02407
  augment  3384.22045  3385.71187  3388.88897     0.04377     0.15314    -0.01654
  Kinetic  4979.42630  4997.73651  5023.93929     0.71470     6.18136     0.59994
  Fock        0.00000     0.00000     0.00000     0.00000     0.00000     0.00000
  -------------------------------------------------------------------------------------
  Total      -9.90138   -10.18804    -1.21679    -0.01930    -0.05983    -0.05565
  in kB      -9.49857    -9.77357    -1.16729    -0.01851    -0.05740    -0.05339
  external pressure =       -6.81 kB  Pullay stress =        0.00 kB


 VOLUME and BASIS-vectors are now :
 -----------------------------------------------------------------------------
  energy-cutoff  :      500.00
  volume of cell :     1670.12
      direct lattice vectors                 reciprocal lattice vectors
     8.791366577  0.000000000  0.000000000     0.113747958 -0.065672414  0.000000000
     4.395683289  7.613546790  0.000000000     0.000000000  0.131344829  0.000000000
     0.000000000  0.000000000 24.951963562     0.000000000  0.000000000  0.040077006

  length of vectors
     8.791366577  8.791366577 24.951963562     0.131344829  0.131344829  0.040077006


 FORCES acting on ions
    electron-ion (+dipol)            ewald-force                    non-local-force                 convergence-correction
 -----------------------------------------------------------------------------------------------
   0.251E-02 0.608E-02 0.274E+04   0.306E-02 -.209E-02 -.274E+04   -.216E-02 0.517E-02 -.226E+01   -.312E-02 -.540E-02 -.935E-01
   0.606E+00 0.681E+00 0.274E+04   -.638E+00 -.646E+00 -.274E+04   0.496E-01 0.181E-01 -.158E+01   -.133E-01 -.335E-01 -.111E+00
   -.609E+00 0.688E+00 0.274E+04   0.635E+00 -.651E+00 -.274E+04   -.462E-01 0.159E-01 -.158E+01   0.156E-01 -.337E-01 -.107E+00
   0.890E+00 0.174E+00 0.274E+04   -.876E+00 -.229E+00 -.274E+04   0.349E-01 0.287E-01 -.160E+01   -.333E-01 0.185E-01 -.128E+00
   -.251E-02 0.826E-02 0.274E+04   -.592E-02 -.518E-03 -.274E+04   -.442E-02 -.156E-01 -.157E+01   0.128E-01 0.367E-02 -.993E-01
   -.889E+00 0.163E+00 0.274E+04   0.881E+00 -.228E+00 -.274E+04   -.357E-01 0.297E-01 -.160E+01   0.272E-01 0.276E-01 -.124E+00
   0.286E+00 -.871E+00 0.274E+04   -.243E+00 0.875E+00 -.274E+04   -.128E-02 -.430E-01 -.164E+01   -.296E-01 0.271E-01 -.116E+00
   -.289E+00 -.857E+00 0.274E+04   0.240E+00 0.880E+00 -.274E+04   0.144E-02 -.477E-01 -.164E+01   0.354E-01 0.140E-01 -.118E+00
   0.720E-02 0.653E-02 0.274E+04   0.281E-02 0.250E-02 -.274E+04   0.334E-02 0.641E-02 -.197E+01   -.132E-01 -.143E-01 -.155E+00
   0.581E+01 0.335E+01 0.950E+03   -.542E+01 -.315E+01 -.950E+03   -.334E+00 -.194E+00 -.741E+00   -.272E-01 0.228E-02 0.220E+00
   0.207E-01 0.704E+01 0.961E+03   -.347E-01 -.716E+01 -.961E+03   -.174E-02 0.845E-01 -.391E+00   0.159E-01 0.114E-01 0.297E+00
   -.583E+01 0.338E+01 0.950E+03   0.545E+01 -.317E+01 -.950E+03   0.331E+00 -.192E+00 -.738E+00   0.181E-01 -.299E-02 0.220E+00
   0.609E+01 -.352E+01 0.961E+03   -.621E+01 0.357E+01 -.961E+03   0.864E-01 -.486E-01 -.449E+00   -.238E-04 0.126E-01 0.292E+00
   -.607E+01 -.353E+01 0.961E+03   0.617E+01 0.359E+01 -.961E+03   -.880E-01 -.471E-01 -.451E+00   0.183E-01 0.713E-02 0.286E+00
   -.329E-01 0.143E+01 0.951E+03   0.386E-01 -.141E+01 -.951E+03   -.162E-03 0.393E-02 -.662E+00   -.538E-02 -.365E-01 0.155E+00
   0.132E-01 -.669E+01 0.950E+03   -.607E-02 0.629E+01 -.950E+03   0.507E-03 0.364E+00 -.790E+00   -.741E-02 0.118E-01 0.219E+00
   0.124E+01 -.738E+00 0.951E+03   -.123E+01 0.742E+00 -.951E+03   -.885E-04 0.603E-02 -.686E+00   -.294E-01 -.106E-02 0.149E+00
   -.125E+01 -.710E+00 0.951E+03   0.124E+01 0.701E+00 -.951E+03   -.165E-02 0.646E-02 -.680E+00   0.367E-01 0.111E-01 0.160E+00
   -.246E+00 0.313E+01 -.876E+03   0.263E+00 -.318E+01 0.876E+03   -.186E-02 0.698E-01 0.545E+00   -.161E-01 -.244E-01 0.241E+00
   0.348E+02 0.201E+02 -.822E+03   -.341E+02 -.197E+02 0.822E+03   -.112E+01 -.631E+00 -.102E+01   0.390E+00 0.235E+00 0.736E+00
   -.345E+02 0.202E+02 -.821E+03   0.338E+02 -.198E+02 0.821E+03   0.111E+01 -.622E+00 -.101E+01   -.383E+00 0.230E+00 0.745E+00
   0.136E+02 -.794E+01 -.861E+03   -.140E+02 0.814E+01 0.860E+03   0.264E+00 -.120E+00 0.458E+00   0.150E+00 -.905E-01 0.272E+00
   0.243E+00 -.402E+02 -.822E+03   -.246E+00 0.394E+02 0.822E+03   0.190E-02 0.127E+01 -.101E+01   -.613E-03 -.481E+00 0.711E+00
   -.138E+02 -.815E+01 -.861E+03   0.142E+02 0.836E+01 0.860E+03   -.263E+00 -.115E+00 0.458E+00   -.133E+00 -.106E+00 0.276E+00
   -.270E+01 -.132E+01 -.877E+03   0.272E+01 0.137E+01 0.876E+03   -.183E-01 -.767E-01 0.609E+00   0.305E-02 0.287E-01 0.228E+00
   0.265E+01 -.158E+01 -.877E+03   -.265E+01 0.163E+01 0.876E+03   0.262E-01 -.813E-01 0.613E+00   -.326E-01 0.259E-01 0.228E+00
   0.526E-01 0.158E+02 -.861E+03   -.689E-01 -.162E+02 0.860E+03   -.508E-02 0.304E+00 0.419E+00   0.218E-01 0.182E+00 0.277E+00
   -.542E+00 0.654E+00 -.268E+04   0.555E+00 -.718E+00 0.268E+04   0.242E-03 0.409E-01 0.190E+01   -.130E-01 0.283E-01 0.432E+00
   0.388E+02 0.681E+02 -.266E+04   -.384E+02 -.677E+02 0.266E+04   -.527E+00 -.853E+00 0.152E+01   0.130E+00 0.321E+00 0.343E+00
   -.383E+02 0.703E+02 -.266E+04   0.380E+02 -.699E+02 0.266E+04   0.525E+00 -.859E+00 0.150E+01   -.117E+00 0.323E+00 0.341E+00
   0.784E+02 -.549E+00 -.266E+04   -.779E+02 0.641E+00 0.266E+04   -.105E+01 -.374E-01 0.156E+01   0.320E+00 -.571E-01 0.356E+00
   -.815E+02 -.748E+00 -.266E+04   0.810E+02 0.820E+00 0.265E+04   0.101E+01 -.228E-01 0.160E+01   -.342E+00 -.547E-01 0.360E+00
   0.395E+02 -.679E+02 -.266E+04   -.395E+02 0.676E+02 0.266E+04   -.259E+00 0.707E+00 0.210E+01   0.183E+00 -.252E+00 0.347E+00
   -.391E+02 -.698E+02 -.266E+04   0.392E+02 0.696E+02 0.266E+04   0.243E+00 0.657E+00 0.216E+01   -.183E+00 -.283E+00 0.354E+00
   -.442E+00 -.392E+00 -.268E+04   0.445E+00 0.398E+00 0.268E+04   0.759E-02 0.108E-01 0.200E+01   -.101E-01 -.148E-01 0.468E+00
   0.309E+01 0.235E+01 -.192E+04   -.314E+01 -.236E+01 0.192E+04   0.416E-01 0.568E-01 0.207E+01   0.285E-01 -.256E-01 -.111E+00
   0.698E+02 0.421E+02 -.306E+03   -.767E+02 -.463E+02 0.308E+03   0.680E+01 0.414E+01 -.193E+01   0.430E-01 0.247E-01 -.381E-01
   -.671E+02 0.469E+02 -.304E+03   0.737E+02 -.515E+02 0.306E+03   -.655E+01 0.461E+01 -.170E+01   -.415E-01 0.282E-01 -.370E-01
   -.137E+01 -.563E+02 -.174E+04   0.279E+01 0.994E+02 0.173E+04   -.142E+01 -.430E+02 0.910E+01   -.177E-02 -.722E-01 -.489E+00
 -----------------------------------------------------------------------------------------------
   0.122E+01 0.347E+02 -.797E+01   0.426E-13 0.412E-12 0.796E-11   -.120E+01 -.346E+02 0.899E+00   0.140E-01 -.148E-01 0.699E+01
 
 
 POSITION                                       TOTAL-FORCE (eV/Angst)
 -----------------------------------------------------------------------------------
      0.00000      0.00000      5.28219        -0.000512      0.002708      0.026591
      2.93046      0.00000      5.28219         0.003396      0.017994      0.036661
      5.86091      0.00000      5.28219        -0.005294      0.018284      0.036823
      1.46523      2.53785      5.28219         0.015210     -0.008672      0.039760
      4.39568      2.53785      5.28219        -0.000839     -0.005277      0.018312
      7.32614      2.53785      5.28219        -0.016823     -0.009160      0.039651
      2.93046      5.07570      5.28219         0.011051     -0.012873      0.038545
      5.86091      5.07570      5.28219        -0.012987     -0.012266      0.038190
      8.79137      5.07570      5.28219        -0.000649      0.000131      0.032699
      1.46523      0.84595      7.67490         0.024225      0.009719     -0.007558
      4.39568      0.84595      7.67490        -0.000681     -0.031907     -0.078509
      7.32614      0.84595      7.67490        -0.026119      0.010319     -0.007606
      2.93046      3.38380      7.67490        -0.028525      0.015574     -0.080135
      5.86091      3.38380      7.67490         0.027739      0.015737     -0.079607
      8.79137      3.38380      7.67490        -0.000623     -0.015989     -0.008888
      4.39568      5.92165      7.67490        -0.000571     -0.029918     -0.015397
      7.32614      5.92165      7.67490        -0.018102      0.008337     -0.007586
     10.25659      5.92165      7.67490         0.016348      0.007887     -0.007432
      8.79137      1.69398     10.06180        -0.001771     -0.004784     -0.024810
      2.94231      1.69874     10.03918         0.013859      0.007466     -0.064502
      5.84906      1.69874     10.03918        -0.014720      0.005746     -0.070007
     10.25255      4.23208     10.04993         0.014151     -0.007573     -0.004152
      4.39568      4.21606     10.03918        -0.002369     -0.008631     -0.050199
      7.33018      4.23208     10.04993        -0.015036     -0.007976     -0.002414
     11.72002      6.76656     10.06180         0.007725     -0.004788     -0.008066
      5.86271      6.76656     10.06180        -0.010369     -0.005316     -0.006508
      8.79137      6.76293     10.04993        -0.000281      0.014485     -0.017014
      0.00000      0.00000     12.42562        -0.000748      0.003783      0.017818
      2.96563      0.06260     12.41952        -0.058228     -0.105312     -0.054441
      5.82574      0.06260     12.41952         0.059315     -0.115231     -0.061751
      1.53702      2.53701     12.41952        -0.139571     -0.003443     -0.079390
      7.25434      2.53701     12.41952         0.160238     -0.006312     -0.097636
      2.96708      5.01394     12.41952        -0.100966      0.115344     -0.086309
      5.82429      5.01394     12.41952         0.098298      0.124361     -0.090041
      8.79137      5.07570     12.42127        -0.000851      0.000439      0.007615
      4.39568      2.53785     12.13550         0.012385      0.019333      0.804486
      3.63727      2.13404     14.50860        -0.022346     -0.018704     -0.001547
      5.19924      2.07880     14.48118         0.017089     -0.021254     -0.003872
      4.43349      2.65329     14.26950        -0.002048      0.037742     -0.121772
 -----------------------------------------------------------------------------------
    total drift:                                0.031663      0.041159     -0.079775


--------------------------------------------------------------------------------------------------------



  FREE ENERGIE OF THE ION-ELECTRON SYSTEM (eV)
  ---------------------------------------------------
  free  energy   TOTEN  =      -108.62794956 eV

  energy  without entropy=     -108.62794956  energy(sigma->0) =     -108.62794956
 


--------------------------------------------------------------------------------------------------------


    POTLOK:  cpu time    0.0472: real time    0.0472


--------------------------------------------------------------------------------------------------------


 stress matrix after NEB project (eV)
     -9.90138     -0.01930     -0.05565
     -0.01930    -10.18804     -0.05983
     -0.05565     -0.05983     -1.21679
  FORCES: max atom, RMS     0.127503    0.021404
  FORCE total and by dimension    0.133669    0.121772
  Stress total and by dimension   14.259319   10.188042
     LOOP+:  cpu time  261.7308: real time  261.7436
 -----------------------------------------------------------------------------
|                                                                             |
|           W    W    AA    RRRRR   N    N  II  N    N   GGGG   !!!           |
|           W    W   A  A   R    R  NN   N  II  NN   N  G    G  !!!           |
|           W    W  A    A  R    R  N N  N  II  N N  N  G       !!!           |
|           W WW W  AAAAAA  RRRRR   N  N N  II  N  N N  G  GGG   !            |
|           WW  WW  A    A  R   R   N   NN  II  N   NN  G    G                |
|           W    W  A    A  R    R  N    N  II  N    N   GGGG   !!!           |
|                                                                             |
|     Tetrahedron method does not include variations of the Fermi             |
|     occupations, so forces and stress will be inaccurate. We suggest        |
|     using a different smearing scheme ISMEAR = 1 or 2 for metals in         |
|     relaxations.                                                            |
|                                                                             |
 -----------------------------------------------------------------------------

    4ORBIT:  cpu time    0.0000: real time    0.0000



 total charge

# of ion       s       p       d       tot
------------------------------------------
    1        0.416   0.203   9.178   9.797
    2        0.419   0.203   9.177   9.800
    3        0.419   0.203   9.177   9.800
    4        0.419   0.203   9.177   9.800
    5        0.416   0.205   9.177   9.798
    6        0.419   0.203   9.177   9.800
    7        0.419   0.203   9.178   9.800
    8        0.419   0.203   9.178   9.800
    9        0.414   0.203   9.179   9.797
   10        0.407   0.268   9.164   9.839
   11        0.409   0.267   9.168   9.844
   12        0.407   0.268   9.164   9.838
   13        0.408   0.268   9.168   9.844
   14        0.408   0.268   9.168   9.844
   15        0.402   0.270   9.166   9.837
   16        0.407   0.268   9.164   9.839
   17        0.402   0.270   9.166   9.837
   18        0.402   0.270   9.166   9.837
   19        0.406   0.266   9.166   9.838
   20        0.422   0.292   9.149   9.864
   21        0.422   0.292   9.150   9.864
   22        0.400   0.275   9.166   9.841
   23        0.421   0.293   9.150   9.864
   24        0.400   0.275   9.166   9.841
   25        0.404   0.266   9.166   9.837
   26        0.404   0.266   9.166   9.837
   27        0.401   0.274   9.166   9.842
   28        0.412   0.197   9.179   9.789
   29        0.424   0.212   9.171   9.807
   30        0.425   0.212   9.171   9.808
   31        0.425   0.211   9.172   9.808
   32        0.426   0.211   9.172   9.809
   33        0.418   0.204   9.178   9.801
   34        0.418   0.204   9.179   9.801
   35        0.408   0.199   9.180   9.787
   36        0.336   0.255   7.317   7.908
   37        0.605   0.118   0.000   0.723
   38        0.605   0.118   0.000   0.722
   39        1.569   3.596   0.000   5.165
--------------------------------------------------
tot         17.565  12.483 328.256 358.304
 
 BZINTS: Fermi energy:    0.479580;  402.000000 electrons
         Band energy:-0.147858E+04;  BLOECHL correction:   -0.038724

 total amount of memory used by VASP MPI-rank0   282133. kBytes
=======================================================================

   base      :      30000. kBytes
   nonlr-proj:      14881. kBytes
   fftplans  :       4808. kBytes
   grid      :      20723. kBytes
   one-center:        606. kBytes
   wavefun   :     211115. kBytes
 
  
  
 General timing and accounting informations for this job:
 ========================================================
  
                  Total CPU time used (sec):      285.162
                            User time (sec):      275.008
                          System time (sec):       10.154
                         Elapsed time (sec):      285.742
  
                   Maximum memory used (kb):      583500.
                   Average memory used (kb):          N/A
  
                          Minor page faults:       120409
                          Major page faults:            0
                 Voluntary context switches:         6870
