PROCAR new format
# of k-points:   10         # of bands:  252         # of ions:   39

 k-point     1 :    0.00000000 0.00000000 0.00000000     weight = 0.01562500

band     1 # energy  -24.51382212 # occ.  2.00000000
 
ion      s      p      d    tot
    1  0.000  0.000  0.000  0.000
    2  0.000  0.000  0.000  0.000
    3  0.000  0.000  0.000  0.000
    4  0.000  0.000  0.000  0.000
    5  0.000  0.000  0.000  0.000
    6  0.000  0.000  0.000  0.000
    7  0.000  0.000  0.000  0.000
    8  0.000  0.000  0.000  0.000
    9  0.000  0.000  0.000  0.000
   10  0.000  0.000  0.000  0.000
   11  0.000  0.000  0.000  0.000
   12  0.000  0.000  0.000  0.000
   13  0.000  0.000  0.000  0.000
   14  0.000  0.000  0.000  0.000
   15  0.000  0.000  0.000  0.000
   16  0.000  0.000  0.000  0.000
   17  0.000  0.000  0.000  0.000
   18  0.000  0.000  0.000  0.000
   19  0.000  0.000  0.000  0.000
   20  0.000  0.000  0.000  0.000
   21  0.000  0.000  0.000  0.000
   22  0.000  0.000  0.000  0.000
   23  0.000  0.000  0.000  0.000
   24  0.000  0.000  0.000  0.000
   25  0.000  0.000  0.000  0.000
   26  0.000  0.000  0.000  0.000
   27  0.000  0.000  0.000  0.000
   28  0.000  0.000  0.000  0.000
   29  0.000  0.000  0.000  0.000
   30  0.000  0.000  0.000  0.000
   31  0.000  0.000  0.000  0.000
   32  0.000  0.000  0.000  0.000
   33  0.000  0.000  0.000  0.000
   34  0.000  0.000  0.000  0.000
   35  0.000  0.000  0.000  0.000
   36  0.000  0.000  0.000  0.000
   37  0.079  0.058  0.000  0.136
   38  0.724  0.008  0.000  0.732
   39  0.059  0.013  0.000  0.072
tot    0.862  0.078  0.000  0.940
 
band     2 # energy  -15.17201519 # occ.  2.00000000
 
ion      s      p      d    tot
    1  0.000  0.000  0.000  0.000
    2  0.000  0.000  0.000  0.000
    3  0.000  0.000  0.000  0.000
    4  0.000  0.000  0.000  0.000
    5  0.000  0.000  0.000  0.000
    6  0.000  0.000  0.000  0.000
    7  0.000  0.000  0.000  0.000
    8  0.000  0.000  0.000  0.000
    9  0.000  0.000  0.000  0.000
   10  0.000  0.000  0.000  0.000
   11  0.000  0.000  0.000  0.000
   12  0.000  0.000  0.000  0.000
   13  0.000  0.000  0.000  0.000
   14  0.000  0.000  0.000  0.000
   15  0.000  0.000  0.000  0.000
   16  0.000  0.000  0.000  0.000
   17  0.000  0.000  0.000  0.000
   18  0.000  0.000  0.000  0.000
   19  0.000  0.000  0.000  0.000
   20  0.000  0.000  0.000  0.000
   21  0.000  0.000  0.000  0.000
   22  0.000  0.000  0.000  0.000
   23  0.000  0.000  0.000  0.000
   24  0.000  0.000  0.000  0.000
   25  0.000  0.000  0.000  0.000
   26  0.000  0.000  0.000  0.000
   27  0.000  0.000  0.000  0.000
   28  0.000  0.000  0.000  0.000
   29  0.000  0.000  0.000  0.000
   30  0.000  0.000  0.000  0.000
   31  0.000  0.000  0.000  0.000
   32  0.000  0.000  0.000  0.000
   33  0.000  0.000  0.000  0.000
   34  0.000  0.000  0.000  0.000
   35  0.000  0.000  0.000  0.000
   36  0.002  0.002  0.002  0.007
   37  0.159  0.049  0.000  0.209
   38  0.019  0.521  0.000  0.540
   39  0.199  0.032  0.000  0.230
tot    0.379  0.604  0.002  0.985
 
band     3 # energy   -8.12764139 # occ.  2.00000000
 
ion      s      p      d    tot
    1  0.000  0.000  0.000  0.000
    2  0.000  0.000  0.000  0.000
    3  0.000  0.000  0.000  0.000
    4  0.000  0.000  0.000  0.000
    5  0.000  0.000  0.000  0.000
    6  0.000  0.000  0.000  0.000
    7  0.000  0.000  0.000  0.000
    8  0.000  0.000  0.000  0.000
    9  0.000  0.000  0.000  0.000
   10  0.000  0.000  0.000  0.000
   11  0.000  0.000  0.000  0.000
   12  0.000  0.000  0.000  0.000
   13  0.000  0.000  0.000  0.000
   14  0.000  0.000  0.000  0.000
   15  0.000  0.000  0.000  0.000
   16  0.000  0.000  0.000  0.000
   17  0.000  0.000  0.000  0.000
   18  0.000  0.000  0.000  0.000
   19  0.000  0.000  0.000  0.000
   20  0.002  0.001  0.002  0.004
   21  0.002  0.001  0.002  0.004
   22  0.000  0.000  0.000  0.000
   23  0.002  0.001  0.002  0.004
   24  0.000  0.000  0.000  0.000
   25  0.000  0.000  0.000  0.000
   26  0.000  0.000  0.000  0.000
   27  0.000  0.000  0.000  0.000
   28  0.000  0.000  0.000  0.000
   29  0.002  0.001  0.002  0.005
   30  0.002  0.001  0.002  0.005
   31  0.002  0.001  0.002  0.005
   32  0.002  0.001  0.002  0.005
   33  0.002  0.001  0.002  0.005
   34  0.002  0.001  0.002  0.005
   35  0.000  0.000  0.000  0.000
   36  0.139  0.069  0.147  0.355
   37  0.186  0.174  0.000  0.360
   38  0.013  0.052  0.000  0.064
   39  0.015  0.001  0.000  0.016
tot    0.375  0.301  0.166  0.842
 
band     4 # energy   -7.27965713 # occ.  2.00000000
 
ion      s      p      d    tot
    1  0.000  0.000  0.000  0.000
    2  0.000  0.000  0.000  0.000
    3  0.000  0.000  0.000  0.000
    4  0.000  0.000  0.000  0.000
    5  0.000  0.000  0.000  0.000
    6  0.000  0.000  0.000  0.000
    7  0.000  0.000  0.000  0.000
    8  0.000  0.000  0.000  0.000
    9  0.000  0.000  0.000  0.000
   10  0.000  0.000  0.000  0.000
   11  0.000  0.000  0.000  0.000
   12  0.000  0.000  0.000  0.000
   13  0.000  0.000  0.000  0.000
   14  0.000  0.000  0.000  0.000
   15  0.000  0.000  0.000  0.000
   16  0.000  0.000  0.000  0.000
   17  0.000  0.000  0.000  0.000
   18  0.000  0.000  0.000  0.000
   19  0.000  0.000  0.000  0.000
   20  0.000  0.000  0.000  0.000
   21  0.000  0.000  0.000  0.000
   22  0.000  0.000  0.000  0.000
   23  0.000  0.000  0.000  0.000
   24  0.000  0.000  0.000  0.000
   25  0.000  0.000  0.000  0.000
   26  0.000  0.000  0.000  0.000
   27  0.000  0.000  0.000  0.000
   28  0.000  0.000  0.000  0.000
   29  0.000  0.000  0.001  0.001
   30  0.000  0.000  0.000  0.000
   31  0.000  0.000  0.001  0.001
   32  0.000  0.000  0.001  0.001
   33  0.000  0.000  0.000  0.000
   34  0.000  0.000  0.001  0.001
   35  0.000  0.000  0.000  0.000
   36  0.000  0.002  0.011  0.013
   37  0.000  0.112  0.000  0.112
   38  0.000  0.541  0.000  0.541
   39  0.000  0.007  0.000  0.007
tot    0.002  0.664  0.014  0.680
 
band     5 # energy   -7.27942331 # occ.  2.00000000
 
ion      s      p      d    tot
    1  0.000  0.000  0.000  0.000
    2  0.000  0.000  0.000  0.000
    3  0.000  0.000  0.000  0.000
    4  0.000  0.000  0.000  0.000
    5  0.000  0.000  0.000  0.000
    6  0.000  0.000  0.000  0.000
    7  0.000  0.000  0.000  0.000
    8  0.000  0.000  0.000  0.000
    9  0.000  0.000  0.000  0.000
   10  0.000  0.000  0.000  0.000
   11  0.000  0.000  0.000  0.000
   12  0.000  0.000  0.000  0.000
   13  0.000  0.000  0.000  0.000
   14  0.000  0.000  0.000  0.000
   15  0.000  0.000  0.000  0.000
   16  0.000  0.000  0.000  0.000
   17  0.000  0.000  0.000  0.000
   18  0.000  0.000  0.000  0.000
   19  0.000  0.000  0.000  0.000
   20  0.000  0.000  0.000  0.000
   21  0.000  0.000  0.000  0.000
   22  0.000  0.000  0.000  0.000
   23  0.000  0.000  0.000  0.000
   24  0.000  0.000  0.000  0.000
   25  0.000  0.000  0.000  0.000
   26  0.000  0.000  0.000  0.000
   27  0.000  0.000  0.000  0.000
   28  0.000  0.000  0.000  0.000
   29  0.000  0.000  0.000  0.001
   30  0.001  0.000  0.001  0.002
   31  0.000  0.000  0.000  0.001
   32  0.000  0.000  0.000  0.001
   33  0.001  0.000  0.001  0.002
   34  0.000  0.000  0.000  0.001
   35  0.000  0.000  0.000  0.000
   36  0.000  0.002  0.011  0.013
   37  0.000  0.112  0.000  0.112
   38  0.000  0.541  0.000  0.541
   39  0.000  0.007  0.000  0.007
tot    0.002  0.664  0.014  0.680
 
band     6 # energy   -6.57144546 # occ.  2.00000000
 
ion      s      p      d    tot
    1  0.006  0.001  0.000  0.007
    2  0.006  0.001  0.000  0.007
    3  0.006  0.001  0.000  0.007
    4  0.006  0.001  0.000  0.007
    5  0.006  0.001  0.000  0.007
    6  0.006  0.001  0.000  0.007
    7  0.006  0.001  0.000  0.007
    8  0.006  0.001  0.000  0.007
    9  0.007  0.001  0.000  0.007
   10  0.024  0.000  0.000  0.024
   11  0.025  0.000  0.000  0.025
   12  0.024  0.000  0.000  0.024
   13  0.025  0.000  0.000  0.025
   14  0.025  0.000  0.000  0.025
   15  0.025  0.000  0.000  0.025
   16  0.024  0.000  0.000  0.024
   17  0.025  0.000  0.000  0.025
   18  0.025  0.000  0.000  0.025
   19  0.022  0.000  0.000  0.022
   20  0.022  0.000  0.000  0.022
   21  0.022  0.000  0.000  0.022
   22  0.023  0.000  0.000  0.023
   23  0.022  0.000  0.000  0.022
   24  0.023  0.000  0.000  0.023
   25  0.022  0.000  0.000  0.022
   26  0.022  0.000  0.000  0.022
   27  0.023  0.000  0.000  0.023
   28  0.005  0.001  0.000  0.005
   29  0.004  0.001  0.000  0.005
   30  0.004  0.001  0.000  0.005
   31  0.004  0.001  0.000  0.005
   32  0.004  0.001  0.000  0.005
   33  0.004  0.001  0.000  0.005
   34  0.004  0.001  0.000  0.005
   35  0.005  0.001  0.000  0.005
   36  0.000  0.005  0.005  0.010
   37  0.005  0.003  0.000  0.008
   38  0.000  0.001  0.000  0.001
   39  0.000  0.000  0.000  0.000
tot    0.515  0.022  0.014  0.552
 
band     7 # energy   -5.70727269 # occ.  2.00000000
 
ion      s      p      d    tot
    1  0.008  0.000  0.000  0.008
    2  0.007  0.000  0.000  0.008
    3  0.007  0.000  0.000  0.008
    4  0.007  0.000  0.000  0.008
    5  0.007  0.000  0.000  0.007
    6  0.007  0.000  0.000  0.008
    7  0.007  0.000  0.000  0.008
    8  0.007  0.000  0.000  0.008
    9  0.007  0.000  0.000  0.007
   10  0.011  0.001  0.015  0.026
   11  0.010  0.001  0.017  0.027
   12  0.011  0.001  0.015  0.026
   13  0.010  0.001  0.017  0.027
   14  0.010  0.001  0.017  0.027
   15  0.009  0.001  0.016  0.026
   16  0.011  0.001  0.015  0.026
   17  0.009  0.001  0.016  0.026
   18  0.009  0.001  0.016  0.026
   19  0.013  0.001  0.020  0.033
   20  0.013  0.001  0.022  0.035
   21  0.013  0.001  0.022  0.035
   22  0.014  0.001  0.019  0.035
   23  0.013  0.001  0.022  0.035
   24  0.014  0.001  0.019  0.035
   25  0.013  0.001  0.020  0.033
   26  0.013  0.001  0.020  0.033
   27  0.014  0.001  0.019  0.035
   28  0.006  0.000  0.000  0.006
   29  0.005  0.001  0.001  0.006
   30  0.005  0.001  0.001  0.006
   31  0.005  0.001  0.001  0.006
   32  0.005  0.001  0.001  0.006
   33  0.005  0.001  0.001  0.006
   34  0.005  0.001  0.001  0.006
   35  0.006  0.000  0.000  0.006
   36  0.000  0.003  0.002  0.005
   37  0.002  0.001  0.000  0.003
   38  0.000  0.000  0.000  0.000
   39  0.000  0.000  0.000  0.000
tot    0.312  0.027  0.336  0.675
 
band     8 # energy   -5.42975495 # occ.  2.00000000
 
ion      s      p      d    tot
    1  0.019  0.000  0.027  0.046
    2  0.017  0.000  0.027  0.044
    3  0.017  0.000  0.027  0.044
    4  0.017  0.000  0.027  0.044
    5  0.016  0.000  0.029  0.045
    6  0.017  0.000  0.027  0.044
    7  0.017  0.000  0.027  0.044
    8  0.017  0.000  0.027  0.044
    9  0.016  0.000  0.027  0.043
   10  0.000  0.001  0.021  0.022
   11  0.001  0.001  0.022  0.023
   12  0.000  0.001  0.021  0.022
   13  0.001  0.001  0.022  0.023
   14  0.001  0.001  0.022  0.023
   15  0.001  0.001  0.021  0.022
   16  0.000  0.001  0.021  0.022
   17  0.001  0.001  0.021  0.022
   18  0.001  0.001  0.021  0.022
   19  0.000  0.000  0.005  0.005
   20  0.000  0.000  0.006  0.006
   21  0.000  0.000  0.006  0.006
   22  0.000  0.000  0.010  0.010
   23  0.000  0.000  0.006  0.006
   24  0.000  0.000  0.010  0.010
   25  0.000  0.000  0.005  0.005
   26  0.000  0.000  0.005  0.005
   27  0.000  0.000  0.010  0.010
   28  0.006  0.000  0.005  0.010
   29  0.005  0.000  0.006  0.011
   30  0.005  0.000  0.006  0.011
   31  0.005  0.000  0.006  0.011
   32  0.004  0.000  0.006  0.011
   33  0.005  0.000  0.006  0.011
   34  0.004  0.000  0.006  0.011
   35  0.007  0.000  0.006  0.013
   36  0.000  0.000  0.005  0.005
   37  0.001  0.001  0.000  0.001
   38  0.000  0.000  0.000  0.000
   39  0.000  0.000  0.000  0.000
tot    0.201  0.008  0.549  0.758
 
band     9 # energy   -5.32632023 # occ.  2.00000000
 
ion      s      p      d    tot
    1  0.001  0.000  0.004  0.005
    2  0.000  0.000  0.004  0.005
    3  0.000  0.000  0.004  0.005
    4  0.000  0.000  0.004  0.005
    5  0.000  0.000  0.000  0.000
    6  0.000  0.000  0.004  0.005
    7  0.000  0.000  0.004  0.005
    8  0.000  0.000  0.004  0.005
    9  0.003  0.001  0.003  0.006
   10  0.001  0.000  0.048  0.049
   11  0.006  0.001  0.014  0.021
   12  0.001  0.000  0.048  0.049
   13  0.006  0.001  0.014  0.021
   14  0.006  0.001  0.014  0.021
   15  0.011  0.001  0.037  0.049
   16  0.001  0.000  0.048  0.049
   17  0.011  0.001  0.037  0.049
   18  0.011  0.001  0.037  0.049
   19  0.000  0.000  0.035  0.036
   20  0.011  0.000  0.052  0.063
   21  0.011  0.000  0.052  0.063
   22  0.009  0.001  0.011  0.021
   23  0.011  0.000  0.052  0.063
   24  0.009  0.001  0.011  0.021
   25  0.000  0.000  0.035  0.036
   26  0.000  0.000  0.035  0.036
   27  0.009  0.001  0.011  0.021
   28  0.001  0.000  0.001  0.001
   29  0.000  0.000  0.006  0.007
   30  0.000  0.000  0.006  0.007
   31  0.000  0.000  0.006  0.007
   32  0.000  0.000  0.006  0.007
   33  0.000  0.000  0.006  0.007
   34  0.000  0.000  0.006  0.007
   35  0.001  0.000  0.001  0.002
   36  0.001  0.003  0.000  0.004
   37  0.001  0.000  0.000  0.001
   38  0.000  0.000  0.000  0.000
   39  0.000  0.000  0.000  0.000
tot    0.120  0.019  0.665  0.804
 
band    10 # energy   -5.31976601 # occ.  2.00000000
 
ion      s      p      d    tot
    1  0.000  0.000  0.002  0.002
    2  0.000  0.000  0.003  0.003
    3  0.002  0.001  0.005  0.008
    4  0.000  0.000  0.003  0.004
    5  0.000  0.000  0.011  0.011
    6  0.002  0.001  0.004  0.006
    7  0.002  0.000  0.005  0.007
    8  0.001  0.000  0.003  0.005
    9  0.000  0.000  0.003  0.004
   10  0.003  0.001  0.013  0.017
   11  0.011  0.001  0.040  0.052
   12  0.001  0.000  0.043  0.044
   13  0.003  0.001  0.056  0.060
   14  0.024  0.001  0.011  0.036
   15  0.004  0.001  0.017  0.023
   16  0.002  0.000  0.033  0.035
   17  0.001  0.001  0.011  0.013
   18  0.010  0.000  0.033  0.043
   19  0.000  0.001  0.030  0.030
   20  0.019  0.000  0.032  0.051
   21  0.002  0.001  0.024  0.028
   22  0.003  0.000  0.083  0.086
   23  0.008  0.001  0.025  0.034
   24  0.022  0.001  0.006  0.029
   25  0.000  0.000  0.023  0.023
   26  0.000  0.001  0.032  0.033
   27  0.010  0.000  0.055  0.066
   28  0.000  0.000  0.001  0.001
   29  0.002  0.001  0.006  0.009
   30  0.000  0.000  0.003  0.004
   31  0.002  0.001  0.006  0.009
   32  0.001  0.000  0.002  0.003
   33  0.001  0.000  0.005  0.005
   34  0.001  0.000  0.003  0.005
   35  0.000  0.000  0.009  0.009
   36  0.000  0.000  0.001  0.001
   37  0.000  0.000  0.000  0.000
   38  0.000  0.000  0.000  0.000
   39  0.000  0.000  0.000  0.000
tot    0.138  0.018  0.642  0.798
 
band    11 # energy   -5.31974005 # occ.  2.00000000
 
ion      s      p      d    tot
    1  0.000  0.000  0.002  0.002
    2  0.002  0.001  0.005  0.008
    3  0.000  0.000  0.003  0.003
    4  0.002  0.001  0.005  0.007
    5  0.000  0.000  0.011  0.011
    6  0.000  0.000  0.004  0.004
    7  0.001  0.000  0.003  0.004
    8  0.001  0.000  0.004  0.006
    9  0.000  0.000  0.003  0.004
   10  0.000  0.000  0.047  0.047
   11  0.015  0.001  0.031  0.047
   12  0.003  0.000  0.016  0.020
   13  0.023  0.001  0.015  0.039
   14  0.001  0.000  0.061  0.062
   15  0.006  0.001  0.023  0.030
   16  0.002  0.000  0.027  0.029
   17  0.009  0.000  0.029  0.039
   18  0.000  0.001  0.009  0.011
   19  0.000  0.001  0.027  0.028
   20  0.001  0.002  0.024  0.027
   21  0.017  0.001  0.029  0.046
   22  0.021  0.001  0.013  0.035
   23  0.011  0.001  0.028  0.040
   24  0.001  0.000  0.090  0.091
   25  0.000  0.001  0.032  0.033
   26  0.000  0.000  0.025  0.026
   27  0.014  0.001  0.040  0.054
   28  0.000  0.000  0.001  0.001
   29  0.000  0.000  0.003  0.003
   30  0.002  0.001  0.005  0.008
   31  0.000  0.000  0.002  0.003
   32  0.002  0.001  0.006  0.008
   33  0.002  0.001  0.004  0.006
   34  0.001  0.000  0.005  0.007
   35  0.000  0.000  0.009  0.009
   36  0.000  0.000  0.001  0.001
   37  0.000  0.000  0.000  0.000
   38  0.000  0.000  0.000  0.000
   39  0.000  0.000  0.000  0.000
tot    0.138  0.018  0.642  0.798
 
band    12 # energy   -5.31876333 # occ.  2.00000000
 
ion      s      p      d    tot
    1  0.000  0.000  0.001  0.002
    2  0.000  0.000  0.005  0.006
    3  0.000  0.000  0.005  0.005
    4  0.000  0.000  0.005  0.006
    5  0.006  0.001  0.002  0.009
    6  0.000  0.000  0.006  0.006
    7  0.000  0.000  0.005  0.005
    8  0.000  0.000  0.006  0.006
    9  0.001  0.000  0.003  0.004
   10  0.009  0.001  0.004  0.014
   11  0.007  0.000  0.036  0.044
   12  0.008  0.001  0.005  0.014
   13  0.007  0.000  0.036  0.043
   14  0.009  0.000  0.035  0.044
   15  0.000  0.000  0.034  0.034
   16  0.008  0.001  0.005  0.014
   17  0.000  0.000  0.035  0.035
   18  0.000  0.000  0.032  0.032
   19  0.017  0.001  0.016  0.034
   20  0.002  0.001  0.022  0.025
   21  0.003  0.001  0.025  0.029
   22  0.004  0.000  0.076  0.080
   23  0.003  0.001  0.024  0.028
   24  0.005  0.000  0.075  0.080
   25  0.017  0.001  0.018  0.035
   26  0.017  0.001  0.016  0.033
   27  0.004  0.000  0.076  0.080
   28  0.004  0.001  0.005  0.010
   29  0.000  0.000  0.005  0.005
   30  0.000  0.000  0.005  0.005
   31  0.000  0.000  0.005  0.005
   32  0.000  0.000  0.005  0.005
   33  0.000  0.000  0.005  0.005
   34  0.000  0.000  0.005  0.005
   35  0.003  0.001  0.008  0.012
   36  0.000  0.000  0.000  0.000
   37  0.000  0.000  0.000  0.000
   38  0.000  0.000  0.000  0.000
   39  0.000  0.000  0.000  0.000
tot    0.134  0.017  0.649  0.800
 
band    13 # energy   -5.31488020 # occ.  2.00000000
 
ion      s      p      d    tot
    1  0.000  0.000  0.006  0.006
    2  0.000  0.000  0.003  0.004
    3  0.001  0.000  0.005  0.007
    4  0.001  0.000  0.003  0.004
    5  0.000  0.000  0.001  0.001
    6  0.001  0.000  0.005  0.006
    7  0.000  0.000  0.002  0.003
    8  0.000  0.000  0.003  0.003
    9  0.000  0.000  0.006  0.007
   10  0.007  0.001  0.022  0.029
   11  0.000  0.001  0.042  0.042
   12  0.017  0.000  0.028  0.045
   13  0.000  0.000  0.029  0.029
   14  0.000  0.001  0.038  0.038
   15  0.002  0.000  0.071  0.073
   16  0.002  0.001  0.018  0.022
   17  0.018  0.001  0.008  0.027
   18  0.007  0.000  0.050  0.058
   19  0.003  0.001  0.033  0.037
   20  0.004  0.000  0.055  0.059
   21  0.010  0.001  0.011  0.022
   22  0.003  0.000  0.036  0.038
   23  0.001  0.000  0.075  0.077
   24  0.001  0.001  0.028  0.030
   25  0.009  0.001  0.029  0.038
   26  0.022  0.001  0.019  0.042
   27  0.000  0.001  0.025  0.026
   28  0.000  0.000  0.006  0.006
   29  0.001  0.000  0.004  0.006
   30  0.000  0.000  0.002  0.003
   31  0.001  0.000  0.003  0.004
   32  0.000  0.000  0.002  0.002
   33  0.001  0.000  0.004  0.005
   34  0.001  0.000  0.005  0.006
   35  0.000  0.000  0.002  0.002
   36  0.000  0.000  0.001  0.001
   37  0.000  0.000  0.000  0.000
   38  0.000  0.000  0.000  0.000
   39  0.000  0.000  0.000  0.000
tot    0.113  0.016  0.680  0.809
 
band    14 # energy   -5.31487035 # occ.  2.00000000
 
ion      s      p      d    tot
    1  0.000  0.000  0.006  0.006
    2  0.001  0.000  0.004  0.005
    3  0.000  0.000  0.002  0.002
    4  0.001  0.000  0.004  0.005
    5  0.000  0.000  0.001  0.001
    6  0.000  0.000  0.002  0.002
    7  0.001  0.000  0.005  0.006
    8  0.001  0.000  0.004  0.006
    9  0.000  0.000  0.006  0.007
   10  0.010  0.001  0.024  0.035
   11  0.000  0.000  0.031  0.031
   12  0.000  0.001  0.017  0.019
   13  0.000  0.001  0.043  0.044
   14  0.000  0.000  0.034  0.035
   15  0.016  0.001  0.015  0.032
   16  0.015  0.001  0.027  0.043
   17  0.000  0.000  0.078  0.079
   18  0.011  0.000  0.036  0.047
   19  0.019  0.001  0.021  0.041
   20  0.006  0.000  0.040  0.046
   21  0.000  0.000  0.083  0.083
   22  0.000  0.001  0.023  0.025
   23  0.009  0.001  0.019  0.028
   24  0.002  0.001  0.031  0.033
   25  0.013  0.001  0.025  0.039
   26  0.001  0.001  0.035  0.036
   27  0.002  0.000  0.034  0.037
   28  0.000  0.000  0.006  0.006
   29  0.000  0.000  0.003  0.003
   30  0.001  0.000  0.004  0.006
   31  0.001  0.000  0.004  0.005
   32  0.001  0.000  0.005  0.006
   33  0.000  0.000  0.003  0.003
   34  0.000  0.000  0.002  0.002
   35  0.000  0.000  0.002  0.002
   36  0.000  0.000  0.001  0.001
   37  0.000  0.000  0.000  0.000
   38  0.000  0.000  0.000  0.000
   39  0.000  0.000  0.000  0.000
tot    0.113  0.016  0.680  0.809
 
band    15 # energy   -5.29815382 # occ.  2.00000000
 
ion      s      p      d    tot
    1  0.000  0.001  0.017  0.019
    2  0.001  0.000  0.009  0.010
    3  0.001  0.000  0.009  0.010
    4  0.001  0.000  0.009  0.010
    5  0.000  0.000  0.002  0.002
    6  0.001  0.000  0.009  0.010
    7  0.001  0.000  0.009  0.010
    8  0.001  0.000  0.009  0.010
    9  0.009  0.000  0.004  0.013
   10  0.009  0.000  0.030  0.039
   11  0.000  0.000  0.064  0.064
   12  0.009  0.000  0.030  0.039
   13  0.000  0.000  0.064  0.064
   14  0.000  0.000  0.064  0.064
   15  0.002  0.000  0.019  0.021
   16  0.009  0.000  0.030  0.039
   17  0.002  0.000  0.019  0.021
   18  0.002  0.000  0.019  0.021
   19  0.001  0.000  0.007  0.008
   20  0.002  0.000  0.028  0.030
   21  0.002  0.000  0.028  0.030
   22  0.000  0.000  0.042  0.042
   23  0.002  0.000  0.028  0.030
   24  0.000  0.000  0.042  0.043
   25  0.001  0.000  0.007  0.008
   26  0.001  0.000  0.007  0.008
   27  0.000  0.000  0.042  0.042
   28  0.007  0.000  0.000  0.008
   29  0.002  0.000  0.014  0.015
   30  0.002  0.000  0.014  0.015
   31  0.002  0.000  0.014  0.015
   32  0.002  0.000  0.014  0.015
   33  0.002  0.000  0.014  0.015
   34  0.002  0.000  0.014  0.015
   35  0.004  0.000  0.015  0.019
   36  0.001  0.001  0.000  0.002
   37  0.000  0.000  0.000  0.000
   38  0.000  0.000  0.000  0.000
   39  0.000  0.000  0.000  0.000
tot    0.079  0.008  0.743  0.831
 
band    16 # energy   -5.27779358 # occ.  2.00000000
 
ion      s      p      d    tot
    1  0.000  0.000  0.018  0.018
    2  0.002  0.000  0.005  0.008
    3  0.000  0.000  0.009  0.010
    4  0.002  0.000  0.006  0.008
    5  0.000  0.000  0.004  0.004
    6  0.001  0.000  0.007  0.008
    7  0.000  0.000  0.009  0.010
    8  0.001  0.000  0.006  0.008
    9  0.000  0.000  0.007  0.008
   10  0.000  0.000  0.051  0.051
   11  0.000  0.000  0.030  0.030
   12  0.005  0.000  0.038  0.043
   13  0.000  0.000  0.033  0.033
   14  0.000  0.000  0.011  0.012
   15  0.004  0.000  0.031  0.036
   16  0.004  0.000  0.040  0.044
   17  0.005  0.000  0.023  0.029
   18  0.000  0.000  0.086  0.086
   19  0.005  0.000  0.036  0.041
   20  0.000  0.000  0.066  0.066
   21  0.003  0.000  0.022  0.025
   22  0.000  0.000  0.035  0.035
   23  0.003  0.000  0.027  0.030
   24  0.000  0.000  0.008  0.008
   25  0.000  0.000  0.065  0.066
   26  0.005  0.000  0.032  0.038
   27  0.000  0.000  0.032  0.032
   28  0.000  0.000  0.013  0.013
   29  0.000  0.000  0.008  0.008
   30  0.002  0.000  0.005  0.007
   31  0.000  0.000  0.008  0.008
   32  0.002  0.000  0.004  0.006
   33  0.002  0.000  0.006  0.007
   34  0.001  0.000  0.005  0.006
   35  0.000  0.000  0.006  0.006
   36  0.000  0.000  0.001  0.001
   37  0.000  0.000  0.000  0.000
   38  0.000  0.000  0.000  0.000
   39  0.000  0.000  0.000  0.000
tot    0.047  0.007  0.794  0.848
 
band    17 # energy   -5.27773407 # occ.  2.00000000
 
ion      s      p      d    tot
    1  0.000  0.000  0.018  0.018
    2  0.000  0.000  0.009  0.009
    3  0.002  0.000  0.005  0.007
    4  0.000  0.000  0.009  0.009
    5  0.000  0.000  0.004  0.004
    6  0.002  0.000  0.007  0.009
    7  0.002  0.000  0.005  0.007
    8  0.001  0.000  0.008  0.009
    9  0.000  0.000  0.007  0.008
   10  0.006  0.000  0.035  0.041
   11  0.000  0.000  0.019  0.019
   12  0.001  0.000  0.048  0.049
   13  0.000  0.000  0.017  0.017
   14  0.000  0.000  0.038  0.038
   15  0.002  0.000  0.062  0.064
   16  0.002  0.000  0.046  0.048
   17  0.001  0.000  0.070  0.071
   18  0.006  0.000  0.008  0.014
   19  0.002  0.000  0.053  0.055
   20  0.004  0.000  0.011  0.015
   21  0.001  0.000  0.055  0.056
   22  0.000  0.000  0.015  0.015
   23  0.001  0.000  0.050  0.051
   24  0.000  0.000  0.042  0.042
   25  0.007  0.000  0.024  0.031
   26  0.001  0.000  0.057  0.059
   27  0.000  0.000  0.018  0.018
   28  0.000  0.000  0.013  0.013
   29  0.002  0.000  0.004  0.006
   30  0.000  0.000  0.007  0.007
   31  0.002  0.000  0.004  0.006
   32  0.001  0.000  0.008  0.008
   33  0.000  0.000  0.006  0.007
   34  0.001  0.000  0.007  0.008
   35  0.000  0.000  0.006  0.006
   36  0.000  0.000  0.001  0.001
   37  0.000  0.000  0.000  0.000
   38  0.000  0.000  0.000  0.000
   39  0.000  0.000  0.000  0.000
tot    0.047  0.007  0.794  0.848
 
band    18 # energy   -5.27087773 # occ.  2.00000000
 
ion      s      p      d    tot
    1  0.003  0.000  0.004  0.007
    2  0.000  0.000  0.010  0.010
    3  0.000  0.000  0.010  0.010
    4  0.000  0.000  0.010  0.010
    5  0.004  0.001  0.000  0.005
    6  0.000  0.000  0.010  0.010
    7  0.000  0.000  0.010  0.010
    8  0.000  0.000  0.010  0.010
    9  0.000  0.000  0.009  0.010
   10  0.000  0.000  0.051  0.051
   11  0.003  0.000  0.011  0.014
   12  0.000  0.000  0.051  0.051
   13  0.003  0.000  0.011  0.014
   14  0.003  0.000  0.011  0.014
   15  0.002  0.000  0.045  0.047
   16  0.000  0.000  0.051  0.051
   17  0.002  0.000  0.045  0.047
   18  0.002  0.000  0.045  0.047
   19  0.000  0.000  0.062  0.062
   20  0.004  0.000  0.032  0.036
   21  0.004  0.000  0.032  0.037
   22  0.003  0.000  0.017  0.020
   23  0.004  0.000  0.032  0.036
   24  0.003  0.000  0.017  0.021
   25  0.000  0.000  0.062  0.062
   26  0.000  0.000  0.062  0.062
   27  0.003  0.000  0.017  0.020
   28  0.001  0.000  0.007  0.007
   29  0.000  0.000  0.009  0.009
   30  0.000  0.000  0.009  0.009
   31  0.000  0.000  0.009  0.009
   32  0.000  0.000  0.009  0.009
   33  0.000  0.000  0.009  0.009
   34  0.000  0.000  0.009  0.009
   35  0.005  0.001  0.000  0.006
   36  0.000  0.002  0.000  0.003
   37  0.000  0.000  0.000  0.001
   38  0.000  0.000  0.000  0.000
   39  0.000  0.000  0.000  0.000
tot    0.052  0.008  0.787  0.847
 
band    19 # energy   -5.26479321 # occ.  2.00000000
 
ion      s      p      d    tot
    1  0.000  0.000  0.006  0.007
    2  0.004  0.001  0.006  0.010
    3  0.000  0.000  0.011  0.011
    4  0.004  0.001  0.006  0.010
    5  0.000  0.000  0.015  0.015
    6  0.001  0.001  0.009  0.011
    7  0.001  0.000  0.010  0.011
    8  0.002  0.001  0.009  0.011
    9  0.000  0.000  0.015  0.015
   10  0.009  0.000  0.011  0.020
   11  0.004  0.000  0.053  0.056
   12  0.002  0.000  0.061  0.062
   13  0.002  0.000  0.059  0.061
   14  0.011  0.000  0.020  0.031
   15  0.000  0.000  0.025  0.025
   16  0.003  0.000  0.053  0.056
   17  0.000  0.000  0.020  0.021
   18  0.000  0.000  0.049  0.049
   19  0.001  0.000  0.035  0.036
   20  0.000  0.000  0.040  0.041
   21  0.000  0.000  0.024  0.024
   22  0.002  0.000  0.054  0.056
   23  0.000  0.000  0.026  0.027
   24  0.008  0.000  0.013  0.021
   25  0.004  0.000  0.015  0.019
   26  0.001  0.000  0.039  0.040
   27  0.003  0.000  0.047  0.050
   28  0.000  0.000  0.003  0.003
   29  0.000  0.000  0.007  0.007
   30  0.001  0.000  0.002  0.003
   31  0.000  0.000  0.006  0.006
   32  0.001  0.001  0.005  0.007
   33  0.001  0.000  0.002  0.003
   34  0.001  0.000  0.006  0.008
   35  0.000  0.000  0.006  0.006
   36  0.000  0.000  0.001  0.001
   37  0.000  0.000  0.000  0.000
   38  0.000  0.000  0.000  0.000
   39  0.000  0.000  0.000  0.000
tot    0.066  0.008  0.766  0.840
 
band    20 # energy   -5.26476233 # occ.  2.00000000
 
ion      s      p      d    tot
    1  0.000  0.000  0.006  0.007
    2  0.000  0.000  0.011  0.011
    3  0.003  0.001  0.006  0.010
    4  0.000  0.000  0.011  0.011
    5  0.000  0.000  0.015  0.015
    6  0.003  0.000  0.007  0.010
    7  0.003  0.001  0.007  0.010
    8  0.002  0.000  0.008  0.011
    9  0.000  0.000  0.015  0.015
   10  0.000  0.000  0.071  0.071
   11  0.008  0.000  0.035  0.043
   12  0.007  0.000  0.022  0.030
   13  0.009  0.000  0.028  0.038
   14  0.000  0.000  0.068  0.068
   15  0.000  0.000  0.038  0.038
   16  0.006  0.000  0.030  0.037
   17  0.000  0.000  0.042  0.043
   18  0.000  0.000  0.014  0.014
   19  0.003  0.000  0.024  0.027
   20  0.000  0.000  0.020  0.020
   21  0.000  0.000  0.036  0.037
   22  0.007  0.000  0.022  0.029
   23  0.000  0.000  0.034  0.034
   24  0.000  0.000  0.063  0.063
   25  0.000  0.000  0.045  0.045
   26  0.003  0.000  0.020  0.023
   27  0.006  0.000  0.029  0.035
   28  0.000  0.000  0.003  0.003
   29  0.002  0.000  0.002  0.005
   30  0.000  0.000  0.008  0.008
   31  0.002  0.000  0.003  0.005
   32  0.000  0.000  0.004  0.004
   33  0.001  0.000  0.007  0.008
   34  0.001  0.000  0.003  0.004
   35  0.000  0.000  0.006  0.006
   36  0.000  0.000  0.001  0.001
   37  0.000  0.000  0.000  0.000
   38  0.000  0.000  0.000  0.000
   39  0.000  0.000  0.000  0.000