PROCAR new format
# of k-points:   10         # of bands:  252         # of ions:   37

 k-point     1 :    0.00000000 0.00000000 0.00000000     weight = 0.01562500

band     1 # energy  -17.24934270 # occ.  2.00000000
 
ion      s      p      d    tot
    1  0.000  0.000  0.000  0.000
    2  0.000  0.000  0.000  0.000
    3  0.000  0.000  0.000  0.000
    4  0.000  0.000  0.000  0.000
    5  0.000  0.000  0.000  0.000
    6  0.000  0.000  0.000  0.000
    7  0.000  0.000  0.000  0.000
    8  0.000  0.000  0.000  0.000
    9  0.000  0.000  0.000  0.000
   10  0.000  0.000  0.000  0.000
   11  0.000  0.000  0.000  0.000
   12  0.000  0.000  0.000  0.000
   13  0.000  0.000  0.000  0.000
   14  0.000  0.000  0.000  0.000
   15  0.000  0.000  0.000  0.000
   16  0.000  0.000  0.000  0.000
   17  0.000  0.000  0.000  0.000
   18  0.000  0.000  0.000  0.000
   19  0.000  0.000  0.000  0.000
   20  0.000  0.000  0.000  0.000
   21  0.000  0.000  0.000  0.000
   22  0.000  0.000  0.000  0.000
   23  0.000  0.000  0.000  0.000
   24  0.000  0.000  0.000  0.000
   25  0.000  0.000  0.000  0.000
   26  0.000  0.000  0.000  0.000
   27  0.000  0.000  0.000  0.000
   28  0.000  0.000  0.000  0.000
   29  0.000  0.000  0.000  0.000
   30  0.000  0.000  0.000  0.000
   31  0.000  0.000  0.000  0.000
   32  0.000  0.000  0.000  0.000
   33  0.000  0.000  0.000  0.000
   34  0.000  0.000  0.000  0.000
   35  0.000  0.000  0.000  0.000
   36  0.039  0.050  0.057  0.146
   37  0.771  0.013  0.000  0.784
tot    0.810  0.063  0.057  0.931
 
band     2 # energy   -8.19776598 # occ.  2.00000000
 
ion      s      p      d    tot
    1  0.006  0.001  0.000  0.007
    2  0.006  0.001  0.000  0.007
    3  0.006  0.001  0.000  0.007
    4  0.006  0.001  0.000  0.007
    5  0.006  0.001  0.000  0.007
    6  0.006  0.001  0.000  0.007
    7  0.006  0.001  0.000  0.007
    8  0.006  0.001  0.000  0.007
    9  0.006  0.001  0.000  0.007
   10  0.026  0.000  0.000  0.027
   11  0.027  0.000  0.000  0.027
   12  0.026  0.000  0.000  0.027
   13  0.027  0.000  0.000  0.027
   14  0.027  0.000  0.000  0.027
   15  0.027  0.000  0.000  0.027
   16  0.026  0.000  0.000  0.027
   17  0.027  0.000  0.000  0.027
   18  0.027  0.000  0.000  0.027
   19  0.024  0.000  0.000  0.024
   20  0.026  0.000  0.000  0.027
   21  0.026  0.000  0.000  0.027
   22  0.025  0.000  0.000  0.025
   23  0.026  0.000  0.000  0.027
   24  0.025  0.000  0.000  0.025
   25  0.024  0.000  0.000  0.024
   26  0.024  0.000  0.000  0.024
   27  0.025  0.000  0.000  0.025
   28  0.005  0.000  0.000  0.005
   29  0.005  0.000  0.000  0.005
   30  0.005  0.000  0.000  0.005
   31  0.005  0.000  0.000  0.005
   32  0.005  0.000  0.000  0.005
   33  0.005  0.000  0.000  0.005
   34  0.005  0.000  0.000  0.005
   35  0.005  0.000  0.000  0.005
   36  0.003  0.001  0.000  0.004
   37  0.000  0.000  0.000  0.000
tot    0.565  0.012  0.003  0.581
 
band     3 # energy   -7.00033528 # occ.  2.00000000
 
ion      s      p      d    tot
    1  0.017  0.000  0.001  0.019
    2  0.017  0.000  0.001  0.019
    3  0.017  0.000  0.001  0.019
    4  0.017  0.000  0.001  0.019
    5  0.017  0.000  0.001  0.018
    6  0.017  0.000  0.001  0.019
    7  0.017  0.000  0.001  0.019
    8  0.017  0.000  0.001  0.019
    9  0.017  0.000  0.001  0.019
   10  0.011  0.002  0.003  0.015
   11  0.010  0.002  0.003  0.014
   12  0.011  0.002  0.003  0.015
   13  0.010  0.002  0.003  0.014
   14  0.010  0.002  0.003  0.014
   15  0.010  0.002  0.003  0.014
   16  0.011  0.002  0.003  0.015
   17  0.010  0.002  0.003  0.014
   18  0.010  0.002  0.003  0.014
   19  0.014  0.001  0.004  0.019
   20  0.016  0.001  0.004  0.021
   21  0.016  0.001  0.004  0.021
   22  0.015  0.001  0.004  0.020
   23  0.016  0.001  0.004  0.021
   24  0.015  0.001  0.004  0.020
   25  0.014  0.001  0.004  0.019
   26  0.014  0.001  0.004  0.019
   27  0.015  0.001  0.004  0.020
   28  0.013  0.001  0.000  0.014
   29  0.013  0.001  0.000  0.014
   30  0.013  0.001  0.000  0.014
   31  0.013  0.001  0.000  0.014
   32  0.013  0.001  0.000  0.014
   33  0.013  0.001  0.000  0.014
   34  0.013  0.001  0.000  0.014
   35  0.013  0.001  0.000  0.014
   36  0.007  0.001  0.000  0.008
   37  0.001  0.000  0.000  0.001
tot    0.492  0.034  0.073  0.599
 
band     4 # energy   -6.07153182 # occ.  2.00000000
 
ion      s      p      d    tot
    1  0.000  0.001  0.006  0.007
    2  0.002  0.001  0.006  0.008
    3  0.002  0.001  0.006  0.008
    4  0.002  0.001  0.006  0.008
    5  0.000  0.000  0.001  0.002
    6  0.002  0.001  0.006  0.008
    7  0.002  0.001  0.006  0.008
    8  0.002  0.001  0.006  0.008
    9  0.023  0.001  0.000  0.024
   10  0.009  0.000  0.024  0.033
   11  0.013  0.003  0.009  0.025
   12  0.008  0.000  0.024  0.033
   13  0.013  0.003  0.009  0.025
   14  0.013  0.003  0.009  0.025
   15  0.019  0.002  0.013  0.034
   16  0.008  0.000  0.024  0.033
   17  0.019  0.002  0.013  0.034
   18  0.019  0.002  0.013  0.034
   19  0.001  0.001  0.023  0.024
   20  0.026  0.002  0.017  0.045
   21  0.026  0.002  0.017  0.045
   22  0.016  0.003  0.004  0.023
   23  0.026  0.002  0.017  0.045
   24  0.016  0.003  0.004  0.023
   25  0.001  0.001  0.023  0.024
   26  0.001  0.001  0.023  0.024
   27  0.016  0.003  0.004  0.023
   28  0.003  0.000  0.000  0.004
   29  0.001  0.000  0.005  0.006
   30  0.001  0.000  0.005  0.006
   31  0.001  0.000  0.005  0.006
   32  0.001  0.000  0.005  0.006
   33  0.001  0.000  0.005  0.006
   34  0.001  0.000  0.005  0.006
   35  0.009  0.001  0.000  0.010
   36  0.007  0.002  0.003  0.011
   37  0.000  0.002  0.000  0.002
tot    0.309  0.042  0.346  0.697
 
band     5 # energy   -6.05442090 # occ.  2.00000000
 
ion      s      p      d    tot
    1  0.029  0.000  0.015  0.045
    2  0.019  0.000  0.019  0.038
    3  0.018  0.000  0.019  0.038
    4  0.019  0.000  0.019  0.038
    5  0.017  0.000  0.021  0.037
    6  0.019  0.000  0.019  0.038
    7  0.018  0.000  0.019  0.038
    8  0.019  0.000  0.019  0.038
    9  0.012  0.000  0.020  0.032
   10  0.002  0.000  0.029  0.031
   11  0.008  0.001  0.024  0.033
   12  0.002  0.000  0.029  0.031
   13  0.008  0.001  0.024  0.033
   14  0.008  0.001  0.024  0.033
   15  0.018  0.001  0.020  0.039
   16  0.002  0.000  0.029  0.031
   17  0.018  0.001  0.020  0.039
   18  0.018  0.001  0.020  0.039
   19  0.002  0.000  0.004  0.006
   20  0.002  0.000  0.006  0.009
   21  0.003  0.000  0.006  0.009
   22  0.001  0.001  0.005  0.008
   23  0.003  0.000  0.006  0.009
   24  0.001  0.001  0.005  0.008
   25  0.002  0.000  0.004  0.006
   26  0.002  0.000  0.004  0.006
   27  0.001  0.001  0.005  0.008
   28  0.001  0.000  0.000  0.001
   29  0.001  0.000  0.000  0.001
   30  0.001  0.000  0.000  0.001
   31  0.001  0.000  0.000  0.001
   32  0.001  0.000  0.000  0.001
   33  0.001  0.000  0.000  0.001
   34  0.001  0.000  0.000  0.001
   35  0.000  0.000  0.000  0.000
   36  0.001  0.000  0.000  0.002
   37  0.000  0.000  0.000  0.001
tot    0.273  0.013  0.441  0.726
 
band     6 # energy   -6.04359835 # occ.  2.00000000
 
ion      s      p      d    tot
    1  0.000  0.000  0.005  0.005
    2  0.007  0.001  0.004  0.011
    3  0.004  0.001  0.003  0.008
    4  0.006  0.001  0.004  0.011
    5  0.000  0.001  0.009  0.010
    6  0.000  0.000  0.003  0.004
    7  0.004  0.001  0.003  0.008
    8  0.000  0.000  0.003  0.004
    9  0.000  0.001  0.002  0.003
   10  0.000  0.001  0.025  0.026
   11  0.045  0.002  0.014  0.061
   12  0.010  0.001  0.012  0.022
   13  0.044  0.002  0.015  0.060
   14  0.000  0.002  0.038  0.040
   15  0.013  0.001  0.012  0.026
   16  0.010  0.001  0.011  0.022
   17  0.012  0.001  0.012  0.026
   18  0.000  0.004  0.003  0.008
   19  0.000  0.001  0.011  0.012
   20  0.000  0.004  0.021  0.024
   21  0.035  0.001  0.014  0.051
   22  0.029  0.002  0.012  0.042
   23  0.036  0.001  0.014  0.052
   24  0.000  0.000  0.039  0.039
   25  0.000  0.003  0.006  0.009
   26  0.000  0.001  0.010  0.012
   27  0.029  0.002  0.012  0.043
   28  0.000  0.000  0.001  0.001
   29  0.001  0.000  0.002  0.003
   30  0.007  0.001  0.003  0.011
   31  0.001  0.000  0.002  0.003
   32  0.003  0.001  0.003  0.007
   33  0.007  0.001  0.003  0.011
   34  0.003  0.001  0.003  0.008
   35  0.000  0.000  0.007  0.007
   36  0.000  0.002  0.001  0.003
   37  0.000  0.000  0.000  0.000
tot    0.308  0.043  0.343  0.694
 
band     7 # energy   -6.04353870 # occ.  2.00000000
 
ion      s      p      d    tot
    1  0.000  0.000  0.005  0.005
    2  0.001  0.000  0.003  0.004
    3  0.003  0.001  0.004  0.007
    4  0.001  0.000  0.003  0.004
    5  0.000  0.001  0.009  0.010
    6  0.007  0.001  0.003  0.011
    7  0.003  0.001  0.004  0.008
    8  0.007  0.001  0.003  0.011
    9  0.000  0.001  0.002  0.003
   10  0.013  0.002  0.007  0.021
   11  0.015  0.002  0.030  0.046
   12  0.003  0.001  0.021  0.025
   13  0.016  0.002  0.030  0.047
   14  0.060  0.002  0.006  0.067
   15  0.004  0.003  0.006  0.014
   16  0.003  0.001  0.021  0.025
   17  0.004  0.003  0.006  0.014
   18  0.017  0.000  0.016  0.032
   19  0.000  0.002  0.007  0.010
   20  0.048  0.001  0.012  0.061
   21  0.012  0.003  0.018  0.034
   22  0.010  0.001  0.030  0.040
   23  0.011  0.003  0.019  0.033
   24  0.038  0.002  0.003  0.043
   25  0.000  0.000  0.012  0.013
   26  0.000  0.002  0.007  0.010
   27  0.009  0.001  0.030  0.040
   28  0.000  0.000  0.001  0.001
   29  0.007  0.001  0.003  0.011
   30  0.000  0.000  0.003  0.004
   31  0.007  0.001  0.003  0.011
   32  0.004  0.001  0.002  0.007
   33  0.000  0.000  0.003  0.004
   34  0.004  0.001  0.002  0.007
   35  0.000  0.000  0.007  0.007
   36  0.000  0.002  0.001  0.003
   37  0.000  0.000  0.000  0.000
tot    0.308  0.043  0.343  0.694
 
band     8 # energy   -6.02862494 # occ.  2.00000000
 
ion      s      p      d    tot
    1  0.005  0.001  0.002  0.009
    2  0.001  0.001  0.006  0.007
    3  0.001  0.001  0.006  0.007
    4  0.001  0.001  0.006  0.007
    5  0.019  0.002  0.000  0.021
    6  0.001  0.001  0.006  0.007
    7  0.001  0.001  0.006  0.007
    8  0.001  0.001  0.006  0.007
    9  0.000  0.000  0.003  0.003
   10  0.028  0.003  0.001  0.033
   11  0.017  0.001  0.024  0.042
   12  0.028  0.003  0.001  0.032
   13  0.017  0.001  0.024  0.042
   14  0.017  0.001  0.024  0.042
   15  0.000  0.001  0.023  0.024
   16  0.028  0.003  0.001  0.032
   17  0.000  0.001  0.023  0.024
   18  0.000  0.001  0.023  0.024
   19  0.025  0.002  0.006  0.034
   20  0.005  0.002  0.016  0.023
   21  0.005  0.002  0.016  0.023
   22  0.010  0.000  0.026  0.035
   23  0.005  0.002  0.016  0.023
   24  0.010  0.000  0.026  0.036
   25  0.025  0.002  0.006  0.034
   26  0.025  0.002  0.006  0.033
   27  0.010  0.000  0.026  0.035
   28  0.010  0.001  0.001  0.012
   29  0.000  0.000  0.004  0.004
   30  0.000  0.000  0.004  0.004
   31  0.000  0.000  0.004  0.004
   32  0.000  0.000  0.004  0.004
   33  0.000  0.000  0.004  0.004
   34  0.000  0.000  0.004  0.004
   35  0.005  0.001  0.002  0.008
   36  0.000  0.000  0.000  0.001
   37  0.000  0.000  0.000  0.000
tot    0.300  0.040  0.356  0.696
 
band     9 # energy   -6.00956392 # occ.  2.00000000
 
ion      s      p      d    tot
    1  0.000  0.001  0.007  0.008
    2  0.008  0.001  0.004  0.013
    3  0.006  0.001  0.003  0.011
    4  0.006  0.001  0.004  0.011
    5  0.000  0.000  0.002  0.002
    6  0.001  0.000  0.004  0.005
    7  0.003  0.001  0.003  0.007
    8  0.000  0.000  0.003  0.004
    9  0.000  0.001  0.010  0.011
   10  0.048  0.001  0.013  0.061
   11  0.000  0.003  0.009  0.012
   12  0.021  0.002  0.015  0.038
   13  0.000  0.002  0.011  0.013
   14  0.000  0.001  0.013  0.014
   15  0.005  0.000  0.040  0.046
   16  0.006  0.003  0.017  0.026
   17  0.019  0.001  0.028  0.048
   18  0.045  0.002  0.004  0.051
   19  0.006  0.001  0.031  0.038
   20  0.011  0.001  0.007  0.020
   21  0.005  0.001  0.017  0.023
   22  0.007  0.003  0.010  0.019
   23  0.001  0.001  0.023  0.025
   24  0.016  0.000  0.015  0.031
   25  0.050  0.002  0.006  0.058
   26  0.022  0.002  0.022  0.045
   27  0.002  0.004  0.007  0.012
   28  0.000  0.001  0.007  0.007
   29  0.001  0.000  0.002  0.003
   30  0.003  0.001  0.002  0.006
   31  0.000  0.000  0.002  0.002
   32  0.001  0.000  0.003  0.005
   33  0.004  0.001  0.002  0.007
   34  0.003  0.001  0.003  0.006
   35  0.000  0.000  0.001  0.002
   36  0.000  0.000  0.001  0.001
   37  0.000  0.000  0.000  0.000
tot    0.301  0.042  0.351  0.694
 
band    10 # energy   -6.00949626 # occ.  2.00000000
 
ion      s      p      d    tot
    1  0.000  0.001  0.007  0.008
    2  0.000  0.000  0.003  0.004
    3  0.002  0.001  0.004  0.006
    4  0.002  0.001  0.003  0.006
    5  0.000  0.000  0.002  0.002
    6  0.007  0.001  0.004  0.012
    7  0.005  0.001  0.004  0.010
    8  0.008  0.001  0.004  0.013
    9  0.000  0.001  0.010  0.011
   10  0.002  0.004  0.017  0.022
   11  0.000  0.001  0.013  0.014
   12  0.029  0.002  0.015  0.045
   13  0.000  0.002  0.011  0.013
   14  0.000  0.003  0.009  0.012
   15  0.041  0.002  0.008  0.051
   16  0.044  0.001  0.014  0.058
   17  0.027  0.001  0.021  0.049
   18  0.001  0.000  0.044  0.045
   19  0.046  0.002  0.008  0.056
   20  0.000  0.001  0.025  0.026
   21  0.007  0.001  0.014  0.022
   22  0.009  0.002  0.011  0.022
   23  0.011  0.001  0.009  0.021
   24  0.001  0.004  0.006  0.011
   25  0.002  0.001  0.034  0.037
   26  0.030  0.002  0.017  0.049
   27  0.014  0.001  0.014  0.029
   28  0.000  0.001  0.007  0.007
   29  0.004  0.001  0.003  0.007
   30  0.001  0.000  0.003  0.004
   31  0.004  0.001  0.002  0.008
   32  0.003  0.001  0.002  0.005
   33  0.000  0.000  0.002  0.003
   34  0.001  0.000  0.002  0.004
   35  0.000  0.000  0.001  0.002
   36  0.000  0.000  0.001  0.001
   37  0.000  0.000  0.000  0.000
tot    0.301  0.042  0.351  0.694
 
band    11 # energy   -5.86821049 # occ.  2.00000000
 
ion      s      p      d    tot
    1  0.001  0.000  0.000  0.001
    2  0.001  0.000  0.000  0.001
    3  0.001  0.000  0.000  0.001
    4  0.001  0.000  0.000  0.001
    5  0.002  0.000  0.000  0.002
    6  0.001  0.000  0.000  0.001
    7  0.001  0.000  0.000  0.001
    8  0.001  0.000  0.000  0.001
    9  0.000  0.000  0.001  0.001
   10  0.000  0.000  0.002  0.003
   11  0.001  0.000  0.002  0.003
   12  0.000  0.000  0.002  0.003
   13  0.001  0.000  0.002  0.003
   14  0.001  0.000  0.002  0.003
   15  0.001  0.000  0.003  0.004
   16  0.000  0.000  0.002  0.003
   17  0.001  0.000  0.003  0.004
   18  0.001  0.000  0.003  0.004
   19  0.004  0.001  0.020  0.025
   20  0.003  0.000  0.026  0.029
   21  0.003  0.000  0.026  0.029
   22  0.008  0.001  0.027  0.035
   23  0.003  0.000  0.026  0.029
   24  0.008  0.001  0.027  0.035
   25  0.004  0.001  0.020  0.025
   26  0.004  0.001  0.020  0.025
   27  0.008  0.001  0.027  0.036
   28  0.030  0.000  0.022  0.053
   29  0.026  0.000  0.023  0.048
   30  0.026  0.000  0.023  0.048
   31  0.026  0.000  0.023  0.048
   32  0.026  0.000  0.023  0.048
   33  0.026  0.000  0.023  0.048
   34  0.026  0.000  0.023  0.048
   35  0.031  0.000  0.023  0.054
   36  0.006  0.000  0.008  0.014
   37  0.001  0.000  0.000  0.001
tot    0.277  0.012  0.429  0.718
 
band    12 # energy   -5.56595406 # occ.  2.00000000
 
ion      s      p      d    tot
    1  0.016  0.002  0.002  0.020
    2  0.000  0.001  0.008  0.009
    3  0.000  0.001  0.008  0.009
    4  0.000  0.001  0.008  0.009
    5  0.000  0.000  0.002  0.002
    6  0.000  0.001  0.008  0.009
    7  0.000  0.001  0.008  0.009
    8  0.000  0.001  0.008  0.009
    9  0.016  0.001  0.000  0.018
   10  0.011  0.002  0.012  0.024
   11  0.003  0.000  0.042  0.046
   12  0.011  0.002  0.012  0.024
   13  0.003  0.000  0.042  0.046
   14  0.003  0.000  0.042  0.046
   15  0.003  0.001  0.027  0.030
   16  0.011  0.002  0.012  0.024
   17  0.003  0.001  0.027  0.030
   18  0.003  0.001  0.027  0.030
   19  0.006  0.001  0.012  0.018
   20  0.001  0.000  0.047  0.048
   21  0.001  0.000  0.047  0.048
   22  0.010  0.001  0.021  0.032
   23  0.001  0.000  0.047  0.048
   24  0.010  0.001  0.021  0.032
   25  0.006  0.001  0.012  0.019
   26  0.006  0.001  0.012  0.018
   27  0.010  0.001  0.021  0.032
   28  0.010  0.001  0.001  0.012
   29  0.000  0.001  0.005  0.006
   30  0.000  0.001  0.005  0.006
   31  0.000  0.001  0.005  0.006
   32  0.000  0.001  0.005  0.006
   33  0.000  0.001  0.005  0.006
   34  0.000  0.001  0.005  0.006
   35  0.008  0.001  0.002  0.011
   36  0.001  0.000  0.001  0.002
   37  0.000  0.000  0.000  0.000
tot    0.150  0.028  0.575  0.753
 
band    13 # energy   -5.55396464 # occ.  2.00000000
 
ion      s      p      d    tot
    1  0.000  0.001  0.004  0.005
    2  0.004  0.001  0.004  0.009
    3  0.006  0.001  0.004  0.011
    4  0.008  0.001  0.005  0.014
    5  0.000  0.001  0.011  0.013
    6  0.009  0.001  0.005  0.015
    7  0.001  0.001  0.005  0.007
    8  0.000  0.000  0.005  0.006
    9  0.000  0.000  0.009  0.009
   10  0.007  0.002  0.022  0.030
   11  0.000  0.000  0.050  0.051
   12  0.008  0.002  0.015  0.025
   13  0.018  0.001  0.018  0.037
   14  0.014  0.001  0.024  0.039
   15  0.000  0.001  0.010  0.012
   16  0.000  0.001  0.051  0.051
   17  0.002  0.000  0.021  0.023
   18  0.001  0.001  0.019  0.021
   19  0.000  0.001  0.015  0.016
   20  0.015  0.001  0.026  0.042
   21  0.018  0.001  0.017  0.037
   22  0.002  0.001  0.018  0.021
   23  0.000  0.000  0.066  0.066
   24  0.002  0.001  0.020  0.023
   25  0.006  0.000  0.018  0.025
   26  0.008  0.000  0.020  0.028
   27  0.000  0.001  0.033  0.034
   28  0.000  0.001  0.008  0.009
   29  0.003  0.001  0.004  0.008
   30  0.005  0.001  0.004  0.010
   31  0.010  0.001  0.004  0.015
   32  0.010  0.001  0.004  0.015
   33  0.002  0.001  0.004  0.007
   34  0.001  0.000  0.004  0.005
   35  0.000  0.000  0.003  0.004
   36  0.000  0.002  0.002  0.004
   37  0.000  0.000  0.000  0.000
tot    0.162  0.032  0.552  0.746
 
band    14 # energy   -5.55395693 # occ.  2.00000000
 
ion      s      p      d    tot
    1  0.000  0.001  0.004  0.005
    2  0.005  0.001  0.005  0.011
    3  0.004  0.001  0.005  0.010
    4  0.001  0.000  0.004  0.006
    5  0.000  0.001  0.011  0.013
    6  0.000  0.000  0.005  0.005
    7  0.009  0.001  0.004  0.014
    8  0.010  0.001  0.004  0.015
    9  0.000  0.000  0.009  0.009
   10  0.003  0.001  0.037  0.041
   11  0.021  0.001  0.012  0.034
   12  0.002  0.001  0.043  0.046
   13  0.004  0.000  0.044  0.048
   14  0.007  0.000  0.038  0.045
   15  0.002  0.000  0.023  0.025
   16  0.010  0.002  0.008  0.020
   17  0.000  0.001  0.013  0.014
   18  0.001  0.001  0.015  0.016
   19  0.009  0.000  0.021  0.030
   20  0.008  0.001  0.047  0.055
   21  0.004  0.000  0.056  0.060
   22  0.001  0.001  0.030  0.031
   23  0.022  0.002  0.007  0.031
   24  0.001  0.001  0.027  0.029
   25  0.003  0.001  0.017  0.020
   26  0.002  0.001  0.016  0.018
   27  0.003  0.001  0.015  0.018
   28  0.000  0.001  0.008  0.009
   29  0.007  0.001  0.004  0.012
   30  0.006  0.001  0.004  0.010
   31  0.000  0.001  0.004  0.005
   32  0.000  0.000  0.004  0.005
   33  0.008  0.001  0.004  0.013
   34  0.009  0.001  0.004  0.014
   35  0.000  0.000  0.003  0.004
   36  0.000  0.002  0.002  0.004
   37  0.000  0.000  0.000  0.000
tot    0.162  0.032  0.552  0.746
 
band    15 # energy   -5.54618826 # occ.  2.00000000
 
ion      s      p      d    tot
    1  0.005  0.000  0.001  0.006
    2  0.000  0.001  0.008  0.009
    3  0.000  0.001  0.008  0.009
    4  0.000  0.001  0.008  0.009
    5  0.018  0.002  0.001  0.021
    6  0.000  0.001  0.008  0.009
    7  0.000  0.001  0.008  0.009
    8  0.000  0.001  0.008  0.009
    9  0.005  0.001  0.002  0.008
   10  0.000  0.000  0.042  0.042
   11  0.007  0.001  0.011  0.019
   12  0.000  0.000  0.042  0.043
   13  0.007  0.001  0.011  0.019
   14  0.007  0.001  0.011  0.019
   15  0.009  0.001  0.024  0.034
   16  0.000  0.000  0.042  0.043
   17  0.009  0.001  0.024  0.034
   18  0.009  0.001  0.024  0.034
   19  0.009  0.000  0.039  0.048
   20  0.009  0.002  0.011  0.022
   21  0.009  0.002  0.011  0.022
   22  0.001  0.000  0.034  0.035
   23  0.009  0.002  0.011  0.022
   24  0.001  0.000  0.034  0.035
   25  0.009  0.000  0.039  0.048
   26  0.009  0.000  0.039  0.048
   27  0.001  0.000  0.034  0.035
   28  0.000  0.000  0.005  0.006
   29  0.000  0.000  0.005  0.006
   30  0.000  0.000  0.005  0.006
   31  0.000  0.000  0.005  0.006
   32  0.000  0.000  0.005  0.006
   33  0.000  0.000  0.005  0.006
   34  0.000  0.000  0.005  0.006
   35  0.003  0.000  0.000  0.004
   36  0.014  0.002  0.002  0.018
   37  0.001  0.004  0.000  0.005
tot    0.152  0.034  0.571  0.757
 
band    16 # energy   -5.51782321 # occ.  2.00000000
 
ion      s      p      d    tot
    1  0.000  0.001  0.014  0.015
    2  0.010  0.001  0.004  0.016
    3  0.002  0.000  0.005  0.008
    4  0.010  0.001  0.005  0.016
    5  0.000  0.000  0.005  0.005
    6  0.004  0.001  0.005  0.010
    7  0.001  0.000  0.005  0.007
    8  0.003  0.001  0.005  0.009
    9  0.000  0.001  0.008  0.009
   10  0.000  0.001  0.027  0.027
   11  0.001  0.001  0.020  0.022
   12  0.006  0.000  0.023  0.029
   13  0.001  0.001  0.020  0.022
   14  0.000  0.001  0.022  0.023
   15  0.013  0.002  0.018  0.033
   16  0.007  0.000  0.022  0.030
   17  0.011  0.002  0.024  0.037
   18  0.000  0.000  0.065  0.066
   19  0.013  0.001  0.017  0.031
   20  0.000  0.002  0.017  0.019
   21  0.000  0.001  0.021  0.022
   22  0.016  0.001  0.022  0.039
   23  0.000  0.000  0.022  0.022
   24  0.000  0.000  0.036  0.036
   25  0.000  0.000  0.066  0.066
   26  0.011  0.001  0.024  0.036
   27  0.019  0.001  0.020  0.040
   28  0.000  0.001  0.004  0.005
   29  0.005  0.001  0.004  0.010
   30  0.000  0.000  0.004  0.005
   31  0.006  0.001  0.004  0.011
   32  0.004  0.001  0.002  0.007
   33  0.000  0.000  0.004  0.005
   34  0.003  0.001  0.002  0.006
   35  0.000  0.001  0.008  0.009
   36  0.000  0.000  0.000  0.001
   37  0.000  0.000  0.000  0.000
tot    0.149  0.029  0.575  0.752
 
band    17 # energy   -5.51779399 # occ.  2.00000000
 
ion      s      p      d    tot
    1  0.000  0.001  0.014  0.015
    2  0.000  0.000  0.005  0.006
    3  0.008  0.001  0.005  0.014
    4  0.000  0.000  0.005  0.006
    5  0.000  0.000  0.005  0.005
    6  0.006  0.001  0.005  0.011
    7  0.009  0.001  0.005  0.015
    8  0.007  0.001  0.004  0.013
    9  0.000  0.001  0.008  0.009
   10  0.009  0.000  0.021  0.030
   11  0.000  0.001  0.022  0.023
   12  0.003  0.001  0.025  0.028
   13  0.000  0.001  0.021  0.023
   14  0.001  0.001  0.019  0.022
   15  0.003  0.000  0.054  0.058
   16  0.002  0.001  0.025  0.028
   17  0.005  0.001  0.047  0.053
   18  0.016  0.002  0.006  0.025
   19  0.003  0.001  0.054  0.058
   20  0.000  0.000  0.023  0.023
   21  0.000  0.001  0.019  0.020
   22  0.007  0.001  0.030  0.038
   23  0.000  0.001  0.018  0.020
   24  0.024  0.001  0.017  0.041
   25  0.016  0.001  0.005  0.023
   26  0.005  0.001  0.047  0.053
   27  0.005  0.000  0.032  0.037
   28  0.000  0.001  0.004  0.005
   29  0.001  0.000  0.003  0.004
   30  0.006  0.001  0.003  0.009
   31  0.000  0.000  0.003  0.004
   32  0.002  0.001  0.005  0.008
   33  0.006  0.001  0.003  0.010
   34  0.003  0.001  0.005  0.009
   35  0.000  0.001  0.008  0.009
   36  0.000  0.000  0.000  0.001
   37  0.000  0.000  0.000  0.000
tot    0.149  0.029  0.574  0.752
 
band    18 # energy   -5.17381485 # occ.  2.00000000
 
ion      s      p      d    tot
    1  0.000  0.000  0.014  0.015
    2  0.005  0.000  0.015  0.021
    3  0.001  0.000  0.014  0.015
    4  0.005  0.001  0.009  0.014
    5  0.000  0.000  0.030  0.030
    6  0.001  0.001  0.010  0.012
    7  0.009  0.001  0.010  0.020
    8  0.009  0.000  0.014  0.023
    9  0.000  0.001  0.009  0.010
   10  0.000  0.000  0.011  0.011
   11  0.000  0.000  0.043  0.044
   12  0.000  0.000  0.015  0.016
   13  0.000  0.000  0.040  0.041
   14  0.000  0.000  0.042  0.042
   15  0.000  0.000  0.030  0.030
   16  0.000  0.000  0.007  0.007
   17  0.000  0.000  0.047  0.048
   18  0.000  0.000  0.038  0.039
   19  0.000  0.000  0.011  0.011
   20  0.001  0.000  0.035  0.036
   21  0.001  0.000  0.042  0.043
   22  0.000  0.000  0.039  0.040
   23  0.000  0.000  0.029  0.029
   24  0.000  0.000  0.038  0.038
   25  0.000  0.000  0.012  0.012
   26  0.001  0.000  0.012  0.013
   27  0.000  0.000  0.036  0.037
   28  0.000  0.000  0.014  0.015
   29  0.000  0.001  0.010  0.011
   30  0.004  0.001  0.012  0.017
   31  0.011  0.001  0.008  0.020
   32  0.010  0.001  0.011  0.021
   33  0.007  0.001  0.006  0.014
   34  0.002  0.001  0.007  0.009
   35  0.000  0.000  0.018  0.019
   36  0.000  0.002  0.000  0.003
   37  0.000  0.001  0.000  0.001
tot    0.067  0.017  0.741  0.824
 
band    19 # energy   -5.17380887 # occ.  2.00000000
 
ion      s      p      d    tot
    1  0.000  0.000  0.014  0.015
    2  0.005  0.001  0.009  0.014
    3  0.009  0.001  0.010  0.020
    4  0.005  0.000  0.015  0.020
    5  0.000  0.000  0.030  0.030
    6  0.009  0.000  0.014  0.023
    7  0.001  0.000  0.014  0.015
    8  0.001  0.001  0.010  0.012
    9  0.000  0.001  0.009  0.010
   10  0.000  0.000  0.011  0.012
   11  0.000  0.000  0.040  0.041
   12  0.000  0.000  0.007  0.007
   13  0.000  0.000  0.043  0.044
   14  0.000  0.000  0.042  0.042
   15  0.000  0.000  0.047  0.048
   16  0.000  0.000  0.015  0.015
   17  0.000  0.000  0.030  0.030
   18  0.000  0.000  0.039  0.039
   19  0.001  0.000  0.012  0.013
   20  0.001  0.000  0.035  0.036
   21  0.000  0.000  0.029  0.029
   22  0.000  0.000  0.036  0.037
   23  0.001  0.000  0.042  0.043
   24  0.000  0.000  0.038  0.038
   25  0.000  0.000  0.012  0.012
   26  0.000  0.000  0.011  0.011
   27  0.000  0.000  0.039  0.040
   28  0.000  0.000  0.014  0.015
   29  0.011  0.001  0.008  0.020
   30  0.007  0.001  0.006  0.014
   31  0.000  0.001  0.010  0.011
   32  0.002  0.001  0.007  0.010
   33  0.004  0.001  0.012  0.017
   34  0.010  0.001  0.011  0.021
   35  0.000  0.000  0.018  0.019
   36  0.000  0.002  0.000  0.003
   37  0.000  0.001  0.000  0.001
tot    0.067  0.017  0.741  0.824
 
band    20 # energy   -5.16124933 # occ.  2.00000000
 
ion      s      p      d    tot
    1  0.014  0.001  0.001  0.015
    2  0.000  0.001  0.013  0.013
    3  0.000  0.001  0.013  0.013
    4  0.000  0.001  0.013  0.013
    5  0.007  0.000  0.014  0.020
    6  0.000  0.001  0.013  0.013
    7  0.000  0.001  0.013  0.013
    8  0.000  0.001  0.013  0.013
    9  0.001  0.000  0.006  0.008
   10  0.000  0.000  0.026  0.026
   11  0.000  0.000  0.041  0.042
   12  0.000  0.000  0.026  0.026
   13  0.000  0.000  0.041  0.042
   14  0.000  0.000  0.042  0.042
   15  0.000  0.000  0.039  0.039
   16  0.000  0.000  0.026  0.026
   17  0.000  0.000  0.039  0.039
   18  0.000  0.000  0.039  0.039
   19  0.000  0.000  0.025  0.025
   20  0.001  0.000  0.034  0.035
   21  0.001  0.000  0.034  0.035
   22  0.001  0.000  0.032  0.033
   23  0.001  0.000  0.034  0.035
   24  0.001  0.000  0.032  0.034
   25  0.000  0.000  0.025  0.025
   26  0.000  0.000  0.025  0.025
   27  0.001  0.000  0.032  0.033
   28  0.014  0.001  0.001  0.015
   29  0.000  0.001  0.012  0.012
   30  0.000  0.001  0.012  0.012
   31  0.000  0.001  0.012  0.012
   32  0.000  0.001  0.012  0.012
   33  0.000  0.001  0.012  0.012
   34  0.000  0.001  0.012  0.012
   35  0.009  0.000  0.004  0.013
   36  0.001  0.000  0.005  0.006
   37  0.000  0.002  0.000  0.002
tot    0.051  0.015  0.767  0.833
 
band    21 # energy   -5.14709022 # occ.  2.00000000
 
ion      s      p      d    tot
    1  0.000  0.000  0.012  0.013
    2  0.000  0.001  0.018  0.018
    3  0.000  0.001  0.018  0.018
    4  0.000  0.001  0.018  0.018
    5  0.015  0.001  0.001  0.017
    6  0.000  0.001  0.018  0.018
    7  0.000  0.001  0.018  0.018
    8  0.000  0.001  0.018  0.018
    9  0.022  0.000  0.008  0.030
   10  0.000  0.000  0.046  0.046
   11  0.000  0.001  0.039  0.039
   12  0.000  0.000  0.046  0.046
   13  0.000  0.001  0.038  0.039
   14  0.000  0.001  0.038  0.039
   15  0.000  0.000  0.031  0.032
   16  0.000  0.000  0.046  0.046
   17  0.000  0.000  0.032  0.032
   18  0.000  0.000  0.032  0.032
   19  0.001  0.000  0.025  0.026
   20  0.001  0.000  0.035  0.036
   21  0.001  0.000  0.035  0.036
   22  0.000  0.000  0.018  0.018
   23  0.001  0.000  0.035  0.036
   24  0.000  0.000  0.017  0.018
   25  0.001  0.000  0.025  0.026
   26  0.001  0.000  0.025  0.026
   27  0.000  0.000  0.018  0.018
   28  0.001  0.000  0.004  0.006
   29  0.000  0.000  0.008  0.009
   30  0.000  0.000  0.008  0.009
   31  0.000  0.000  0.008  0.009
   32  0.000  0.000  0.008  0.009
   33  0.000  0.000  0.008  0.009
   34  0.000  0.000  0.008  0.009
   35  0.001  0.000  0.002  0.003
   36  0.006  0.000  0.002  0.008