 vasp.6.2.0 18Jan21 (build Jun 12 2021 23:27:24) complex                        
  
 executed on             LinuxIFC date 2022.05.27  05:00:22
 running on   16 total cores
 distrk:  each k-point on   16 cores,    1 groups
 distr:  one band on NCORE=   1 cores,   16 groups


--------------------------------------------------------------------------------------------------------


 INCAR:
   ISMEAR = -5
   SIGMA = 0.1
   ISPIN = 1
   EDIFF = 1.d-5
   EDIFFG = -0.01
   NSW = 0
   NELM = 150
   ENCUT = 500
   ISIF = 2
   IBRION = 2
   LREAL = Auto
   ALGO = Fast
   ICHARG = 11
   LORBIT = 10
   LCHARG = .F.
   LWAVE = .F.

 POTCAR:    PAW_PBE Au 04Oct2007                  
 POTCAR:    PAW_PBE V 08Apr2002                   
 POTCAR:    PAW_PBE N 08Apr2002                   
 -----------------------------------------------------------------------------
|                                                                             |
|           W    W    AA    RRRRR   N    N  II  N    N   GGGG   !!!           |
|           W    W   A  A   R    R  NN   N  II  NN   N  G    G  !!!           |
|           W    W  A    A  R    R  N N  N  II  N N  N  G       !!!           |
|           W WW W  AAAAAA  RRRRR   N  N N  II  N  N N  G  GGG   !            |
|           WW  WW  A    A  R   R   N   NN  II  N   NN  G    G                |
|           W    W  A    A  R    R  N    N  II  N    N   GGGG   !!!           |
|                                                                             |
|     For optimal performance we recommend to set                             |
|       NCORE = 2 up to number-of-cores-per-socket                            |
|     NCORE specifies how many cores store one orbital (NPAR=cpu/NCORE).      |
|     This setting can greatly improve the performance of VASP for DFT.       |
|     The default, NCORE=1 might be grossly inefficient on modern             |
|     multi-core architectures or massively parallel machines. Do your        |
|     own testing! More info at https://www.vasp.at/wiki/index.php/NCORE      |
|     Unfortunately you need to use the default for GW and RPA                |
|     calculations (for HF NCORE is supported but not extensively tested      |
|     yet).                                                                   |
|                                                                             |
 -----------------------------------------------------------------------------

 POTCAR:    PAW_PBE Au 04Oct2007                  
   VRHFIN =Au: s1d10                                                                                
   LEXCH  = PE                                                                                      
   EATOM  =   926.0867 eV,   68.0654 Ry                                                             
                                                                                                    
   TITEL  = PAW_PBE Au 04Oct2007                                                                    
   LULTRA =        F    use ultrasoft PP ?                                                          
   IUNSCR =        1    unscreen: 0-lin 1-nonlin 2-no                                               
   RPACOR =    2.330    partial core radius                                                         
   POMASS =  196.966; ZVAL   =   11.000    mass and valenz                                          
   RCORE  =    2.500    outmost cutoff radius                                                       
   RWIGS  =    2.840; RWIGS  =    1.503    wigner-seitz radius (au A)                               
   ENMAX  =  229.943; ENMIN  =  172.457 eV                                                          
   ICORE  =        3    local potential                                                             
   LCOR   =        T    correct aug charges                                                         
   LPAW   =        T    paw PP                                                                      
   EAUG   =  356.670                                                                                
   DEXC   =    0.000                                                                                
   RMAX   =    2.562    core radius for proj-oper                                                   
   RAUG   =    1.300    factor for augmentation sphere                                              
   RDEP   =    2.598    radius for radial grids                                                     
   RDEPT  =    2.193    core radius for aug-charge                                                  
                                                                                                    
   Atomic configuration                                                                             
   16 entries                                                                                       
     n  l   j            E        occ.                                                              
     1  0  0.50    -80748.5001   2.0000                                                             
     2  0  0.50    -14244.7466   2.0000                                                             
     2  1  1.50    -12310.9591   6.0000                                                             
     3  0  0.50     -3362.1768   2.0000                                                             
     3  1  1.50     -2801.5463   6.0000                                                             
     3  2  2.50     -2203.8206  10.0000                                                             
     4  0  0.50      -729.8168   2.0000                                                             
     4  1  1.50      -546.0527   6.0000                                                             
     4  2  2.50      -325.7302  10.0000                                                             
     4  3  3.50       -81.1472  14.0000                                                             
     5  0  0.50      -108.3201   2.0000                                                             
     5  1  1.50       -59.7479   6.0000                                                             
     5  2  2.50        -6.8783  10.0000                                                             
     6  0  0.50        -5.7602   1.0000                                                             
     6  1  1.50        -6.8029   0.0000                                                             
     5  3  2.50        -1.3606   0.0000                                                             
   Description                                                                                      
     l       E           TYP  RCUT    TYP  RCUT                                                     
     2     -6.8782861     23  2.500                                                                 
     2     -8.2388687     23  2.500                                                                 
     0     -5.7601759     23  2.500                                                                 
     0     -0.8493231     23  2.500                                                                 
     1     -2.7211652     23  2.500                                                                 
     1     27.2116520     23  2.500                                                                 
     3     -1.3605826     23  2.500                                                                 
  local pseudopotential read in
  partial core-charges read in
  partial kinetic energy density read in
  atomic valenz-charges read in
  non local Contribution for L=           2  read in
    real space projection operators read in
  non local Contribution for L=           2  read in
    real space projection operators read in
  non local Contribution for L=           0  read in
    real space projection operators read in
  non local Contribution for L=           0  read in
    real space projection operators read in
  non local Contribution for L=           1  read in
    real space projection operators read in
  non local Contribution for L=           1  read in
    real space projection operators read in
    PAW grid and wavefunctions read in
 
   number of l-projection  operators is LMAX  =           6
   number of lm-projection operators is LMMAX =          18
 
 POTCAR:    PAW_PBE V 08Apr2002                   
   VRHFIN =V: p6 d4 s1                                                                              
   LEXCH  = PE                                                                                      
   EATOM  =   170.8679 eV,   12.5584 Ry                                                             
                                                                                                    
   TITEL  = PAW_PBE V 08Apr2002                                                                     
   LULTRA =        F    use ultrasoft PP ?                                                          
   IUNSCR =        1    unscreen: 0-lin 1-nonlin 2-no                                               
   RPACOR =    2.000    partial core radius                                                         
   POMASS =   50.941; ZVAL   =    5.000    mass and valenz                                          
   RCORE  =    2.700    outmost cutoff radius                                                       
   RWIGS  =    2.500; RWIGS  =    1.323    wigner-seitz radius (au A)                               
   ENMAX  =  192.543; ENMIN  =  144.408 eV                                                          
   RCLOC  =    1.779    cutoff for local pot                                                        
   LCOR   =        T    correct aug charges                                                         
   LPAW   =        T    paw PP                                                                      
   EAUG   =  358.662                                                                                
   DEXC   =    0.000                                                                                
   RMAX   =    2.768    core radius for proj-oper                                                   
   RAUG   =    1.300    factor for augmentation sphere                                              
   RDEP   =    2.762    radius for radial grids                                                     
   RDEPT  =    2.240    core radius for aug-charge                                                  
                                                                                                    
   Atomic configuration                                                                             
    9 entries                                                                                       
     n  l   j            E        occ.                                                              
     1  0  0.50     -5360.7193   2.0000                                                             
     2  0  0.50      -598.4546   2.0000                                                             
     2  1  1.50      -499.0155   6.0000                                                             
     3  0  0.50       -66.5711   2.0000                                                             
     3  1  1.50       -40.5282   6.0000                                                             
     3  2  2.50        -2.4291   4.0000                                                             
     4  0  0.50        -3.8743   1.0000                                                             
     4  1  0.50        -2.7212   0.0000                                                             
     4  3  2.50        -1.3606   0.0000                                                             
   Description                                                                                      
     l       E           TYP  RCUT    TYP  RCUT                                                     
     2     -2.4290901     23  2.700                                                                 
     2     -3.7896727     23  2.700                                                                 
     0     -3.8742752     23  2.700                                                                 
     0     27.2116520     23  2.700                                                                 
     1     -2.7211652     23  2.700                                                                 
     1     27.2116520     23  2.700                                                                 
  local pseudopotential read in
  partial core-charges read in
  partial kinetic energy density read in
  atomic valenz-charges read in
  non local Contribution for L=           2  read in
    real space projection operators read in
  non local Contribution for L=           2  read in
    real space projection operators read in
  non local Contribution for L=           0  read in
    real space projection operators read in
  non local Contribution for L=           0  read in
    real space projection operators read in
  non local Contribution for L=           1  read in
    real space projection operators read in
  non local Contribution for L=           1  read in
    real space projection operators read in
    PAW grid and wavefunctions read in
 
   number of l-projection  operators is LMAX  =           6
   number of lm-projection operators is LMMAX =          18
 
 POTCAR:    PAW_PBE N 08Apr2002                   
   VRHFIN =N: s2p3                                                                                  
   LEXCH  = PE                                                                                      
   EATOM  =   264.5486 eV,   19.4438 Ry                                                             
                                                                                                    
   TITEL  = PAW_PBE N 08Apr2002                                                                     
   LULTRA =        F    use ultrasoft PP ?                                                          
   IUNSCR =        1    unscreen: 0-lin 1-nonlin 2-no                                               
   RPACOR =    1.200    partial core radius                                                         
   POMASS =   14.001; ZVAL   =    5.000    mass and valenz                                          
   RCORE  =    1.500    outmost cutoff radius                                                       
   RWIGS  =    1.400; RWIGS  =    0.741    wigner-seitz radius (au A)                               
   ENMAX  =  400.000; ENMIN  =  300.000 eV                                                          
   ICORE  =        2    local potential                                                             
   LCOR   =        T    correct aug charges                                                         
   LPAW   =        T    paw PP                                                                      
   EAUG   =  627.112                                                                                
   DEXC   =    0.000                                                                                
   RMAX   =    1.529    core radius for proj-oper                                                   
   RAUG   =    1.300    factor for augmentation sphere                                              
   RDEP   =    1.514    radius for radial grids                                                     
   RDEPT  =    1.338    core radius for aug-charge                                                  
                                                                                                    
   Atomic configuration                                                                             
    4 entries                                                                                       
     n  l   j            E        occ.                                                              
     1  0  0.50      -384.7179   2.0000                                                             
     2  0  0.50       -18.5828   2.0000                                                             
     2  1  0.50        -7.0898   3.0000                                                             
     3  2  1.50        -6.8029   0.0000                                                             
   Description                                                                                      
     l       E           TYP  RCUT    TYP  RCUT                                                     
     0    -18.5828119     23  1.200                                                                 
     0    -13.5018863     23  1.200                                                                 
     1     -7.0897853     23  1.500                                                                 
     1      9.5240782     23  1.500                                                                 
     2     -6.8029130      7  1.500                                                                 
  local pseudopotential read in
  partial core-charges read in
  partial kinetic energy density read in
  atomic valenz-charges read in
  non local Contribution for L=           0  read in
    real space projection operators read in
  non local Contribution for L=           0  read in
    real space projection operators read in
  non local Contribution for L=           1  read in
    real space projection operators read in
  non local Contribution for L=           1  read in
    real space projection operators read in
    PAW grid and wavefunctions read in
 
   number of l-projection  operators is LMAX  =           4
   number of lm-projection operators is LMMAX =           8
 
 Optimization of the real space projectors (new method)

 maximal supplied QI-value         = 15.12
 optimisation between [QCUT,QGAM] = [ 11.34, 22.83] = [ 36.00,145.93] Ry 
 Optimized for a Real-space Cutoff    1.39 Angstroem

   l    n(q)    QCUT    max X(q) W(low)/X(q) W(high)/X(q)  e(spline) 
   2      9    11.338    60.898    0.39E-03    0.42E-03    0.21E-06
   2      9    11.338    58.894    0.40E-03    0.42E-03    0.22E-06
   0      9    11.338   109.617    0.13E-03    0.20E-04    0.13E-06
   0      9    11.338    75.026    0.13E-03    0.20E-04    0.13E-06
   1      9    11.338    16.344    0.33E-04    0.24E-03    0.18E-06
   1      9    11.338    10.160    0.26E-04    0.19E-03    0.15E-06
 Optimization of the real space projectors (new method)

 maximal supplied QI-value         = 13.98
 optimisation between [QCUT,QGAM] = [ 11.33, 22.79] = [ 35.93,145.49] Ry 
 Optimized for a Real-space Cutoff    1.56 Angstroem

   l    n(q)    QCUT    max X(q) W(low)/X(q) W(high)/X(q)  e(spline) 
   2     10    11.327    96.114    0.36E-03    0.35E-03    0.42E-06
   2     10    11.327    88.986    0.37E-03    0.35E-03    0.42E-06
   0     11    11.327    20.919    0.40E-04    0.56E-04    0.79E-06
   0     11    11.327     9.593    0.30E-04    0.41E-04    0.60E-06
   1     10    11.327    11.615    0.15E-03    0.10E-03    0.19E-06
   1     10    11.327     7.031    0.11E-03    0.73E-04    0.14E-06
 Optimization of the real space projectors (new method)

 maximal supplied QI-value         = 25.13
 optimisation between [QCUT,QGAM] = [ 11.31, 22.87] = [ 35.82,146.48] Ry 
 Optimized for a Real-space Cutoff    1.27 Angstroem

   l    n(q)    QCUT    max X(q) W(low)/X(q) W(high)/X(q)  e(spline) 
   0      9    11.310    79.467    0.75E-04    0.16E-03    0.36E-06
   0      9    11.310    66.151    0.74E-04    0.16E-03    0.36E-06
   1      8    11.310    17.416    0.35E-03    0.12E-03    0.95E-06
   1      8    11.310    12.382    0.37E-03    0.13E-03    0.98E-06
  PAW_PBE Au 04Oct2007                  :
 energy of atom  1       EATOM= -926.0867
 kinetic energy error for atom=    0.0042 (will be added to EATOM!!)
  PAW_PBE V 08Apr2002                   :
 energy of atom  2       EATOM= -170.8679
 kinetic energy error for atom=    0.0003 (will be added to EATOM!!)
  PAW_PBE N 08Apr2002                   :
 energy of atom  3       EATOM= -264.5486
 kinetic energy error for atom=    0.0138 (will be added to EATOM!!)
 
 
 POSCAR: Au-V-N2
  positions in direct lattice
  velocities in cartesian coordinates
 exchange correlation table for  LEXCH =        8
   RHO(1)=    0.500       N(1)  =     2000
   RHO(2)=  100.500       N(2)  =     4000

 VTST: version 3.2, (02/03/18)

 CHAIN: initializing optimizer
 
 OPT: Using VASP Conjugate-Gradient optimizer
 CHAIN: Read ICHAIN            0
 
 POSCAR: Au-V-N2
  positions in direct lattice
  velocities in cartesian coordinates
 


--------------------------------------------------------------------------------------------------------


 ion  position               nearest neighbor table
   1  0.000  0.000  0.207-  16 2.94  12 2.94   6 2.94   8 2.94   7 2.94   3 2.94  10 2.94   4 2.94
                             2 2.94
   2  0.333  0.000  0.207-   9 2.94  11 2.94  17 2.94  10 2.94   8 2.94   4 2.94   5 2.94   1 2.94
                             3 2.94
   3  0.667  0.000  0.207-   7 2.94  18 2.94  12 2.94   1 2.94  11 2.94   5 2.94   6 2.94   9 2.94
                             2 2.94
   4  0.000  0.333  0.207-  10 2.94   6 2.94   5 2.94  13 2.94   2 2.94  15 2.94   9 2.94   1 2.94
                             7 2.94
   5  0.333  0.333  0.207-  13 2.94   7 2.94  11 2.94   4 2.94   2 2.94  14 2.94   3 2.94   8 2.94
                             6 2.94
   6  0.667  0.333  0.207-  15 2.94  14 2.94   1 2.94  12 2.94   4 2.94   9 2.94   8 2.94   3 2.94
                             5 2.94
   7  0.000  0.667  0.207-  18 2.94   3 2.94  16 2.94   5 2.94   1 2.94  13 2.94   8 2.94   4 2.94
                             9 2.94
   8  0.333  0.667  0.207-   9 2.94  17 2.94   1 2.94   2 2.94  14 2.94  16 2.94   6 2.94   7 2.94
                             5 2.94
   9  0.667  0.667  0.207-   2 2.94   8 2.94  17 2.94   6 2.94  15 2.94   4 2.94   3 2.94  18 2.94
                             7 2.94
  10  0.111  0.111  0.301-  20 2.93  26 2.94  19 2.94  11 2.94  17 2.94   2 2.94   4 2.94   1 2.94
                            12 2.94  16 2.94  13 2.94  15 2.94
  11  0.444  0.111  0.301-  20 2.92  21 2.92  27 2.94  13 2.94   2 2.94  10 2.94  17 2.94   5 2.94
                             3 2.94  18 2.94  14 2.94  12 2.94
  12  0.778  0.111  0.301-  21 2.93  25 2.94  19 2.94  16 2.94  18 2.94   1 2.94  14 2.94  15 2.94
                             3 2.94   6 2.94  10 2.94  11 2.94
  13  0.111  0.444  0.301-  23 2.92  20 2.92  22 2.94   5 2.94  18 2.94  11 2.94   7 2.94   4 2.94
                            16 2.94  10 2.94  14 2.94  15 2.94
  14  0.444  0.444  0.301-  21 2.92  23 2.92  24 2.94  15 2.94   6 2.94  12 2.94   8 2.94  17 2.94
                             5 2.94  16 2.94  13 2.94  11 2.94
  15  0.778  0.444  0.301-  24 2.92  22 2.92  19 2.93  14 2.94   6 2.94  17 2.94  12 2.94   9 2.94
                             4 2.94  10 2.94  13 2.94  18 2.94
  16  0.111  0.778  0.301-  23 2.93  25 2.94  26 2.94  18 2.94  12 2.94   7 2.94   1 2.94   8 2.94
                            13 2.94  10 2.94  14 2.94  17 2.94
  17  0.444  0.778  0.301-  27 2.92  24 2.92  26 2.93   9 2.94  15 2.94   2 2.94  10 2.94  11 2.94
                             8 2.94  14 2.94  16 2.94  18 2.94
  18  0.778  0.778  0.301-  22 2.92  27 2.92  25 2.93  16 2.94   7 2.94  13 2.94  12 2.94   3 2.94
                            11 2.94   9 2.94  15 2.94  17 2.94
  19  0.889  0.222  0.395-  15 2.93  10 2.94  12 2.94  24 2.94  22 2.94  28 2.94  26 2.94  25 2.94
                            21 2.95  20 2.95  32 3.03  31 3.03
  20  0.223  0.223  0.394-  36 2.72  23 2.92  21 2.92  11 2.92  13 2.92  10 2.93  29 2.95  31 2.95
                            26 2.95  19 2.95  27 2.95  22 2.95
  21  0.554  0.223  0.394-  36 2.72  20 2.92  23 2.92  14 2.92  11 2.92  12 2.93  30 2.95  32 2.95
                            25 2.95  19 2.95  27 2.95  24 2.95
  22  0.887  0.557  0.395-  24 2.91  27 2.91  18 2.92  15 2.92  25 2.94  19 2.94  13 2.94  23 2.95
                            20 2.95  35 2.96  33 2.99  31 2.99
  23  0.223  0.554  0.394-  36 2.72  20 2.92  21 2.92  13 2.92  14 2.92  16 2.93  33 2.95  34 2.95
                            25 2.95  26 2.95  22 2.95  24 2.95
  24  0.557  0.557  0.395-  27 2.91  22 2.91  15 2.92  17 2.92  26 2.94  19 2.94  14 2.94  21 2.95
                            23 2.95  35 2.96  32 2.99  34 2.99
  25  0.889  0.889  0.395-  18 2.93  16 2.94  12 2.94  22 2.94  27 2.94  28 2.94  19 2.94  26 2.94
                            23 2.95  21 2.95  33 3.03  30 3.03
  26  0.222  0.889  0.395-  17 2.93  10 2.94  16 2.94  27 2.94  24 2.94  28 2.94  19 2.94  25 2.94
                            20 2.95  23 2.95  29 3.03  34 3.03
  27  0.557  0.887  0.395-  24 2.91  22 2.91  17 2.92  18 2.92  26 2.94  25 2.94  11 2.94  20 2.95
                            21 2.95  35 2.96  29 2.99  30 2.99
  28  0.000  0.000  0.489-  25 2.94  19 2.94  26 2.94  34 2.99  32 2.99  33 2.99  30 2.99  31 2.99
                            29 2.99
  29  0.334  0.011  0.491-  30 2.83  31 2.85  36 2.86  20 2.95  35 2.98  27 2.99  28 2.99  26 3.03
                            34 3.13
  30  0.655  0.011  0.491-  29 2.83  32 2.85  36 2.86  21 2.95  35 2.98  27 2.99  28 2.99  25 3.03
                            33 3.13
  31  0.011  0.334  0.491-  33 2.83  29 2.85  36 2.86  20 2.95  35 2.98  22 2.99  28 2.99  19 3.03
                            32 3.13
  32  0.655  0.334  0.491-  34 2.83  30 2.85  36 2.86  21 2.95  35 2.98  24 2.99  28 2.99  19 3.03
                            31 3.13
  33  0.011  0.655  0.491-  31 2.83  34 2.85  36 2.86  23 2.95  35 2.98  22 2.99  28 2.99  25 3.03
                            30 3.13
  34  0.334  0.655  0.491-  32 2.83  33 2.85  36 2.86  23 2.95  35 2.98  24 2.99  28 2.99  26 3.03
                            29 3.13
  35  0.667  0.667  0.490-  24 2.96  27 2.96  22 2.96  29 2.98  34 2.98  32 2.98  31 2.98  30 2.98
                            33 2.98
  36  0.333  0.333  0.478-  20 2.72  23 2.72  21 2.72  33 2.86  31 2.86  29 2.86  30 2.86  34 2.86
                            32 2.86
  37  0.267  0.339  0.638-  38 1.11
  38  0.394  0.339  0.638-  37 1.11
 
  LATTYP: Found a hexagonal cell.
 ALAT       =     8.8135128021
 C/A-ratio  =     2.8941119251
  
  Lattice vectors:
  
 A1 = (  -4.4067569092,  -7.6327256898,   0.0000000000)
 A2 = (   8.8135128021,   0.0000000000,   0.0000000000)
 A3 = (   0.0000000000,   0.0000000000,  25.5072925022)


Analysis of symmetry for initial positions (statically):
=====================================================================
 Subroutine PRICEL returns:
 Original cell was already a primitive cell.
 

 Routine SETGRP: Setting up the symmetry group for a 
 hexagonal supercell.


 Subroutine GETGRP returns: Found  2 space group operations
 (whereof  2 operations were pure point group operations)
 out of a pool of 24 trial point group operations.


The static configuration has the point symmetry C_1h.


Analysis of symmetry for dynamics (positions and initial velocities):
=====================================================================
 Subroutine PRICEL returns:
 Original cell was already a primitive cell.
 

 Routine SETGRP: Setting up the symmetry group for a 
 hexagonal supercell.


 Subroutine GETGRP returns: Found  2 space group operations
 (whereof  2 operations were pure point group operations)
 out of a pool of 24 trial point group operations.


The dynamic configuration has the point symmetry C_1h.


Analysis of constrained symmetry for selective dynamics:
=====================================================================
 Subroutine PRICEL returns:
 Original cell was already a primitive cell.
 

 Routine SETGRP: Setting up the symmetry group for a 
 hexagonal supercell.


 Subroutine GETGRP returns: Found  2 space group operations
 (whereof  2 operations were pure point group operations)
 out of a pool of 24 trial point group operations.


The constrained configuration has the point symmetry C_1h.


 Subroutine INISYM returns: Found  2 space group operations
 (whereof  2 operations are pure point group operations),
 and found     1 'primitive' translations


----------------------------------------------------------------------------------------

                                     Primitive cell                                     

  volume of cell :    1715.9043

  direct lattice vectors                    reciprocal lattice vectors
     8.813512802  0.000000000  0.000000000     0.113462137 -0.065507406  0.000000000
     4.406756909  7.632725690  0.000000000     0.000000000  0.131014796  0.000000000
     0.000000000  0.000000000 25.507292502     0.000000000  0.000000000  0.039204475

  length of vectors
     8.813512802  8.813512802 25.507292502     0.131014796  0.131014796  0.039204475

  position of ions in fractional coordinates (direct lattice)
     0.000000000  0.000000000  0.207014521
     0.333333343  0.000000000  0.207014521
     0.666666687  0.000000000  0.207014521
     1.000000000  0.333333343  0.207014521
     0.333333313  0.333333343  0.207014521
     0.666666687  0.333333343  0.207014521
     1.000000000  0.666666687  0.207014521
     0.333333343  0.666666687  0.207014521
     0.666666627  0.666666687  0.207014521
     0.111111119  0.111111112  0.301055631
     0.444444418  0.111111112  0.301055631
     0.777777791  0.111111112  0.301055631
     0.111111127  0.444444448  0.301055631
     0.444444478  0.444444448  0.301055631
     0.777777731  0.444444448  0.301055631
     0.111111090  0.777777791  0.301055631
     0.444444448  0.777777791  0.301055631
     0.777777851  0.777777791  0.301055631
     0.888779964  0.222440088  0.395002846
     0.222983025  0.222983010  0.394463929
     0.554034011  0.222983010  0.394463929
     0.886742282  0.556628889  0.394594358
     0.222982980  0.554034011  0.394463929
     0.556628889  0.556628889  0.394594358
     0.888779964  0.888779964  0.395002846
     0.222440118  0.888779964  0.395002846
     0.556628829  0.886742282  0.394594358
     0.000000000  0.000000000  0.488990051
     0.333994608  0.010639071  0.490894239
     0.655366352  0.010639071  0.490894239
     0.010639071  0.333994608  0.490894239
     0.655366352  0.333994608  0.490894239
     0.010639071  0.655366352  0.490894239
     0.333994608  0.655366352  0.490894239
     0.666666627  0.666666687  0.490068465
     0.333333313  0.333333343  0.478345575
     0.267357621  0.338887022  0.637519848
     0.393755326  0.338887022  0.637519848

  ion indices of the primitive-cell ions
   primitive index   ion index
                 1           1
                 2           2
                 3           3
                 4           4
                 5           5
                 6           6
                 7           7
                 8           8
                 9           9
                10          10
                11          11
                12          12
                13          13
                14          14
                15          15
                16          16
                17          17
                18          18
                19          19
                20          20
                21          21
                22          22
                23          23
                24          24
                25          25
                26          26
                27          27
                28          28
                29          29
                30          30
                31          31
                32          32
                33          33
                34          34
                35          35
                36          36
                37          37
                38          38

----------------------------------------------------------------------------------------

 
 
 KPOINTS: Automatic mesh                          

Automatic generation of k-mesh.
 Grid dimensions read from file:
 generate k-points for:    8    8    1

 Generating k-lattice:

  Cartesian coordinates                     Fractional coordinates (reciprocal lattice)
     0.014182767 -0.008188426  0.000000000     0.125000000 -0.000000000  0.000000000
     0.000000000  0.016376850  0.000000000     0.000000000  0.125000000  0.000000000
     0.000000000  0.000000000  0.039204475     0.000000000  0.000000000  1.000000000

  Length of vectors
     0.016376850  0.016376850  0.039204475

  Shift w.r.t. Gamma in fractional coordinates (k-lattice)
     0.000000000  0.000000000  0.000000000

 TETIRR: Found    100 inequivalent tetrahedra from      384
 
 Subroutine IBZKPT returns following result:
 ===========================================
 
 Found     21 irreducible k-points:
 
 Following reciprocal coordinates:
            Coordinates               Weight
  0.000000  0.000000  0.000000      1.000000
  0.125000  0.000000  0.000000      4.000000
  0.000000  0.125000  0.000000      2.000000
  0.250000  0.000000  0.000000      4.000000
  0.000000  0.250000  0.000000      2.000000
  0.375000 -0.000000  0.000000      4.000000
  0.000000  0.375000  0.000000      2.000000
  0.500000  0.000000  0.000000      2.000000
  0.000000  0.500000  0.000000      1.000000
  0.250000  0.125000  0.000000      2.000000
  0.125000  0.250000  0.000000      4.000000
  0.375000  0.125000  0.000000      4.000000
  0.250000  0.375000  0.000000      4.000000
 -0.125000  0.250000  0.000000      4.000000
  0.500000  0.125000  0.000000      4.000000
  0.375000  0.500000  0.000000      4.000000
 -0.125000  0.375000  0.000000      4.000000
  0.500000  0.250000  0.000000      2.000000
  0.250000  0.500000  0.000000      4.000000
 -0.375000  0.250000  0.000000      4.000000
 -0.250000  0.375000  0.000000      2.000000
 
 Following cartesian coordinates:
            Coordinates               Weight
  0.000000  0.000000  0.000000      1.000000
  0.014183 -0.008188  0.000000      4.000000
  0.000000  0.016377  0.000000      2.000000
  0.028366 -0.016377  0.000000      4.000000
  0.000000  0.032754  0.000000      2.000000
  0.042548 -0.024565  0.000000      4.000000
  0.000000  0.049131  0.000000      2.000000
  0.056731 -0.032754  0.000000      2.000000
  0.000000  0.065507  0.000000      1.000000
  0.028366 -0.000000  0.000000      2.000000
  0.014183  0.024565  0.000000      4.000000
  0.042548 -0.008188  0.000000      4.000000
  0.028366  0.032754  0.000000      4.000000
 -0.014183  0.040942  0.000000      4.000000
  0.056731 -0.016377  0.000000      4.000000
  0.042548  0.040942  0.000000      4.000000
 -0.014183  0.057319  0.000000      4.000000
  0.056731 -0.000000  0.000000      2.000000
  0.028366  0.049131  0.000000      4.000000
 -0.042548  0.057319  0.000000      4.000000
 -0.028366  0.065507  0.000000      2.000000
 


--------------------------------------------------------------------------------------------------------




 Dimension of arrays:
   k-points           NKPTS =     21   k-points in BZ     NKDIM =     21   number of bands    NBANDS=    240
   number of dos      NEDOS =    301   number of ions     NIONS =     38
   non local maximal  LDIM  =      6   non local SUM 2l+1 LMDIM =     18
   total plane-waves  NPLWV = 322560
   max r-space proj   IRMAX =   3063   max aug-charges    IRDMAX=  11694
   dimension x,y,z NGX =    48 NGY =   48 NGZ =  140
   dimension x,y,z NGXF=    96 NGYF=   96 NGZF=  280
   support grid    NGXF=    96 NGYF=   96 NGZF=  280
   ions per type =              35   1   2
   NGX,Y,Z   is equivalent  to a cutoff of   9.05,  9.05,  9.12 a.u.
   NGXF,Y,Z  is equivalent  to a cutoff of  18.11, 18.11, 18.25 a.u.

 SYSTEM =  unknown system                          
 POSCAR =  Au-V-N2                                 

 Startparameter for this run:
   NWRITE =      2    write-flag & timer
   PREC   = normal    normal or accurate (medium, high low for compatibility)
   ISTART =      0    job   : 0-new  1-cont  2-samecut
   ICHARG =     11    charge: 1-file 2-atom 10-const
   ISPIN  =      1    spin polarized calculation?
   LNONCOLLINEAR =      F non collinear calculations
   LSORBIT =      F    spin-orbit coupling
   INIWAV =      1    electr: 0-lowe 1-rand  2-diag
   LASPH  =      F    aspherical Exc in radial PAW
   METAGGA=      F    non-selfconsistent MetaGGA calc.

 Electronic Relaxation 1
   ENCUT  =  500.0 eV  36.75 Ry    6.06 a.u.  16.07 16.07 46.51*2*pi/ulx,y,z
   ENINI  =  500.0     initial cutoff
   ENAUG  =  627.1 eV  augmentation charge cutoff
   NELM   =    150;   NELMIN=  2; NELMDL= -5     # of ELM steps 
   EDIFF  = 0.1E-04   stopping-criterion for ELM
   LREAL  =      T    real-space projection
   NLSPLINE    = F    spline interpolate recip. space projectors
   LCOMPAT=      F    compatible to vasp.4.4
   GGA_COMPAT  = T    GGA compatible to vasp.4.4-vasp.4.6
   LMAXPAW     = -100 max onsite density
   LMAXMIX     =    2 max onsite mixed and CHGCAR
   VOSKOWN=      0    Vosko Wilk Nusair interpolation
   ROPT   =   -0.00050  -0.00050  -0.00050
 Ionic relaxation
   EDIFFG = -.1E-01   stopping-criterion for IOM
   NSW    =      0    number of steps for IOM
   NBLOCK =      1;   KBLOCK =      1    inner block; outer block 
   IBRION =     -1    ionic relax: 0-MD 1-quasi-New 2-CG
   NFREE  =      1    steps in history (QN), initial steepest desc. (CG)
   ISIF   =      2    stress and relaxation
   IWAVPR =     10    prediction:  0-non 1-charg 2-wave 3-comb
   ISYM   =      2    0-nonsym 1-usesym 2-fastsym
   LCORR  =      T    Harris-Foulkes like correction to forces

   POTIM  = 0.5000    time-step for ionic-motion
   TEIN   =    0.0    initial temperature
   TEBEG  =    0.0;   TEEND  =   0.0 temperature during run
   SMASS  =  -3.00    Nose mass-parameter (am)
   estimated Nose-frequenzy (Omega)   =  0.10E-29 period in steps = 0.13E+47 mass=  -0.178E-26a.u.
   SCALEE = 1.0000    scale energy and forces
   NPACO  =    256;   APACO  = 16.0  distance and # of slots for P.C.
   PSTRESS=    0.0 pullay stress

  Mass of Ions in am
   POMASS = 196.97 50.94 14.00
  Ionic Valenz
   ZVAL   =  11.00  5.00  5.00
  Atomic Wigner-Seitz radii
   RWIGS  =  -1.00 -1.00 -1.00
  virtual crystal weights 
   VCA    =   1.00  1.00  1.00
   NELECT =     400.0000    total number of electrons
   NUPDOWN=      -1.0000    fix difference up-down

 DOS related values:
   EMIN   =  10.00;   EMAX   =-10.00  energy-range for DOS
   EFERMI =   0.00
   ISMEAR =    -5;   SIGMA  =   0.10  broadening in eV -4-tet -1-fermi 0-gaus

 Electronic relaxation 2 (details)
   IALGO  =     68    algorithm
   LDIAG  =      T    sub-space diagonalisation (order eigenvalues)
   LSUBROT=      F    optimize rotation matrix (better conditioning)
   TURBO    =      0    0=normal 1=particle mesh
   IRESTART =      0    0=no restart 2=restart with 2 vectors
   NREBOOT  =      0    no. of reboots
   NMIN     =      0    reboot dimension
   EREF     =   0.00    reference energy to select bands
   IMIX   =      4    mixing-type and parameters
     AMIX     =   0.40;   BMIX     =  1.00
     AMIX_MAG =   1.60;   BMIX_MAG =  1.00
     AMIN     =   0.10
     WC   =   100.;   INIMIX=   1;  MIXPRE=   1;  MAXMIX= -45

 Intra band minimization:
   WEIMIN = 0.0000     energy-eigenvalue tresh-hold
   EBREAK =  0.10E-07  absolut break condition
   DEPER  =   0.30     relativ break condition  

   TIME   =   0.40     timestep for ELM

  volume/ion in A,a.u.               =      45.16       304.72
  Fermi-wavevector in a.u.,A,eV,Ry     =   1.007544  1.903981 13.811872  1.015144
  Thomas-Fermi vector in A             =   2.140355
 
 Write flags
   LWAVE        =      F    write WAVECAR
   LDOWNSAMPLE  =      F    k-point downsampling of WAVECAR
   LCHARG       =      F    write CHGCAR
   LVTOT        =      F    write LOCPOT, total local potential
   LVHAR        =      F    write LOCPOT, Hartree potential only
   LELF         =      F    write electronic localiz. function (ELF)
   LORBIT       =     10    0 simple, 1 ext, 2 COOP (PROOUT), +10 PAW based schemes


 Dipole corrections
   LMONO  =      F    monopole corrections only (constant potential shift)
   LDIPOL =      F    correct potential (dipole corrections)
   IDIPOL =      0    1-x, 2-y, 3-z, 4-all directions 
   EPSILON=  1.0000000 bulk dielectric constant

 Exchange correlation treatment:
   GGA     =    --    GGA type
   LEXCH   =     8    internal setting for exchange type
   VOSKOWN=      0    Vosko Wilk Nusair interpolation
   LHFCALC =     F    Hartree Fock is set to
   LHFONE  =     F    Hartree Fock one center treatment
   AEXX    =    0.0000 exact exchange contribution

 Linear response parameters
   LEPSILON=     F    determine dielectric tensor
   LRPA    =     F    only Hartree local field effects (RPA)
   LNABLA  =     F    use nabla operator in PAW spheres
   LVEL    =     F    velocity operator in full k-point grid
   LINTERFAST=   F  fast interpolation
   KINTER  =     0    interpolate to denser k-point grid
   CSHIFT  =0.1000    complex shift for real part using Kramers Kronig
   OMEGAMAX=  -1.0    maximum frequency
   DEG_THRESHOLD= 0.2000000E-02 threshold for treating states as degnerate
   RTIME   =   -0.100 relaxation time in fs
  (WPLASMAI=    0.000 imaginary part of plasma frequency in eV, 0.658/RTIME)
   DFIELD  = 0.0000000 0.0000000 0.0000000 field for delta impulse in time
 
 Orbital magnetization related:
   ORBITALMAG=     F  switch on orbital magnetization
   LCHIMAG   =     F  perturbation theory with respect to B field
   DQ        =  0.001000  dq finite difference perturbation B field
   LLRAUG    =     F  two centre corrections for induced B field



--------------------------------------------------------------------------------------------------------


 Static calculation
 charge density and potential remain constant during run
 non-spin polarized calculation
 RMM-DIIS sequential band-by-band and
  variant of blocked Davidson during initial phase
 perform sub-space diagonalisation
    before iterative eigenvector-optimisation
 no mixing
 using additional bands           40
 real space projection scheme for non local part
 use partial core corrections
 calculate Harris-corrections to forces 
   (improved forces if not selfconsistent)
 use gradient corrections 
 WARNING: stress and forces are not correct
  (second derivative of E(xc) not defined)
 use of overlap-Matrix (Vanderbilt PP)
 Fermi weights with tetrahedron method with Bloechl corrections


--------------------------------------------------------------------------------------------------------


  energy-cutoff  :      500.00
  volume of cell :     1715.90
      direct lattice vectors                 reciprocal lattice vectors
     8.813512802  0.000000000  0.000000000     0.113462137 -0.065507406  0.000000000
     4.406756909  7.632725690  0.000000000     0.000000000  0.131014796  0.000000000
     0.000000000  0.000000000 25.507292502     0.000000000  0.000000000  0.039204475

  length of vectors
     8.813512802  8.813512802 25.507292502     0.131014796  0.131014796  0.039204475


 
 k-points in units of 2pi/SCALE and weight: Automatic mesh                          
   0.00000000  0.00000000  0.00000000       0.016
   0.01418277 -0.00818843  0.00000000       0.062
   0.00000000  0.01637685  0.00000000       0.031
   0.02836553 -0.01637685  0.00000000       0.062
   0.00000000  0.03275370  0.00000000       0.031
   0.04254830 -0.02456528  0.00000000       0.062
   0.00000000  0.04913055  0.00000000       0.031
   0.05673107 -0.03275370  0.00000000       0.031
   0.00000000  0.06550740  0.00000000       0.016
   0.02836553 -0.00000000  0.00000000       0.031
   0.01418277  0.02456527  0.00000000       0.062
   0.04254830 -0.00818843  0.00000000       0.062
   0.02836553  0.03275370  0.00000000       0.062
  -0.01418277  0.04094212  0.00000000       0.062
   0.05673107 -0.01637685  0.00000000       0.062
   0.04254830  0.04094212  0.00000000       0.062
  -0.01418277  0.05731897  0.00000000       0.062
   0.05673107 -0.00000000  0.00000000       0.031
   0.02836553  0.04913055  0.00000000       0.062
  -0.04254830  0.05731898  0.00000000       0.062
  -0.02836553  0.06550740  0.00000000       0.031
 
 k-points in reciprocal lattice and weights: Automatic mesh                          
   0.00000000  0.00000000  0.00000000       0.016
   0.12500000  0.00000000  0.00000000       0.062
   0.00000000  0.12500000  0.00000000       0.031
   0.25000000  0.00000000  0.00000000       0.062
   0.00000000  0.25000000  0.00000000       0.031
   0.37500000 -0.00000000  0.00000000       0.062
   0.00000000  0.37500000  0.00000000       0.031
   0.50000000  0.00000000  0.00000000       0.031
   0.00000000  0.50000000  0.00000000       0.016
   0.25000000  0.12500000  0.00000000       0.031
   0.12500000  0.25000000  0.00000000       0.062
   0.37500000  0.12500000  0.00000000       0.062
   0.25000000  0.37500000  0.00000000       0.062
  -0.12500000  0.25000000  0.00000000       0.062
   0.50000000  0.12500000  0.00000000       0.062
   0.37500000  0.50000000  0.00000000       0.062
  -0.12500000  0.37500000  0.00000000       0.062
   0.50000000  0.25000000  0.00000000       0.031
   0.25000000  0.50000000  0.00000000       0.062
  -0.37500000  0.25000000  0.00000000       0.062
  -0.25000000  0.37500000  0.00000000       0.031
 
 position of ions in fractional coordinates (direct lattice) 
   0.00000000  0.00000000  0.20701452
   0.33333334  0.00000000  0.20701452
   0.66666669  0.00000000  0.20701452
   0.00000000  0.33333334  0.20701452
   0.33333331  0.33333334  0.20701452
   0.66666669  0.33333334  0.20701452
   0.00000000  0.66666669  0.20701452
   0.33333334  0.66666669  0.20701452
   0.66666663  0.66666669  0.20701452
   0.11111112  0.11111111  0.30105563
   0.44444442  0.11111111  0.30105563
   0.77777779  0.11111111  0.30105563
   0.11111113  0.44444445  0.30105563
   0.44444448  0.44444445  0.30105563
   0.77777773  0.44444445  0.30105563
   0.11111109  0.77777779  0.30105563
   0.44444445  0.77777779  0.30105563
   0.77777785  0.77777779  0.30105563
   0.88877996  0.22244009  0.39500285
   0.22298302  0.22298301  0.39446393
   0.55403401  0.22298301  0.39446393
   0.88674228  0.55662889  0.39459436
   0.22298298  0.55403401  0.39446393
   0.55662889  0.55662889  0.39459436
   0.88877996  0.88877996  0.39500285
   0.22244012  0.88877996  0.39500285
   0.55662883  0.88674228  0.39459436
   0.00000000  0.00000000  0.48899005
   0.33399461  0.01063907  0.49089424
   0.65536635  0.01063907  0.49089424
   0.01063907  0.33399461  0.49089424
   0.65536635  0.33399461  0.49089424
   0.01063907  0.65536635  0.49089424
   0.33399461  0.65536635  0.49089424
   0.66666663  0.66666669  0.49006847
   0.33333331  0.33333334  0.47834557
   0.26735762  0.33888702  0.63751985
   0.39375533  0.33888702  0.63751985
 
 position of ions in cartesian coordinates  (Angst):
   0.00000000  0.00000000  5.28037993
   2.93783769  0.00000000  5.28037993
   5.87567538  0.00000000  5.28037993
   1.46891901  2.54424197  5.28037993
   4.40675643  2.54424197  5.28037993
   7.34459439  2.54424197  5.28037993
   2.93783803  5.08848395  5.28037993
   5.87567571  5.08848395  5.28037993
   8.81351288  5.08848395  5.28037993
   1.46891893  0.84808064  7.67911405
   4.40675623  0.84808064  7.67911405
   7.34459418  0.84808064  7.67911405
   2.93783798  3.39232256  7.67911405
   5.87567574  3.39232256  7.67911405
   8.81351263  3.39232256  7.67911405
   4.40675667  5.93656453  7.67911405
   7.34459449  5.93656453  7.67911405
  10.28243270  5.93656453  7.67911405
   8.81351299  1.69782418 10.07545314
   2.94789566  1.70196815 10.06170683
   5.86561776  1.70196815 10.06170683
  10.26824266  4.24859562 10.06503371
   4.40675655  4.22878963 10.06170683
   7.35878404  4.24859562 10.06503371
  11.74991083  6.78381366 10.07545314
   5.87711608  6.78381366 10.07545314
   8.81351299  6.76826059 10.06503371
   0.00000000  0.00000000 12.47281226
   2.99054955  0.08120511 12.52138294
   5.82296353  0.08120511 12.52138294
   1.56560063  2.54928922 12.52138294
   7.24791277  2.54928922 12.52138294
   2.98180778  5.00223159 12.52138294
   5.83170595  5.00223159 12.52138294
   8.81351288  5.08848395 12.50031969
   4.40675643  2.54424197 12.20130049
   3.84975254  2.58663168 16.26140524
   4.96376033  2.58663168 16.26140524
 


--------------------------------------------------------------------------------------------------------


 k-point   1 :   0.0000 0.0000 0.0000  plane waves:   43455
 k-point   2 :   0.1250 0.0000 0.0000  plane waves:   43518
 k-point   3 :   0.0000 0.1250 0.0000  plane waves:   43518
 k-point   4 :   0.2500 0.0000 0.0000  plane waves:   43538
 k-point   5 :   0.0000 0.2500 0.0000  plane waves:   43538
 k-point   6 :   0.3750-0.0000 0.0000  plane waves:   43582
 k-point   7 :   0.0000 0.3750 0.0000  plane waves:   43582
 k-point   8 :   0.5000 0.0000 0.0000  plane waves:   43612
 k-point   9 :   0.0000 0.5000 0.0000  plane waves:   43612
 k-point  10 :   0.2500 0.1250 0.0000  plane waves:   43534
 k-point  11 :   0.1250 0.2500 0.0000  plane waves:   43534
 k-point  12 :   0.3750 0.1250 0.0000  plane waves:   43580
 k-point  13 :   0.2500 0.3750 0.0000  plane waves:   43580
 k-point  14 :  -0.1250 0.2500 0.0000  plane waves:   43580
 k-point  15 :   0.5000 0.1250 0.0000  plane waves:   43596
 k-point  16 :   0.3750 0.5000 0.0000  plane waves:   43596
 k-point  17 :  -0.1250 0.3750 0.0000  plane waves:   43596
 k-point  18 :   0.5000 0.2500 0.0000  plane waves:   43590
 k-point  19 :   0.2500 0.5000 0.0000  plane waves:   43590
 k-point  20 :  -0.3750 0.2500 0.0000  plane waves:   43600
 k-point  21 :  -0.2500 0.3750 0.0000  plane waves:   43600

 maximum and minimum number of plane-waves per node :     43612    43455

 maximum number of plane-waves:     43612
 maximum index in each direction: 
   IXMAX=   16   IYMAX=   16   IZMAX=   46
   IXMIN=  -16   IYMIN=  -16   IZMIN=  -46


 serial   3D FFT for wavefunctions
 parallel 3D FFT for charge:
    minimum data exchange during FFTs selected (reduces bandwidth)


 total amount of memory used by VASP MPI-rank0   297894. kBytes
=======================================================================

   base      :      30000. kBytes
   nonlr-proj:      14022. kBytes
   fftplans  :       6755. kBytes
   grid      :      23316. kBytes
   one-center:        590. kBytes
   wavefun   :     223211. kBytes
 
     INWAV:  cpu time    0.0000: real time    0.0000
 initial charge density was supplied:
 number of electron     400.0000136 magnetization 
 keeping initial charge density in first step


--------------------------------------------------------------------------------------------------------


 Maximum index for non-local projection operator         2915
 Maximum index for augmentation-charges          764 (set IRDMAX)


--------------------------------------------------------------------------------------------------------


 First call to EWALD:  gamma=   0.148
 Maximum number of real-space cells 4x 4x 2
 Maximum number of reciprocal cells 2x 2x 5

    FEWALD:  cpu time    0.0014: real time    0.0014


--------------------------------------- Iteration      1(   1)  ---------------------------------------


    POTLOK:  cpu time    0.0646: real time    0.0648
    SETDIJ:  cpu time    0.0062: real time    0.0062
     EDDAV:  cpu time   20.4660: real time   20.4676
 BZINTS: Fermi energy:   11.378929;  400.000000 electrons
         Band energy: 0.141251E+04;  BLOECHL correction:   -0.023089
       DOS:  cpu time    0.0287: real time    0.0287
    --------------------------------------------
      LOOP:  cpu time   20.5656: real time   20.5674

 eigenvalue-minimisations  : 10080
 total energy-change (2. order) : 0.2820547E+04  (-0.1754578E+05)
 number of electron     400.0000136 magnetization 
 augmentation part      400.0000136 magnetization 

 Free energy of the ion-electron system (eV)
  ---------------------------------------------------
  alpha Z        PSCENC =       888.45552487
  Ewald energy   TEWEN  =    139195.78252122
  -Hartree energ DENC   =   -173073.46357267
  -exchange      EXHF   =         0.00000000
  -V(xc)+E(xc)   XCENC  =       510.06561729
  PAW double counting   =     36342.32121555   -35567.94543570
  entropy T*S    EENTRO =         0.00000000
  eigenvalues    EBANDS =      1412.50734889
  atomic energy  EATOM  =     33112.82353621
  Solvation  Ediel_sol  =         0.00000000
  ---------------------------------------------------
  free energy    TOTEN  =      2820.54675565 eV

  energy without entropy =     2820.54675565  energy(sigma->0) =     2820.54675565


--------------------------------------------------------------------------------------------------------




--------------------------------------- Iteration      1(   2)  ---------------------------------------


     EDDAV:  cpu time   21.9249: real time   21.9261
 BZINTS: Fermi energy:    1.500493;  400.000000 electrons
         Band energy:-0.132002E+04;  BLOECHL correction:   -0.128347
       DOS:  cpu time    0.0264: real time    0.0264
    --------------------------------------------
      LOOP:  cpu time   21.9514: real time   21.9526

 eigenvalue-minimisations  : 11040
 total energy-change (2. order) :-0.2732525E+04  (-0.2523986E+04)
 number of electron     400.0000136 magnetization 
 augmentation part      400.0000136 magnetization 

 Free energy of the ion-electron system (eV)
  ---------------------------------------------------
  alpha Z        PSCENC =       888.45552487
  Ewald energy   TEWEN  =    139195.78252122
  -Hartree energ DENC   =   -173073.46357267
  -exchange      EXHF   =         0.00000000
  -V(xc)+E(xc)   XCENC  =       510.06561729
  PAW double counting   =     36342.32121555   -35567.94543570
  entropy T*S    EENTRO =         0.00000000
  eigenvalues    EBANDS =     -1320.01748273
  atomic energy  EATOM  =     33112.82353621
  Solvation  Ediel_sol  =         0.00000000
  ---------------------------------------------------
  free energy    TOTEN  =        88.02192404 eV

  energy without entropy =       88.02192404  energy(sigma->0) =       88.02192404


--------------------------------------------------------------------------------------------------------




--------------------------------------- Iteration      1(   3)  ---------------------------------------


     EDDAV:  cpu time   23.4838: real time   23.4849
 BZINTS: Fermi energy:    0.082342;  400.000000 electrons
         Band energy:-0.153121E+04;  BLOECHL correction:   -0.027633
       DOS:  cpu time    0.0273: real time    0.0273
    --------------------------------------------
      LOOP:  cpu time   23.5110: real time   23.5121

 eigenvalue-minimisations  : 12048
 total energy-change (2. order) :-0.2111927E+03  (-0.2007156E+03)
 number of electron     400.0000136 magnetization 
 augmentation part      400.0000136 magnetization 

 Free energy of the ion-electron system (eV)
  ---------------------------------------------------
  alpha Z        PSCENC =       888.45552487
  Ewald energy   TEWEN  =    139195.78252122
  -Hartree energ DENC   =   -173073.46357267
  -exchange      EXHF   =         0.00000000
  -V(xc)+E(xc)   XCENC  =       510.06561729
  PAW double counting   =     36342.32121555   -35567.94543570
  entropy T*S    EENTRO =         0.00000000
  eigenvalues    EBANDS =     -1531.21018410
  atomic energy  EATOM  =     33112.82353621
  Solvation  Ediel_sol  =         0.00000000
  ---------------------------------------------------
  free energy    TOTEN  =      -123.17077733 eV

  energy without entropy =     -123.17077733  energy(sigma->0) =     -123.17077733


--------------------------------------------------------------------------------------------------------




--------------------------------------- Iteration      1(   4)  ---------------------------------------


     EDDAV:  cpu time   23.0400: real time   23.0411
 BZINTS: Fermi energy:    0.031702;  400.000000 electrons
         Band energy:-0.153876E+04;  BLOECHL correction:   -0.025510
       DOS:  cpu time    0.0266: real time    0.0266
    --------------------------------------------
      LOOP:  cpu time   23.0666: real time   23.0677

 eigenvalue-minimisations  : 11760
 total energy-change (2. order) :-0.7548399E+01  (-0.7436935E+01)
 number of electron     400.0000136 magnetization 
 augmentation part      400.0000136 magnetization 

 Free energy of the ion-electron system (eV)
  ---------------------------------------------------
  alpha Z        PSCENC =       888.45552487
  Ewald energy   TEWEN  =    139195.78252122
  -Hartree energ DENC   =   -173073.46357267
  -exchange      EXHF   =         0.00000000
  -V(xc)+E(xc)   XCENC  =       510.06561729
  PAW double counting   =     36342.32121555   -35567.94543570
  entropy T*S    EENTRO =         0.00000000
  eigenvalues    EBANDS =     -1538.75858287
  atomic energy  EATOM  =     33112.82353621
  Solvation  Ediel_sol  =         0.00000000
  ---------------------------------------------------
  free energy    TOTEN  =      -130.71917611 eV

  energy without entropy =     -130.71917611  energy(sigma->0) =     -130.71917611


--------------------------------------------------------------------------------------------------------




--------------------------------------- Iteration      1(   5)  ---------------------------------------


     EDDAV:  cpu time   24.2606: real time   24.2617
 BZINTS: Fermi energy:    0.029776;  400.000000 electrons
         Band energy:-0.153904E+04;  BLOECHL correction:   -0.025387
       DOS:  cpu time    0.0275: real time    0.0275
    --------------------------------------------
      LOOP:  cpu time   24.2881: real time   24.2892

 eigenvalue-minimisations  : 12544
 total energy-change (2. order) :-0.2771509E+00  (-0.2766423E+00)
 number of electron     400.0000136 magnetization 
 augmentation part      400.0000136 magnetization 

 Free energy of the ion-electron system (eV)
  ---------------------------------------------------
  alpha Z        PSCENC =       888.45552487
  Ewald energy   TEWEN  =    139195.78252122
  -Hartree energ DENC   =   -173073.46357267
  -exchange      EXHF   =         0.00000000
  -V(xc)+E(xc)   XCENC  =       510.06561729
  PAW double counting   =     36342.32121555   -35567.94543570
  entropy T*S    EENTRO =         0.00000000
  eigenvalues    EBANDS =     -1539.03573379
  atomic energy  EATOM  =     33112.82353621
  Solvation  Ediel_sol  =         0.00000000
  ---------------------------------------------------
  free energy    TOTEN  =      -130.99632702 eV

  energy without entropy =     -130.99632702  energy(sigma->0) =     -130.99632702


--------------------------------------------------------------------------------------------------------




--------------------------------------- Iteration      1(   6)  ---------------------------------------


    EDDIAG:  cpu time    3.8051: real time    3.8054
  RMM-DIIS:  cpu time   10.8711: real time   10.8716
    ORTHCH:  cpu time    0.8462: real time    0.8462
 BZINTS: Fermi energy:    0.029761;  400.000000 electrons
         Band energy:-0.153904E+04;  BLOECHL correction:   -0.025389
       DOS:  cpu time    0.0282: real time    0.0282
    --------------------------------------------
      LOOP:  cpu time   15.5505: real time   15.5513

 eigenvalue-minimisations  : 10465
 total energy-change (2. order) :-0.7453265E-02  (-0.7452645E-02)
 number of electron     400.0000136 magnetization 
 augmentation part      400.0000136 magnetization 

 Free energy of the ion-electron system (eV)
  ---------------------------------------------------
  alpha Z        PSCENC =       888.45552487
  Ewald energy   TEWEN  =    139195.78252122
  -Hartree energ DENC   =   -173073.46357267
  -exchange      EXHF   =         0.00000000
  -V(xc)+E(xc)   XCENC  =       510.06561729
  PAW double counting   =     36342.32121555   -35567.94543570
  entropy T*S    EENTRO =         0.00000000
  eigenvalues    EBANDS =     -1539.04318705
  atomic energy  EATOM  =     33112.82353621
  Solvation  Ediel_sol  =         0.00000000
  ---------------------------------------------------
  free energy    TOTEN  =      -131.00378029 eV

  energy without entropy =     -131.00378029  energy(sigma->0) =     -131.00378029


--------------------------------------------------------------------------------------------------------




--------------------------------------- Iteration      1(   7)  ---------------------------------------


    EDDIAG:  cpu time    3.8022: real time    3.8025
  RMM-DIIS:  cpu time   15.3094: real time   15.3101
    ORTHCH:  cpu time    0.8463: real time    0.8463
 BZINTS: Fermi energy:    0.029755;  400.000000 electrons
         Band energy:-0.153905E+04;  BLOECHL correction:   -0.025390
       DOS:  cpu time    0.0282: real time    0.0282
    --------------------------------------------
      LOOP:  cpu time   19.9861: real time   19.9870

 eigenvalue-minimisations  : 15121
 total energy-change (2. order) :-0.4612126E-02  (-0.4452662E-02)
 number of electron     400.0000136 magnetization 
 augmentation part      400.0000136 magnetization 

 Free energy of the ion-electron system (eV)
  ---------------------------------------------------
  alpha Z        PSCENC =       888.45552487
  Ewald energy   TEWEN  =    139195.78252122
  -Hartree energ DENC   =   -173073.46357267
  -exchange      EXHF   =         0.00000000
  -V(xc)+E(xc)   XCENC  =       510.06561729
  PAW double counting   =     36342.32121555   -35567.94543570
  entropy T*S    EENTRO =         0.00000000
  eigenvalues    EBANDS =     -1539.04779918
  atomic energy  EATOM  =     33112.82353621
  Solvation  Ediel_sol  =         0.00000000
  ---------------------------------------------------
  free energy    TOTEN  =      -131.00839241 eV

  energy without entropy =     -131.00839241  energy(sigma->0) =     -131.00839241


--------------------------------------------------------------------------------------------------------




--------------------------------------- Iteration      1(   8)  ---------------------------------------


    EDDIAG:  cpu time    3.8037: real time    3.8040
  RMM-DIIS:  cpu time   15.0874: real time   15.0881
    ORTHCH:  cpu time    0.8459: real time    0.8459
 BZINTS: Fermi energy:    0.029755;  400.000000 electrons
         Band energy:-0.153905E+04;  BLOECHL correction:   -0.025391
       DOS:  cpu time    0.0264: real time    0.0264
    --------------------------------------------
      LOOP:  cpu time   19.7634: real time   19.7643

 eigenvalue-minimisations  : 14706
 total energy-change (2. order) :-0.5862662E-03  (-0.5772967E-03)
 number of electron     400.0000136 magnetization 
 augmentation part      400.0000136 magnetization 

 Free energy of the ion-electron system (eV)
  ---------------------------------------------------
  alpha Z        PSCENC =       888.45552487
  Ewald energy   TEWEN  =    139195.78252122
  -Hartree energ DENC   =   -173073.46357267
  -exchange      EXHF   =         0.00000000
  -V(xc)+E(xc)   XCENC  =       510.06561729
  PAW double counting   =     36342.32121555   -35567.94543570
  entropy T*S    EENTRO =         0.00000000
  eigenvalues    EBANDS =     -1539.04838544
  atomic energy  EATOM  =     33112.82353621
  Solvation  Ediel_sol  =         0.00000000
  ---------------------------------------------------
  free energy    TOTEN  =      -131.00897868 eV

  energy without entropy =     -131.00897868  energy(sigma->0) =     -131.00897868


--------------------------------------------------------------------------------------------------------




--------------------------------------- Iteration      1(   9)  ---------------------------------------


    EDDIAG:  cpu time    3.8012: real time    3.8014
  RMM-DIIS:  cpu time   14.1752: real time   14.1758
    ORTHCH:  cpu time    0.8459: real time    0.8460
 BZINTS: Fermi energy:    0.029755;  400.000000 electrons
         Band energy:-0.153905E+04;  BLOECHL correction:   -0.025391
       DOS:  cpu time    0.0282: real time    0.0282
    --------------------------------------------
      LOOP:  cpu time   18.8504: real time   18.8514

 eigenvalue-minimisations  : 13621
 total energy-change (2. order) :-0.1008055E-03  (-0.1000154E-03)
 number of electron     400.0000136 magnetization 
 augmentation part      400.0000136 magnetization 

 Free energy of the ion-electron system (eV)
  ---------------------------------------------------
  alpha Z        PSCENC =       888.45552487
  Ewald energy   TEWEN  =    139195.78252122
  -Hartree energ DENC   =   -173073.46357267
  -exchange      EXHF   =         0.00000000
  -V(xc)+E(xc)   XCENC  =       510.06561729
  PAW double counting   =     36342.32121555   -35567.94543570
  entropy T*S    EENTRO =         0.00000000
  eigenvalues    EBANDS =     -1539.04848625
  atomic energy  EATOM  =     33112.82353621
  Solvation  Ediel_sol  =         0.00000000
  ---------------------------------------------------
  free energy    TOTEN  =      -131.00907948 eV

  energy without entropy =     -131.00907948  energy(sigma->0) =     -131.00907948


--------------------------------------------------------------------------------------------------------




--------------------------------------- Iteration      1(  10)  ---------------------------------------


    EDDIAG:  cpu time    3.8024: real time    3.8058
  RMM-DIIS:  cpu time   10.9129: real time   10.9133
    ORTHCH:  cpu time    0.8461: real time    0.8462
 BZINTS: Fermi energy:    0.029755;  400.000000 electrons
         Band energy:-0.153905E+04;  BLOECHL correction:   -0.025391
       DOS:  cpu time    0.0288: real time    0.0288
    --------------------------------------------
      LOOP:  cpu time   15.5901: real time   15.5941

 eigenvalue-minimisations  :  9946
 total energy-change (2. order) :-0.1562017E-04  (-0.1561758E-04)
 number of electron     400.0000136 magnetization 
 augmentation part      400.0000136 magnetization 

 Free energy of the ion-electron system (eV)
  ---------------------------------------------------
  alpha Z        PSCENC =       888.45552487
  Ewald energy   TEWEN  =    139195.78252122
  -Hartree energ DENC   =   -173073.46357267
  -exchange      EXHF   =         0.00000000
  -V(xc)+E(xc)   XCENC  =       510.06561729
  PAW double counting   =     36342.32121555   -35567.94543570
  entropy T*S    EENTRO =         0.00000000
  eigenvalues    EBANDS =     -1539.04850187
  atomic energy  EATOM  =     33112.82353621
  Solvation  Ediel_sol  =         0.00000000
  ---------------------------------------------------
  free energy    TOTEN  =      -131.00909510 eV

  energy without entropy =     -131.00909510  energy(sigma->0) =     -131.00909510


--------------------------------------------------------------------------------------------------------




--------------------------------------- Iteration      1(  11)  ---------------------------------------


    EDDIAG:  cpu time    3.8029: real time    3.8031
  RMM-DIIS:  cpu time    8.5565: real time    8.5572
    ORTHCH:  cpu time    0.8463: real time    0.8463
 BZINTS: Fermi energy:    0.029755;  400.000000 electrons
         Band energy:-0.153905E+04;  BLOECHL correction:   -0.025391
       DOS:  cpu time    0.0282: real time    0.0282
    --------------------------------------------
      LOOP:  cpu time   13.2339: real time   13.2348

 eigenvalue-minimisations  :  7315
 total energy-change (2. order) :-0.3166730E-05  (-0.3190983E-05)
 number of electron     400.0000136 magnetization 
 augmentation part      400.0000136 magnetization 

 Free energy of the ion-electron system (eV)
  ---------------------------------------------------
  alpha Z        PSCENC =       888.45552487
  Ewald energy   TEWEN  =    139195.78252122
  -Hartree energ DENC   =   -173073.46357267
  -exchange      EXHF   =         0.00000000
  -V(xc)+E(xc)   XCENC  =       510.06561729
  PAW double counting   =     36342.32121555   -35567.94543570
  entropy T*S    EENTRO =         0.00000000
  eigenvalues    EBANDS =     -1539.04850504
  atomic energy  EATOM  =     33112.82353621
  Solvation  Ediel_sol  =         0.00000000
  ---------------------------------------------------
  free energy    TOTEN  =      -131.00909827 eV

  energy without entropy =     -131.00909827  energy(sigma->0) =     -131.00909827


--------------------------------------------------------------------------------------------------------




 average (electrostatic) potential at core
  the test charge radii are     1.2098  1.2064  0.7089
  (the norm of the test charge is              1.0000)
       1 -73.0107       2 -72.9962       3 -72.9961       4 -72.9963       5 -72.9982
       6 -72.9960       7 -72.9960       8 -72.9958       9 -72.9919      10 -73.3511
      11 -73.3071      12 -73.3509      13 -73.3071      14 -73.3068      15 -73.3309
      16 -73.3508      17 -73.3306      18 -73.3307      19 -73.2929      20 -73.5425
      21 -73.5423      22 -73.2909      23 -73.5423      24 -73.2907      25 -73.2927
      26 -73.2926      27 -73.2905      28 -72.9972      29 -73.0980      30 -73.0980
      31 -73.0955      32 -73.0954      33 -73.0980      34 -73.0979      35 -72.9774
      36 -46.6726      37 -71.0798      38 -71.0798
 
 
 
 E-fermi :   0.0298     XC(G=0):  -5.5111     alpha+bet : -5.0641

 Fermi energy:         0.0297546049

 k-point     1 :       0.0000    0.0000    0.0000
  band No.  band energies     occupation 
      1     -23.0928      2.00000
      2      -8.7825      2.00000
      3      -8.4487      2.00000
      4      -7.6074      2.00000
      5      -6.6614      2.00000
      6      -6.6435      2.00000
      7      -6.6383      2.00000
      8      -6.6383      2.00000
      9      -6.6149      2.00000
     10      -6.5910      2.00000
     11      -6.5909      2.00000
     12      -6.5604      2.00000
     13      -6.4719      2.00000
     14      -6.4455      2.00000
     15      -6.1637      2.00000
     16      -6.1612      2.00000
     17      -6.1611      2.00000
     18      -6.1201      2.00000
     19      -6.1001      2.00000
     20      -6.1000      2.00000
     21      -5.7792      2.00000
     22      -5.7791      2.00000
     23      -5.7670      2.00000
     24      -5.7565      2.00000
     25      -5.7223      2.00000
     26      -5.7222      2.00000
     27      -5.5977      2.00000
     28      -5.5905      2.00000
     29      -5.5903      2.00000
     30      -5.5805      2.00000
     31      -5.5637      2.00000
     32      -5.5636      2.00000
     33      -5.4409      2.00000
     34      -5.4220      2.00000
     35      -5.4220      2.00000
     36      -5.4130      2.00000
     37      -5.4129      2.00000
     38      -5.4034      2.00000
     39      -5.4033      2.00000
     40      -5.3929      2.00000
     41      -5.3690      2.00000
     42      -5.3233      2.00000
     43      -5.2997      2.00000
     44      -5.2997      2.00000
     45      -5.0776      2.00000
     46      -4.9162      2.00000
     47      -4.9162      2.00000
     48      -4.9062      2.00000
     49      -4.8810      2.00000
     50      -4.8810      2.00000
     51      -4.8640      2.00000
     52      -4.8550      2.00000
     53      -4.8548      2.00000
     54      -4.8099      2.00000
     55      -4.8098      2.00000
     56      -4.7511      2.00000
     57      -4.7428      2.00000
     58      -4.7066      2.00000
     59      -4.6682      2.00000
     60      -4.3868      2.00000
     61      -4.3448      2.00000
     62      -4.3447      2.00000
     63      -4.3444      2.00000
     64      -4.3245      2.00000
     65      -4.3228      2.00000
     66      -4.3227      2.00000
     67      -4.2626      2.00000
     68      -4.2626      2.00000
     69      -4.2030      2.00000
     70      -4.2030      2.00000
     71      -4.1818      2.00000
     72      -4.1670      2.00000
     73      -4.1670      2.00000
     74      -4.1439      2.00000
     75      -4.1281      2.00000
     76      -4.1280      2.00000
     77      -4.0868      2.00000
     78      -4.0699      2.00000
     79      -4.0698      2.00000
     80      -4.0676      2.00000
     81      -4.0563      2.00000
     82      -4.0563      2.00000
     83      -4.0542      2.00000
     84      -4.0541      2.00000
     85      -4.0010      2.00000
     86      -4.0008      2.00000
     87      -3.9805      2.00000
     88      -3.9537      2.00000
     89      -3.9537      2.00000
     90      -3.9154      2.00000
     91      -3.9154      2.00000
     92      -3.9121      2.00000
     93      -3.8895      2.00000
     94      -3.8353      2.00000
     95      -3.8352      2.00000
     96      -3.7807      2.00000
     97      -3.7806      2.00000
     98      -3.7004      2.00000
     99      -3.6998      2.00000
    100      -3.6398      2.00000
    101      -3.6398      2.00000
    102      -3.6310      2.00000
    103      -3.6310      2.00000
    104      -3.5033      2.00000
    105      -3.4794      2.00000
    106      -3.4787      2.00000
    107      -3.4417      2.00000
    108      -3.4412      2.00000
    109      -3.4409      2.00000
    110      -3.3017      2.00000
    111      -3.3015      2.00000
    112      -3.2940      2.00000
    113      -3.2878      2.00000
    114      -3.2449      2.00000
    115      -3.2448      2.00000
    116      -3.1838      2.00000
    117      -3.1818      2.00000
    118      -3.1818      2.00000
    119      -3.1476      2.00000
    120      -3.1413      2.00000
    121      -3.0187      2.00000
    122      -3.0187      2.00000
    123      -3.0107      2.00000
    124      -2.9608      2.00000
    125      -2.9608      2.00000
    126      -2.9419      2.00000
    127      -2.9123      2.00000
    128      -2.9123      2.00000
    129      -2.8805      2.00000
    130      -2.8804      2.00000
    131      -2.8640      2.00000
    132      -2.8640      2.00000
    133      -2.7380      2.00000
    134      -2.7379      2.00000
    135      -2.7224      2.00000
    136      -2.7138      2.00000
    137      -2.7137      2.00000
    138      -2.7063      2.00000
    139      -2.6893      2.00000
    140      -2.6891      2.00000
    141      -2.6854      2.00000
    142      -2.6674      2.00000
    143      -2.6673      2.00000
    144      -2.5603      2.00000
    145      -2.5602      2.00000
    146      -2.5552      2.00000
    147      -2.4834      2.00000
    148      -2.4830      2.00000
    149      -2.4829      2.00000
    150      -2.4592      2.00000
    151      -2.4591      2.00000
    152      -2.4279      2.00000
    153      -2.4251      2.00000
    154      -2.4247      2.00000
    155      -2.4034      2.00000
    156      -2.3742      2.00000
    157      -2.3732      2.00000
    158      -2.3731      2.00000
    159      -2.3276      2.00000
    160      -2.3048      2.00000
    161      -2.3047      2.00000
    162      -2.2831      2.00000
    163      -2.2651      2.00000
    164      -2.2577      2.00000
    165      -2.2576      2.00000
    166      -2.2196      2.00000
    167      -2.2192      2.00000
    168      -2.2152      2.00000
    169      -2.1988      2.00000
    170      -2.1986      2.00000
    171      -2.1882      2.00000
    172      -2.1876      2.00000
    173      -2.1778      2.00000
    174      -2.1613      2.00000
    175      -2.1345      2.00000
    176      -2.1344      2.00000
    177      -2.1209      2.00000
    178      -2.1136      2.00000
    179      -2.1095      2.00000
    180      -2.1095      2.00000
    181      -2.0968      2.00000
    182      -2.0737      2.00000
    183      -2.0625      2.00000
    184      -2.0625      2.00000
    185      -2.0225      2.00000
    186      -2.0225      2.00000
    187      -2.0215      2.00000
    188      -1.9604      2.00000
    189      -1.9603      2.00000
    190      -1.8587      2.00000
    191      -1.8586      2.00000
    192      -1.8463      2.00000
    193      -1.8242      2.00000
    194      -1.8241      2.00000
    195      -1.8070      2.00000
    196      -1.0309      2.00000
    197      -0.7023      2.00000
    198      -0.7016      2.00000
    199      -0.6587      2.00000
    200      -0.5725      2.00000
    201      -0.5713      2.00000
    202      -0.5257      2.00000
    203       0.0876      0.00000
    204       0.0879      0.00000
    205       0.2529      0.00000
    206       0.2529      0.00000
    207       0.3685      0.00000
    208       0.4807      0.00000
    209       1.5643      0.00000
    210       1.6042      0.00000
    211       1.6082      0.00000
    212       1.7590      0.00000
    213       1.7804      0.00000
    214       1.7843      0.00000
    215       2.8141      0.00000
    216       2.8147      0.00000
    217       2.8368      0.00000
    218       2.8424      0.00000
    219       2.8508      0.00000
    220       2.9290      0.00000
    221       2.9430      0.00000
    222       3.0051      0.00000
    223       3.4114      0.00000
    224       3.8979      0.00000
    225       4.5526      0.00000
    226       4.5933      0.00000
    227       4.6388      0.00000
    228       4.6705      0.00000
    229       4.6986      0.00000
    230       4.7156      0.00000
    231       4.7716      0.00000
    232       4.7805      0.00000
    233       4.7923      0.00000
    234       4.8085      0.00000
    235       4.8090      0.00000
    236       4.9166      0.00000
    237       5.4673      0.00000
    238       5.5575      0.00000
    239       5.7256      0.00000
    240       5.8097      0.00000

 k-point     2 :       0.1250    0.0000    0.0000
  band No.  band energies     occupation 
      1     -23.0928      2.00000
      2      -8.7315      2.00000
      3      -8.4488      2.00000
      4      -7.5574      2.00000
      5      -6.8747      2.00000
      6      -6.6998      2.00000
[...]
  0.000   0.000   0.000   0.000   0.000   0.000   0.000   0.000   0.000   0.000   0.000   0.000   0.000   0.000   0.000   0.000
  0.000   0.000   0.000   0.000   0.000   0.000   0.000   0.000   0.000   0.000   0.000   0.000   0.000   0.000   0.000   0.000
  0.000   0.000   0.000   0.000   0.000   0.000   0.000   0.000   0.000   0.000   1.000   0.000   0.000   0.000   0.000   0.000
  0.000   0.000   0.000   0.000   0.000   0.000   0.000   0.000   0.000   0.000   0.000   0.000   0.000   0.000   0.000   0.000
  0.000   0.000   0.000   0.000   0.000   0.000   0.000   0.000   0.000   0.000   0.000   0.000   0.000   0.000   0.000   0.000
  0.000   0.000   0.000   0.000   0.000   0.000   0.000   0.000   0.000   0.000   0.000   0.000   0.000   0.000   0.000   0.000
  0.000   0.000   0.000   0.000   0.000   0.000   0.000   0.000   0.000   0.000   0.000   0.000   0.000   0.000   0.000   0.000
  0.000   0.000   0.000   0.000   0.000   0.000   0.000   0.000   0.000   0.000   0.000   0.000   0.000   0.000   0.000   0.000
  0.000   0.000   0.000   0.000   0.000   0.000   0.000   0.000   0.000   0.000   0.000   0.000   0.000   0.000   0.000   0.000
  0.000   0.000   0.000   0.000   0.000   0.000   0.000   0.000   0.000   0.000   0.000   0.000   0.000   0.000   0.000   0.000


------------------------ aborting loop because EDIFF is reached ----------------------------------------





 total charge

# of ion       s       p       d       tot
------------------------------------------
    1        0.548   0.238   8.766   9.551
    2        0.542   0.241   8.765   9.548
    3        0.542   0.241   8.765   9.548
    4        0.542   0.241   8.765   9.548
    5        0.546   0.241   8.762   9.548
    6        0.542   0.241   8.765   9.548
    7        0.542   0.241   8.765   9.548
    8        0.542   0.241   8.765   9.548
    9        0.544   0.239   8.767   9.550
   10        0.526   0.307   8.768   9.601
   11        0.520   0.307   8.781   9.607
   12        0.526   0.307   8.768   9.601
   13        0.520   0.307   8.781   9.607
   14        0.520   0.307   8.781   9.607
   15        0.517   0.308   8.775   9.600
   16        0.526   0.307   8.768   9.601
   17        0.517   0.308   8.775   9.601
   18        0.517   0.308   8.775   9.601
   19        0.518   0.298   8.772   9.588
   20        0.562   0.335   8.734   9.631
   21        0.562   0.335   8.734   9.631
   22        0.509   0.306   8.778   9.594
   23        0.562   0.335   8.734   9.631
   24        0.509   0.306   8.778   9.594
   25        0.518   0.298   8.772   9.588
   26        0.518   0.298   8.772   9.588
   27        0.509   0.306   8.778   9.594
   28        0.539   0.227   8.755   9.521
   29        0.579   0.242   8.736   9.557
   30        0.579   0.242   8.736   9.557
   31        0.578   0.242   8.737   9.557
   32        0.578   0.242   8.737   9.557
   33        0.579   0.242   8.736   9.557
   34        0.579   0.242   8.736   9.557
   35        0.538   0.226   8.758   9.522
   36        0.390   0.391   3.164   3.945
   37        1.373   2.468   0.000   3.841
   38        1.373   2.468   0.000   3.841
--------------------------------------------------
tot         22.031  14.981 309.804 346.817
 
    CHARGE:  cpu time    0.9128: real time    0.9129
    FORLOC:  cpu time    0.0197: real time    0.0197
    FORNL :  cpu time    4.0083: real time    4.0086
    STRESS:  cpu time   12.0516: real time   12.0522
    FORCOR:  cpu time    0.0746: real time    0.0746
    FORHAR:  cpu time    0.0301: real time    0.0301
    OFIELD:  cpu time    0.0004: real time    0.0004

  FORCE on cell =-STRESS in cart. coord.  units (eV):
  Direction    XX          YY          ZZ          XY          YZ          ZX
  --------------------------------------------------------------------------------------
  Alpha Z   888.45552   888.45552   888.45552
  Ewald  161711.04742161392.14898************    -0.00032    -1.58936    -0.00017
  Hartree169911.08220169799.12024************     0.00001    -1.45038    -0.00005
  E(xc)   -1789.31221 -1790.55252 -1798.20018    -0.00001    -0.00007    -0.00000
  Local  ************************343438.91074     0.00242     3.04990     0.00008
  n-local   -78.47278   -65.91132   -39.00093     4.79304     0.00170     0.16816
  augment  2384.56963  2384.25936  2404.57620    -0.00138    -0.00136     0.00002
  Kinetic  5549.09986  5567.16900  5629.70238     1.19466    -0.01174     0.01473
  Fock        0.00000     0.00000     0.00000     0.00000     0.00000     0.00000
  -------------------------------------------------------------------------------------
  Total     -24.21777   -24.20186     1.35408    -0.00000    -0.00130    -0.00000
  in kB     -22.61266   -22.59780     1.26433    -0.00000    -0.00122    -0.00000
  external pressure =      -14.65 kB  Pullay stress =        0.00 kB


 VOLUME and BASIS-vectors are now :
 -----------------------------------------------------------------------------
  energy-cutoff  :      500.00
  volume of cell :     1715.90
      direct lattice vectors                 reciprocal lattice vectors
     8.813512802  0.000000000  0.000000000     0.113462137 -0.065507406  0.000000000
     4.406756909  7.632725690  0.000000000     0.000000000  0.131014796  0.000000000
     0.000000000  0.000000000 25.507292502     0.000000000  0.000000000  0.039204475

  length of vectors
     8.813512802  8.813512802 25.507292502     0.131014796  0.131014796  0.039204475


 FORCES acting on ions
    electron-ion (+dipol)            ewald-force                    non-local-force                 convergence-correction
 -----------------------------------------------------------------------------------------------
   -.200E-04 0.297E-02 0.271E+04   0.518E-04 -.149E-02 -.271E+04   -.389E-10 -.584E-03 -.679E+00   -.238E-03 -.112E-02 -.259E+00
   0.186E+00 -.352E+00 0.271E+04   -.222E+00 0.213E+00 -.271E+04   0.426E-01 0.111E+00 -.310E+00   -.127E-01 0.181E-01 -.268E+00
   -.186E+00 -.352E+00 0.271E+04   0.222E+00 0.213E+00 -.271E+04   -.426E-01 0.111E+00 -.310E+00   0.130E-01 0.200E-01 -.267E+00
   -.214E+00 0.335E+00 0.271E+04   0.746E-01 -.302E+00 -.271E+04   0.118E+00 -.190E-01 -.313E+00   0.964E-02 -.164E-01 -.267E+00
   0.731E-05 -.529E-02 0.271E+04   0.951E-04 -.189E-02 -.271E+04   -.188E-10 -.282E-03 0.260E-01   0.428E-02 0.771E-02 -.156E+00
   0.214E+00 0.335E+00 0.271E+04   -.747E-01 -.302E+00 -.271E+04   -.118E+00 -.190E-01 -.313E+00   -.112E-01 -.155E-01 -.266E+00
   -.400E+00 0.160E-01 0.271E+04   0.297E+00 0.887E-01 -.271E+04   0.750E-01 -.916E-01 -.310E+00   0.246E-01 -.207E-02 -.265E+00
   0.400E+00 0.160E-01 0.271E+04   -.297E+00 0.887E-01 -.271E+04   -.750E-01 -.916E-01 -.310E+00   -.227E-01 -.317E-02 -.264E+00
   0.197E-04 0.302E-02 0.271E+04   0.166E-03 0.340E-02 -.271E+04   0.459E-10 0.690E-03 -.386E+00   -.458E-02 -.705E-02 -.224E+00
   0.976E+00 0.584E+00 0.904E+03   -.578E+00 -.355E+00 -.904E+03   -.307E+00 -.177E+00 -.638E+00   -.674E-01 -.383E-01 0.149E+00
   0.144E-04 -.300E+00 0.905E+03   0.148E-03 0.296E+00 -.905E+03   -.855E-10 -.128E-02 -.122E+00   0.399E-02 -.344E-01 0.245E+00
   -.976E+00 0.584E+00 0.904E+03   0.578E+00 -.355E+00 -.904E+03   0.307E+00 -.177E+00 -.638E+00   0.659E-01 -.371E-01 0.149E+00
   -.276E+00 0.148E+00 0.905E+03   0.275E+00 -.156E+00 -.905E+03   -.105E-02 0.927E-03 -.123E+00   -.294E-01 0.272E-01 0.243E+00
   0.276E+00 0.148E+00 0.905E+03   -.276E+00 -.156E+00 -.905E+03   0.105E-02 0.927E-03 -.123E+00   0.369E-01 0.264E-01 0.242E+00
   0.322E-04 0.353E+01 0.909E+03   0.235E-03 -.365E+01 -.908E+03   0.972E-09 0.146E-01 -.521E+00   -.228E-02 0.490E-01 0.162E+00
   -.209E-04 -.114E+01 0.904E+03   0.162E-03 0.685E+00 -.904E+03   0.236E-07 0.354E+00 -.636E+00   -.724E-04 0.714E-01 0.148E+00
   0.306E+01 -.178E+01 0.908E+03   -.316E+01 0.184E+01 -.908E+03   0.129E-01 -.786E-02 -.517E+00   0.376E-01 -.291E-01 0.163E+00
   -.306E+01 -.178E+01 0.908E+03   0.316E+01 0.184E+01 -.908E+03   -.129E-01 -.786E-02 -.517E+00   -.373E-01 -.271E-01 0.163E+00
   -.421E-04 -.364E+01 -.916E+03   0.563E-04 0.363E+01 0.915E+03   0.810E-09 0.122E-01 0.517E+00   -.530E-03 0.110E-01 0.829E+00
   -.105E+02 -.589E+01 -.921E+03   0.111E+02 0.624E+01 0.920E+03   -.103E+01 -.593E+00 -.103E+01   0.408E+00 0.237E+00 0.145E+01
   0.105E+02 -.589E+01 -.921E+03   -.111E+02 0.624E+01 0.920E+03   0.103E+01 -.593E+00 -.103E+01   -.407E+00 0.238E+00 0.145E+01
   -.129E+02 0.733E+01 -.907E+03   0.125E+02 -.708E+01 0.906E+03   0.325E+00 -.190E+00 0.554E+00   0.127E+00 -.734E-01 0.860E+00
   -.976E-05 0.120E+02 -.921E+03   0.138E-03 -.127E+02 0.920E+03   0.791E-07 0.119E+01 -.103E+01   0.254E-03 -.470E+00 0.145E+01
   0.129E+02 0.733E+01 -.907E+03   -.125E+02 -.708E+01 0.906E+03   -.325E+00 -.190E+00 0.554E+00   -.127E+00 -.736E-01 0.860E+00
   0.328E+01 0.186E+01 -.917E+03   -.328E+01 -.186E+01 0.915E+03   -.793E-02 -.400E-02 0.511E+00   -.670E-02 -.607E-02 0.828E+00
   -.328E+01 0.186E+01 -.917E+03   0.328E+01 -.186E+01 0.915E+03   0.793E-02 -.400E-02 0.511E+00   0.711E-02 -.664E-02 0.829E+00
   0.100E-04 -.150E+02 -.907E+03   0.198E-03 0.144E+02 0.906E+03   0.250E-07 0.376E+00 0.551E+00   -.361E-03 0.145E+00 0.861E+00
   -.111E-04 0.506E+00 -.262E+04   0.284E-04 -.506E+00 0.262E+04   -.277E-10 -.416E-03 0.540E+00   0.124E-04 -.392E-03 0.557E+00
   0.421E+00 -.670E+01 -.263E+04   0.315E+00 0.775E+01 0.263E+04   -.112E+01 -.172E+01 -.243E+00   0.386E+00 0.675E+00 0.437E+00
   -.421E+00 -.670E+01 -.263E+04   -.315E+00 0.775E+01 0.263E+04   0.112E+01 -.172E+01 -.243E+00   -.386E+00 0.676E+00 0.437E+00
   -.553E+01 0.483E+01 -.263E+04   0.680E+01 -.473E+01 0.263E+04   -.204E+01 -.111E+00 -.204E+00   0.776E+00 -.121E-02 0.436E+00
   0.553E+01 0.483E+01 -.263E+04   -.680E+01 -.473E+01 0.263E+04   0.204E+01 -.111E+00 -.204E+00   -.777E+00 -.421E-03 0.436E+00
   -.676E+01 0.175E+01 -.263E+04   0.731E+01 -.292E+01 0.263E+04   -.929E+00 0.183E+01 -.243E+00   0.392E+00 -.673E+00 0.436E+00
   0.676E+01 0.175E+01 -.263E+04   -.731E+01 -.292E+01 0.263E+04   0.929E+00 0.183E+01 -.243E+00   -.390E+00 -.673E+00 0.436E+00
   0.343E-04 -.103E+01 -.263E+04   0.142E-03 0.103E+01 0.263E+04   0.627E-10 0.942E-03 0.585E+00   -.436E-02 -.582E-02 0.550E+00
   -.272E-04 0.297E+00 -.113E+04   0.526E-04 -.298E+00 0.112E+04   0.607E-10 0.911E-03 0.235E+01   0.728E-03 0.904E-03 0.309E+00
   0.238E+03 0.229E+00 -.108E+04   -.284E+03 -.225E+00 0.108E+04   0.456E+02 -.192E-02 -.137E+00   0.152E-01 -.122E-02 -.173E+00
   -.238E+03 0.229E+00 -.108E+04   0.284E+03 -.225E+00 0.108E+04   -.456E+02 -.192E-02 -.137E+00   -.152E-01 -.121E-02 -.173E+00
 -----------------------------------------------------------------------------------------------
   -.734E-03 -.174E-02 -.750E+01   -.568E-13 0.216E-12 -.102E-10   -.997E-11 -.150E-03 -.481E+01   0.630E-02 0.438E-02 0.125E+02
 
 
 POSITION                                       TOTAL-FORCE (eV/Angst)
 -----------------------------------------------------------------------------------
      0.00000      0.00000      5.28038        -0.000000     -0.000293     -0.140855
      2.93784      0.00000      5.28038        -0.006958     -0.009150     -0.049684
      5.87568      0.00000      5.28038         0.006958     -0.009150     -0.049684
      1.46892      2.54424      5.28038        -0.011044     -0.001564     -0.050030
      4.40676      2.54424      5.28038         0.000000      0.000191     -0.065542
      7.34459      2.54424      5.28038         0.011044     -0.001564     -0.050030
      2.93784      5.08848      5.28038        -0.004289      0.010449     -0.050041
      5.87568      5.08848      5.28038         0.004289      0.010449     -0.050041
      8.81351      5.08848      5.28038        -0.000000     -0.000010     -0.071813
      1.46892      0.84808      7.67911         0.024872      0.014527      0.115534
      4.40676      0.84808      7.67911        -0.000000     -0.039333      0.035780
      7.34459      0.84808      7.67911        -0.024872      0.014527      0.115534
      2.93784      3.39232      7.67911        -0.034327      0.019899      0.035601
      5.87568      3.39232      7.67911         0.034327      0.019899      0.035601
      8.81351      3.39232      7.67911        -0.000000     -0.057324      0.097018
      4.40676      5.93656      7.67911        -0.000000     -0.028952      0.115690
      7.34459      5.93656      7.67911        -0.049651      0.028366      0.097249
     10.28243      5.93656      7.67911         0.049651      0.028366      0.097249
      8.81351      1.69782     10.07545         0.000000      0.016800     -0.006378
      2.94790      1.70197     10.06171        -0.015120     -0.008933     -0.019172
      5.86562      1.70197     10.06171         0.015120     -0.008933     -0.019172
     10.26824      4.24860     10.06503         0.010726     -0.006077      0.010252
      4.40676      4.22879     10.06171         0.000000      0.017322     -0.020435
      7.35878      4.24860     10.06503        -0.010726     -0.006077      0.010252
     11.74991      6.78381     10.07545        -0.014793     -0.008521     -0.007817
      5.87712      6.78381     10.07545         0.014793     -0.008521     -0.007817
      8.81351      6.76826     10.06503         0.000000      0.012116      0.008984
      0.00000      0.00000     12.47281        -0.000000     -0.000416     -0.004470
      2.99055      0.08121     12.52138         0.001416      0.010965     -0.002500
      5.82296      0.08121     12.52138        -0.001416      0.010965     -0.002500
      1.56560      2.54929     12.52138         0.011002     -0.004492     -0.002332
      7.24791      2.54929     12.52138        -0.011002     -0.004492     -0.002332
      2.98181      5.00223     12.52138         0.009147     -0.006688     -0.002839
      5.83171      5.00223     12.52138        -0.009147     -0.006688     -0.002839
      8.81351      5.08848     12.50032         0.000000      0.000231     -0.056631
      4.40676      2.54424     12.20130         0.000000      0.000847     -0.046386
      3.84975      2.58663     16.26141         0.000865      0.000631      0.003297
      4.96376      2.58663     16.26141        -0.000865      0.000631      0.003297
 -----------------------------------------------------------------------------------
    total drift:                                0.005564      0.002493      0.220381


--------------------------------------------------------------------------------------------------------



  FREE ENERGIE OF THE ION-ELECTRON SYSTEM (eV)
  ---------------------------------------------------
  free  energy   TOTEN  =      -131.00909827 eV

  energy  without entropy=     -131.00909827  energy(sigma->0) =     -131.00909827
 


--------------------------------------------------------------------------------------------------------


    POTLOK:  cpu time    0.0642: real time    0.0642


--------------------------------------------------------------------------------------------------------


 stress matrix after NEB project (eV)
    -24.21777     -0.00000     -0.00000
     -0.00000    -24.20186     -0.00130
     -0.00000     -0.00130      1.35408
  FORCES: max atom, RMS     0.003467    0.000795
  FORCE total and by dimension    0.004903    0.003297
  Stress total and by dimension   34.264617   24.217772
     LOOP+:  cpu time  233.5946: real time  233.6143
 -----------------------------------------------------------------------------
|                                                                             |
|           W    W    AA    RRRRR   N    N  II  N    N   GGGG   !!!           |
|           W    W   A  A   R    R  NN   N  II  NN   N  G    G  !!!           |
|           W    W  A    A  R    R  N N  N  II  N N  N  G       !!!           |
|           W WW W  AAAAAA  RRRRR   N  N N  II  N  N N  G  GGG   !            |
|           WW  WW  A    A  R   R   N   NN  II  N   NN  G    G                |
|           W    W  A    A  R    R  N    N  II  N    N   GGGG   !!!           |
|                                                                             |
|     Tetrahedron method does not include variations of the Fermi             |
|     occupations, so forces and stress will be inaccurate. We suggest        |
|     using a different smearing scheme ISMEAR = 1 or 2 for metals in         |
|     relaxations.                                                            |
|                                                                             |
 -----------------------------------------------------------------------------

    4ORBIT:  cpu time    0.0000: real time    0.0000



 total charge

# of ion       s       p       d       tot
------------------------------------------
    1        0.548   0.238   8.766   9.551
    2        0.542   0.241   8.765   9.548
    3        0.542   0.241   8.765   9.548
    4        0.542   0.241   8.765   9.548
    5        0.546   0.241   8.762   9.548
    6        0.542   0.241   8.765   9.548
    7        0.542   0.241   8.765   9.548
    8        0.542   0.241   8.765   9.548
    9        0.544   0.239   8.767   9.550
   10        0.526   0.307   8.768   9.601
   11        0.520   0.307   8.781   9.607
   12        0.526   0.307   8.768   9.601
   13        0.520   0.307   8.781   9.607
   14        0.520   0.307   8.781   9.607
   15        0.517   0.308   8.775   9.600
   16        0.526   0.307   8.768   9.601
   17        0.517   0.308   8.775   9.601
   18        0.517   0.308   8.775   9.601
   19        0.518   0.298   8.772   9.588
   20        0.562   0.335   8.734   9.631
   21        0.562   0.335   8.734   9.631
   22        0.509   0.306   8.778   9.594
   23        0.562   0.335   8.734   9.631
   24        0.509   0.306   8.778   9.594
   25        0.518   0.298   8.772   9.588
   26        0.518   0.298   8.772   9.588
   27        0.509   0.306   8.778   9.594
   28        0.539   0.227   8.755   9.521
   29        0.579   0.242   8.736   9.557
   30        0.579   0.242   8.736   9.557
   31        0.578   0.242   8.737   9.557
   32        0.578   0.242   8.737   9.557
   33        0.579   0.242   8.736   9.557
   34        0.579   0.242   8.736   9.557
   35        0.538   0.226   8.758   9.522
   36        0.390   0.391   3.164   3.945
   37        1.373   2.468   0.000   3.841
   38        1.373   2.468   0.000   3.841
--------------------------------------------------
tot         22.031  14.981 309.804 346.817
 
 BZINTS: Fermi energy:    0.029755;  400.000000 electrons
         Band energy:-0.153905E+04;  BLOECHL correction:   -0.025391

 total amount of memory used by VASP MPI-rank0   297894. kBytes
=======================================================================

   base      :      30000. kBytes
   nonlr-proj:      14022. kBytes
   fftplans  :       6755. kBytes
   grid      :      23316. kBytes
   one-center:        590. kBytes
   wavefun   :     223211. kBytes
 
  
  
 General timing and accounting informations for this job:
 ========================================================
  
                  Total CPU time used (sec):      248.741
                            User time (sec):      240.977
                          System time (sec):        7.763
                         Elapsed time (sec):      249.239
  
                   Maximum memory used (kb):      571856.
                   Average memory used (kb):          N/A
  
                          Minor page faults:       113826
                          Major page faults:            0
                 Voluntary context switches:         5127
