PROCAR new format
# of k-points:   10         # of bands:  252         # of ions:   37

 k-point     1 :    0.00000000 0.00000000 0.00000000     weight = 0.01562500

band     1 # energy  -13.60054067 # occ.  2.00000000
 
ion      s      p      d    tot
    1  0.000  0.000  0.000  0.000
    2  0.000  0.000  0.000  0.000
    3  0.000  0.000  0.000  0.000
    4  0.000  0.000  0.000  0.000
    5  0.000  0.000  0.000  0.000
    6  0.000  0.000  0.000  0.000
    7  0.000  0.000  0.000  0.000
    8  0.000  0.000  0.000  0.000
    9  0.000  0.000  0.000  0.000
   10  0.000  0.000  0.000  0.000
   11  0.000  0.000  0.000  0.000
   12  0.000  0.000  0.000  0.000
   13  0.000  0.000  0.000  0.000
   14  0.000  0.000  0.000  0.000
   15  0.000  0.000  0.000  0.000
   16  0.000  0.000  0.000  0.000
   17  0.000  0.000  0.000  0.000
   18  0.000  0.000  0.000  0.000
   19  0.000  0.000  0.000  0.000
   20  0.000  0.000  0.000  0.000
   21  0.000  0.000  0.000  0.000
   22  0.000  0.000  0.000  0.000
   23  0.000  0.000  0.000  0.000
   24  0.000  0.000  0.000  0.000
   25  0.000  0.000  0.000  0.000
   26  0.000  0.000  0.000  0.000
   27  0.000  0.000  0.000  0.000
   28  0.000  0.000  0.000  0.000
   29  0.000  0.000  0.000  0.000
   30  0.000  0.000  0.000  0.000
   31  0.000  0.000  0.000  0.000
   32  0.000  0.000  0.000  0.000
   33  0.000  0.000  0.000  0.000
   34  0.000  0.000  0.000  0.000
   35  0.000  0.000  0.000  0.000
   36  0.054  0.062  0.138  0.254
   37  0.607  0.021  0.000  0.628
tot    0.662  0.084  0.139  0.885
 
band     2 # energy   -8.78296441 # occ.  2.00000000
 
ion      s      p      d    tot
    1  0.006  0.001  0.000  0.007
    2  0.006  0.001  0.000  0.007
    3  0.006  0.001  0.000  0.007
    4  0.006  0.001  0.000  0.007
    5  0.006  0.001  0.000  0.007
    6  0.006  0.001  0.000  0.007
    7  0.006  0.001  0.000  0.007
    8  0.006  0.001  0.000  0.007
    9  0.006  0.001  0.000  0.007
   10  0.025  0.000  0.000  0.025
   11  0.024  0.000  0.000  0.024
   12  0.025  0.000  0.000  0.025
   13  0.024  0.000  0.000  0.024
   14  0.024  0.000  0.000  0.024
   15  0.025  0.000  0.000  0.025
   16  0.025  0.000  0.000  0.025
   17  0.025  0.000  0.000  0.025
   18  0.025  0.000  0.000  0.025
   19  0.025  0.000  0.000  0.026
   20  0.024  0.000  0.000  0.025
   21  0.024  0.000  0.000  0.025
   22  0.025  0.000  0.000  0.026
   23  0.024  0.000  0.000  0.025
   24  0.025  0.000  0.000  0.025
   25  0.026  0.000  0.000  0.026
   26  0.025  0.000  0.000  0.026
   27  0.025  0.000  0.000  0.026
   28  0.007  0.001  0.000  0.008
   29  0.007  0.001  0.000  0.008
   30  0.007  0.001  0.000  0.008
   31  0.007  0.001  0.000  0.008
   32  0.007  0.001  0.000  0.008
   33  0.007  0.001  0.000  0.008
   34  0.007  0.001  0.000  0.008
   35  0.007  0.001  0.000  0.008
   36  0.007  0.002  0.000  0.009
   37  0.001  0.000  0.000  0.001
tot    0.566  0.018  0.001  0.586
 
band     3 # energy   -7.47877176 # occ.  2.00000000
 
ion      s      p      d    tot
    1  0.018  0.001  0.000  0.019
    2  0.018  0.001  0.000  0.019
    3  0.018  0.001  0.000  0.019
    4  0.018  0.001  0.000  0.019
    5  0.018  0.001  0.000  0.019
    6  0.018  0.001  0.000  0.019
    7  0.018  0.001  0.000  0.019
    8  0.018  0.001  0.000  0.019
    9  0.018  0.001  0.000  0.019
   10  0.010  0.002  0.001  0.013
   11  0.010  0.002  0.001  0.013
   12  0.010  0.002  0.001  0.013
   13  0.010  0.002  0.001  0.013
   14  0.010  0.002  0.001  0.013
   15  0.010  0.002  0.001  0.013
   16  0.010  0.002  0.001  0.013
   17  0.010  0.002  0.001  0.013
   18  0.010  0.002  0.001  0.013
   19  0.010  0.002  0.000  0.013
   20  0.008  0.002  0.001  0.011
   21  0.008  0.002  0.001  0.011
   22  0.010  0.002  0.000  0.013
   23  0.008  0.002  0.001  0.011
   24  0.010  0.002  0.000  0.013
   25  0.010  0.002  0.000  0.013
   26  0.010  0.002  0.000  0.013
   27  0.010  0.002  0.000  0.013
   28  0.019  0.001  0.001  0.021
   29  0.019  0.001  0.001  0.020
   30  0.019  0.001  0.001  0.020
   31  0.019  0.001  0.001  0.020
   32  0.019  0.001  0.001  0.020
   33  0.019  0.001  0.001  0.020
   34  0.019  0.001  0.001  0.020
   35  0.020  0.001  0.001  0.021
   36  0.018  0.002  0.007  0.027
   37  0.001  0.000  0.000  0.001
tot    0.509  0.056  0.026  0.590
 
band     4 # energy   -5.98282355 # occ.  2.00000000
 
ion      s      p      d    tot
    1  0.012  0.000  0.004  0.016
    2  0.012  0.000  0.004  0.016
    3  0.012  0.000  0.004  0.016
    4  0.012  0.000  0.004  0.016
    5  0.006  0.000  0.004  0.010
    6  0.012  0.000  0.004  0.016
    7  0.012  0.000  0.004  0.016
    8  0.012  0.000  0.004  0.016
    9  0.019  0.000  0.003  0.022
   10  0.002  0.003  0.001  0.006
   11  0.007  0.004  0.001  0.012
   12  0.002  0.003  0.001  0.006
   13  0.007  0.004  0.001  0.012
   14  0.007  0.004  0.001  0.012
   15  0.000  0.002  0.002  0.004
   16  0.002  0.003  0.001  0.006
   17  0.000  0.002  0.002  0.004
   18  0.000  0.002  0.002  0.004
   19  0.002  0.002  0.005  0.009
   20  0.020  0.004  0.005  0.028
   21  0.020  0.004  0.005  0.028
   22  0.001  0.003  0.004  0.008
   23  0.020  0.004  0.005  0.028
   24  0.001  0.003  0.004  0.008
   25  0.002  0.002  0.005  0.009
   26  0.002  0.002  0.005  0.009
   27  0.001  0.003  0.004  0.008
   28  0.016  0.000  0.005  0.020
   29  0.015  0.000  0.007  0.023
   30  0.015  0.000  0.007  0.023
   31  0.015  0.000  0.007  0.023
   32  0.015  0.000  0.007  0.023
   33  0.015  0.000  0.007  0.023
   34  0.015  0.000  0.007  0.023
   35  0.020  0.000  0.005  0.025
   36  0.005  0.001  0.129  0.136
   37  0.004  0.014  0.000  0.017
tot    0.336  0.070  0.271  0.677
 
band     5 # energy   -5.86472377 # occ.  2.00000000
 
ion      s      p      d    tot
    1  0.000  0.002  0.004  0.005
    2  0.007  0.002  0.002  0.010
    3  0.001  0.001  0.001  0.003
    4  0.007  0.002  0.002  0.010
    5  0.000  0.002  0.003  0.005
    6  0.003  0.001  0.002  0.006
    7  0.001  0.001  0.001  0.003
    8  0.003  0.001  0.002  0.006
    9  0.000  0.000  0.002  0.002
   10  0.045  0.004  0.003  0.052
   11  0.007  0.008  0.004  0.019
   12  0.010  0.002  0.010  0.022
   13  0.006  0.008  0.004  0.019
   14  0.027  0.001  0.005  0.033
   15  0.001  0.004  0.005  0.010
   16  0.012  0.002  0.010  0.023
   17  0.000  0.005  0.005  0.010
   18  0.002  0.002  0.003  0.007
   19  0.005  0.010  0.002  0.017
   20  0.070  0.003  0.007  0.080
   21  0.016  0.003  0.014  0.033
   22  0.003  0.004  0.009  0.015
   23  0.019  0.003  0.013  0.035
   24  0.012  0.003  0.002  0.017
   25  0.020  0.000  0.006  0.026
   26  0.005  0.010  0.002  0.017
   27  0.003  0.004  0.009  0.016
   28  0.000  0.002  0.003  0.006
   29  0.012  0.004  0.004  0.020
   30  0.003  0.001  0.003  0.007
   31  0.012  0.004  0.004  0.019
   32  0.002  0.002  0.004  0.008
   33  0.003  0.001  0.003  0.008
   34  0.003  0.002  0.004  0.009
   35  0.000  0.000  0.003  0.003
   36  0.000  0.004  0.082  0.087
   37  0.000  0.004  0.000  0.004
tot    0.318  0.109  0.243  0.670
 
band     6 # energy   -5.86468687 # occ.  2.00000000
 
ion      s      p      d    tot
    1  0.000  0.002  0.004  0.005
    2  0.000  0.001  0.001  0.002
    3  0.006  0.002  0.002  0.010
    4  0.000  0.001  0.001  0.002
    5  0.000  0.002  0.003  0.005
    6  0.004  0.001  0.001  0.007
    7  0.006  0.002  0.002  0.009
    8  0.004  0.001  0.001  0.006
    9  0.000  0.000  0.002  0.002
   10  0.000  0.001  0.012  0.013
   11  0.020  0.003  0.005  0.028
   12  0.034  0.003  0.005  0.043
   13  0.021  0.003  0.005  0.029
   14  0.000  0.010  0.004  0.014
   15  0.001  0.003  0.004  0.008
   16  0.033  0.003  0.005  0.041
   17  0.002  0.003  0.003  0.008
   18  0.000  0.005  0.006  0.011
   19  0.014  0.004  0.005  0.023
   20  0.000  0.003  0.016  0.019
   21  0.054  0.003  0.009  0.066
   22  0.009  0.004  0.004  0.017
   23  0.051  0.003  0.009  0.064
   24  0.000  0.004  0.011  0.015
   25  0.000  0.013  0.001  0.014
   26  0.015  0.003  0.005  0.023
   27  0.009  0.004  0.005  0.017
   28  0.000  0.002  0.003  0.006
   29  0.000  0.001  0.003  0.004
   30  0.009  0.003  0.005  0.017
   31  0.000  0.001  0.003  0.004
   32  0.009  0.003  0.003  0.015
   33  0.008  0.003  0.005  0.016
   34  0.009  0.003  0.003  0.015
   35  0.000  0.000  0.003  0.003
   36  0.000  0.004  0.082  0.087
   37  0.000  0.004  0.000  0.004
tot    0.318  0.109  0.243  0.670
 
band     7 # energy   -5.81923107 # occ.  2.00000000
 
ion      s      p      d    tot
    1  0.000  0.001  0.002  0.003
    2  0.008  0.002  0.002  0.012
    3  0.001  0.001  0.002  0.003
    4  0.008  0.002  0.002  0.012
    5  0.000  0.000  0.003  0.004
    6  0.004  0.001  0.002  0.007
    7  0.001  0.001  0.002  0.003
    8  0.004  0.001  0.002  0.007
    9  0.000  0.003  0.004  0.007
   10  0.000  0.011  0.002  0.013
   11  0.017  0.003  0.005  0.025
   12  0.004  0.003  0.004  0.012
   13  0.018  0.003  0.005  0.025
   14  0.000  0.001  0.012  0.013
   15  0.039  0.003  0.006  0.048
   16  0.004  0.003  0.004  0.012
   17  0.039  0.003  0.006  0.049
   18  0.000  0.006  0.010  0.016
   19  0.034  0.004  0.006  0.044
   20  0.000  0.012  0.002  0.014
   21  0.000  0.004  0.004  0.008
   22  0.041  0.004  0.006  0.051
   23  0.000  0.004  0.004  0.008
   24  0.000  0.010  0.007  0.017
   25  0.000  0.000  0.017  0.017
   26  0.034  0.004  0.006  0.044
   27  0.040  0.004  0.006  0.050
   28  0.000  0.002  0.006  0.007
   29  0.015  0.003  0.003  0.022
   30  0.002  0.002  0.004  0.008
   31  0.015  0.003  0.003  0.022
   32  0.006  0.001  0.003  0.010
   33  0.002  0.002  0.004  0.008
   34  0.006  0.001  0.003  0.010
   35  0.000  0.004  0.006  0.010
   36  0.000  0.001  0.026  0.027
   37  0.000  0.000  0.000  0.000
tot    0.342  0.115  0.191  0.647
 
band     8 # energy   -5.81920008 # occ.  2.00000000
 
ion      s      p      d    tot
    1  0.000  0.001  0.002  0.003
    2  0.000  0.001  0.002  0.003
    3  0.007  0.002  0.002  0.011
    4  0.000  0.001  0.002  0.003
    5  0.000  0.000  0.003  0.004
    6  0.004  0.001  0.002  0.007
    7  0.007  0.002  0.002  0.011
    8  0.004  0.001  0.002  0.007
    9  0.000  0.003  0.004  0.007
   10  0.006  0.000  0.005  0.011
   11  0.006  0.002  0.009  0.017
   12  0.001  0.009  0.003  0.013
   13  0.006  0.002  0.010  0.017
   14  0.023  0.004  0.002  0.029
   15  0.013  0.005  0.009  0.027
   16  0.001  0.008  0.003  0.013
   17  0.013  0.005  0.009  0.026
   18  0.052  0.003  0.005  0.060
   19  0.012  0.001  0.014  0.026
   20  0.000  0.001  0.005  0.007
   21  0.000  0.009  0.003  0.012
   22  0.013  0.008  0.006  0.028
   23  0.000  0.009  0.003  0.012
   24  0.054  0.002  0.006  0.062
   25  0.045  0.005  0.002  0.052
   26  0.011  0.001  0.014  0.026
   27  0.014  0.008  0.006  0.028
   28  0.000  0.002  0.006  0.007
   29  0.000  0.001  0.004  0.005
   30  0.013  0.002  0.003  0.019
   31  0.000  0.001  0.004  0.005
   32  0.010  0.003  0.004  0.016
   33  0.013  0.002  0.003  0.019
   34  0.010  0.003  0.004  0.016
   35  0.000  0.004  0.006  0.010
   36  0.000  0.001  0.026  0.027
   37  0.000  0.000  0.000  0.000
tot    0.342  0.115  0.191  0.647
 
band     9 # energy   -5.78981838 # occ.  2.00000000
 
ion      s      p      d    tot
    1  0.020  0.003  0.001  0.023
    2  0.000  0.002  0.004  0.005
    3  0.000  0.002  0.004  0.005
    4  0.000  0.002  0.004  0.005
    5  0.000  0.000  0.000  0.001
    6  0.000  0.002  0.004  0.005
    7  0.000  0.002  0.004  0.005
    8  0.000  0.002  0.004  0.005
    9  0.009  0.002  0.001  0.011
   10  0.027  0.005  0.007  0.038
   11  0.003  0.001  0.011  0.014
   12  0.027  0.005  0.007  0.038
   13  0.003  0.001  0.011  0.014
   14  0.003  0.001  0.011  0.015
   15  0.015  0.008  0.003  0.026
   16  0.027  0.005  0.007  0.038
   17  0.015  0.008  0.003  0.026
   18  0.015  0.008  0.003  0.026
   19  0.020  0.009  0.002  0.032
   20  0.000  0.002  0.010  0.012
   21  0.000  0.002  0.010  0.012
   22  0.028  0.003  0.008  0.040
   23  0.000  0.002  0.010  0.012
   24  0.029  0.003  0.008  0.041
   25  0.020  0.009  0.002  0.032
   26  0.020  0.009  0.002  0.032
   27  0.028  0.003  0.008  0.040
   28  0.021  0.003  0.000  0.024
   29  0.000  0.002  0.004  0.007
   30  0.000  0.002  0.004  0.007
   31  0.000  0.002  0.004  0.007
   32  0.000  0.002  0.004  0.007
   33  0.000  0.002  0.004  0.007
   34  0.000  0.002  0.004  0.007
   35  0.014  0.003  0.002  0.019
   36  0.000  0.000  0.000  0.000
   37  0.000  0.000  0.000  0.000
tot    0.348  0.117  0.176  0.640
 
band    10 # energy   -5.72920042 # occ.  2.00000000
 
ion      s      p      d    tot
    1  0.000  0.000  0.001  0.002
    2  0.002  0.002  0.005  0.009
    3  0.002  0.002  0.005  0.009
    4  0.002  0.002  0.005  0.009
    5  0.034  0.003  0.000  0.037
    6  0.002  0.002  0.005  0.009
    7  0.002  0.002  0.005  0.009
    8  0.002  0.002  0.005  0.009
    9  0.002  0.002  0.003  0.007
   10  0.005  0.005  0.007  0.017
   11  0.020  0.008  0.004  0.032
   12  0.005  0.005  0.007  0.017
   13  0.020  0.008  0.004  0.032
   14  0.020  0.008  0.004  0.032
   15  0.022  0.001  0.010  0.034
   16  0.005  0.005  0.007  0.017
   17  0.022  0.001  0.010  0.034
   18  0.022  0.001  0.010  0.034
   19  0.013  0.001  0.010  0.025
   20  0.020  0.006  0.005  0.031
   21  0.021  0.006  0.005  0.031
   22  0.006  0.006  0.005  0.018
   23  0.021  0.006  0.005  0.031
   24  0.006  0.006  0.005  0.018
   25  0.013  0.001  0.010  0.024
   26  0.013  0.001  0.010  0.025
   27  0.006  0.006  0.005  0.018
   28  0.000  0.001  0.003  0.004
   29  0.002  0.001  0.004  0.007
   30  0.002  0.001  0.004  0.007
   31  0.002  0.001  0.004  0.007
   32  0.002  0.001  0.004  0.007
   33  0.002  0.001  0.004  0.007
   34  0.002  0.001  0.004  0.007
   35  0.000  0.001  0.001  0.002
   36  0.029  0.006  0.000  0.035
   37  0.002  0.001  0.000  0.003
tot    0.354  0.113  0.186  0.653
 
band    11 # energy   -5.22772379 # occ.  2.00000000
 
ion      s      p      d    tot
    1  0.011  0.000  0.009  0.020
    2  0.008  0.001  0.010  0.018
    3  0.008  0.001  0.010  0.018
    4  0.008  0.001  0.010  0.018
    5  0.001  0.002  0.010  0.012
    6  0.008  0.001  0.010  0.018
    7  0.008  0.001  0.010  0.018
    8  0.008  0.001  0.010  0.018
    9  0.019  0.000  0.007  0.025
   10  0.006  0.000  0.018  0.025
   11  0.016  0.001  0.013  0.030
   12  0.006  0.000  0.018  0.025
   13  0.016  0.001  0.013  0.030
   14  0.016  0.001  0.013  0.030
   15  0.002  0.001  0.016  0.019
   16  0.006  0.000  0.018  0.025
   17  0.002  0.001  0.016  0.019
   18  0.002  0.001  0.016  0.019
   19  0.001  0.000  0.006  0.007
   20  0.003  0.003  0.019  0.025
   21  0.003  0.003  0.019  0.025
   22  0.002  0.001  0.005  0.008
   23  0.003  0.003  0.019  0.025
   24  0.002  0.001  0.005  0.008
   25  0.001  0.000  0.006  0.007
   26  0.001  0.000  0.006  0.007
   27  0.002  0.001  0.005  0.008
   28  0.000  0.000  0.001  0.001
   29  0.000  0.001  0.003  0.004
   30  0.000  0.001  0.003  0.004
   31  0.000  0.001  0.003  0.004
   32  0.000  0.001  0.003  0.004
   33  0.000  0.001  0.003  0.004
   34  0.000  0.001  0.003  0.004
   35  0.000  0.000  0.001  0.001
   36  0.000  0.001  0.196  0.197
   37  0.015  0.044  0.000  0.058
tot    0.182  0.071  0.532  0.786
 
band    12 # energy   -5.18041274 # occ.  2.00000000
 
ion      s      p      d    tot
    1  0.000  0.000  0.007  0.007
    2  0.012  0.003  0.004  0.018
    3  0.012  0.003  0.004  0.019
    4  0.011  0.003  0.004  0.018
    5  0.000  0.004  0.007  0.011
    6  0.000  0.001  0.004  0.005
    7  0.012  0.003  0.004  0.018
    8  0.000  0.001  0.004  0.005
    9  0.000  0.003  0.007  0.010
   10  0.000  0.003  0.013  0.016
   11  0.023  0.002  0.006  0.031
   12  0.003  0.001  0.007  0.011
   13  0.022  0.002  0.006  0.031
   14  0.000  0.000  0.017  0.017
   15  0.010  0.002  0.006  0.018
   16  0.003  0.001  0.007  0.011
   17  0.009  0.002  0.006  0.018
   18  0.000  0.005  0.008  0.013
   19  0.001  0.001  0.006  0.008
   20  0.000  0.001  0.040  0.042
   21  0.002  0.002  0.013  0.017
   22  0.002  0.004  0.009  0.015
   23  0.002  0.002  0.013  0.016
   24  0.000  0.000  0.010  0.010
   25  0.000  0.000  0.004  0.004
   26  0.001  0.001  0.006  0.008
   27  0.002  0.004  0.009  0.015
   28  0.000  0.000  0.004  0.004
   29  0.012  0.002  0.006  0.020
   30  0.003  0.003  0.009  0.015
   31  0.012  0.002  0.006  0.020
   32  0.003  0.000  0.006  0.009
   33  0.003  0.003  0.009  0.015
   34  0.003  0.000  0.006  0.009
   35  0.000  0.002  0.002  0.004
   36  0.000  0.001  0.230  0.231
   37  0.000  0.019  0.000  0.019
tot    0.162  0.088  0.508  0.758
 
band    13 # energy   -5.18032311 # occ.  2.00000000
 
ion      s      p      d    tot
    1  0.000  0.000  0.007  0.007
    2  0.004  0.002  0.004  0.009
    3  0.003  0.002  0.004  0.009
    4  0.004  0.002  0.004  0.010
    5  0.000  0.004  0.007  0.011
    6  0.016  0.003  0.004  0.023
    7  0.004  0.002  0.004  0.009
    8  0.016  0.003  0.004  0.023
    9  0.000  0.003  0.007  0.010
   10  0.003  0.001  0.005  0.009
   11  0.007  0.001  0.013  0.022
   12  0.001  0.002  0.011  0.014
   13  0.008  0.001  0.013  0.022
   14  0.030  0.003  0.003  0.036
   15  0.003  0.004  0.007  0.015
   16  0.001  0.002  0.011  0.014
   17  0.003  0.004  0.007  0.015
   18  0.013  0.001  0.006  0.019
   19  0.000  0.000  0.005  0.006
   20  0.002  0.003  0.004  0.008
   21  0.001  0.002  0.031  0.033
   22  0.001  0.001  0.009  0.011
   23  0.001  0.002  0.031  0.034
   24  0.003  0.005  0.008  0.017
   25  0.001  0.001  0.007  0.009
   26  0.000  0.000  0.005  0.006
   27  0.001  0.001  0.009  0.011
   28  0.000  0.000  0.004  0.004
   29  0.000  0.001  0.008  0.009
   30  0.009  0.001  0.005  0.015
   31  0.000  0.001  0.008  0.009
   32  0.009  0.003  0.008  0.021
   33  0.009  0.001  0.005  0.015
   34  0.009  0.003  0.008  0.021
   35  0.000  0.002  0.002  0.004
   36  0.000  0.001  0.230  0.231
   37  0.000  0.019  0.000  0.019
tot    0.162  0.088  0.508  0.758
 
band    14 # energy   -5.13402366 # occ.  2.00000000
 
ion      s      p      d    tot
    1  0.000  0.006  0.008  0.014
    2  0.015  0.003  0.005  0.023
    3  0.014  0.003  0.005  0.021
    4  0.015  0.003  0.005  0.023
    5  0.000  0.002  0.009  0.010
    6  0.000  0.001  0.004  0.006
    7  0.014  0.003  0.005  0.021
    8  0.000  0.001  0.004  0.006
    9  0.000  0.001  0.009  0.010
   10  0.031  0.003  0.005  0.040
   11  0.001  0.004  0.010  0.015
   12  0.008  0.003  0.014  0.025
   13  0.001  0.004  0.010  0.015
   14  0.002  0.000  0.006  0.009
   15  0.004  0.002  0.014  0.020
   16  0.008  0.003  0.014  0.025
   17  0.004  0.002  0.014  0.020
   18  0.017  0.003  0.004  0.024
   19  0.001  0.001  0.014  0.017
   20  0.004  0.006  0.008  0.018
   21  0.001  0.002  0.005  0.008
   22  0.000  0.001  0.015  0.016
   23  0.001  0.002  0.005  0.008
   24  0.001  0.000  0.003  0.005
   25  0.004  0.005  0.003  0.012
   26  0.001  0.001  0.014  0.017
   27  0.000  0.001  0.015  0.016
   28  0.000  0.004  0.003  0.007
   29  0.011  0.003  0.008  0.022
   30  0.018  0.001  0.008  0.026
   31  0.011  0.003  0.008  0.022
   32  0.001  0.001  0.008  0.010
   33  0.018  0.001  0.008  0.026
   34  0.001  0.001  0.008  0.011
   35  0.000  0.002  0.007  0.009
   36  0.000  0.001  0.150  0.151
   37  0.000  0.006  0.000  0.006
tot    0.207  0.089  0.439  0.735
 
band    15 # energy   -5.13390545 # occ.  2.00000000
 
ion      s      p      d    tot
    1  0.000  0.006  0.008  0.014
    2  0.004  0.002  0.004  0.010
    3  0.006  0.002  0.005  0.012
    4  0.004  0.002  0.004  0.010
    5  0.000  0.002  0.009  0.010
    6  0.019  0.004  0.005  0.028
    7  0.006  0.002  0.005  0.013
    8  0.019  0.004  0.005  0.028
    9  0.000  0.001  0.009  0.010
   10  0.000  0.003  0.017  0.020
   11  0.002  0.001  0.008  0.011
   12  0.023  0.003  0.008  0.035
   13  0.002  0.001  0.008  0.011
   14  0.000  0.006  0.011  0.017
   15  0.013  0.003  0.007  0.023
   16  0.023  0.003  0.008  0.035
   17  0.012  0.003  0.008  0.023
   18  0.000  0.001  0.017  0.018
   19  0.003  0.004  0.007  0.014
   20  0.000  0.000  0.004  0.004
   21  0.003  0.004  0.007  0.015
   22  0.001  0.000  0.007  0.008
   23  0.003  0.004  0.007  0.015
   24  0.000  0.001  0.019  0.020
   25  0.000  0.000  0.018  0.018
   26  0.003  0.004  0.007  0.014
   27  0.001  0.000  0.007  0.008
   28  0.000  0.004  0.003  0.007
   29  0.009  0.001  0.008  0.017
   30  0.002  0.002  0.009  0.013
   31  0.009  0.001  0.008  0.017
   32  0.019  0.002  0.008  0.029
   33  0.002  0.002  0.009  0.013
   34  0.019  0.002  0.008  0.029
   35  0.000  0.002  0.007  0.009
   36  0.000  0.001  0.150  0.151
   37  0.000  0.006  0.000  0.006
tot    0.207  0.089  0.439  0.735
 
band    16 # energy   -5.01413877 # occ.  2.00000000
 
ion      s      p      d    tot
    1  0.032  0.003  0.000  0.035
    2  0.000  0.003  0.010  0.013
    3  0.000  0.003  0.010  0.013
    4  0.000  0.003  0.010  0.013
    5  0.000  0.000  0.000  0.001
    6  0.000  0.003  0.010  0.013
    7  0.000  0.003  0.010  0.013
    8  0.000  0.003  0.010  0.013
    9  0.032  0.004  0.001  0.037
   10  0.009  0.003  0.010  0.023
   11  0.001  0.000  0.015  0.016
   12  0.009  0.003  0.010  0.023
   13  0.001  0.000  0.015  0.016
   14  0.001  0.000  0.015  0.016
   15  0.008  0.004  0.016  0.028
   16  0.009  0.003  0.010  0.023
   17  0.008  0.004  0.016  0.028
   18  0.008  0.004  0.016  0.028
   19  0.004  0.003  0.020  0.028
   20  0.000  0.000  0.013  0.013
   21  0.000  0.000  0.013  0.013
   22  0.010  0.004  0.010  0.024
   23  0.000  0.000  0.013  0.013
   24  0.010  0.004  0.010  0.024
   25  0.004  0.003  0.020  0.028
   26  0.004  0.003  0.020  0.028
   27  0.010  0.004  0.010  0.025
   28  0.035  0.003  0.000  0.038
   29  0.000  0.003  0.010  0.014
   30  0.000  0.003  0.010  0.014
   31  0.000  0.003  0.010  0.014
   32  0.000  0.003  0.010  0.014
   33  0.000  0.003  0.010  0.014
   34  0.000  0.003  0.010  0.014
   35  0.031  0.004  0.001  0.036
   36  0.000  0.000  0.000  0.000
   37  0.000  0.000  0.000  0.000
tot    0.229  0.095  0.380  0.705
 
band    17 # energy   -4.92620743 # occ.  2.00000000
 
ion      s      p      d    tot
    1  0.011  0.002  0.001  0.014
    2  0.000  0.003  0.010  0.013
    3  0.000  0.003  0.010  0.013
    4  0.000  0.003  0.010  0.013
    5  0.045  0.003  0.000  0.048
    6  0.000  0.003  0.010  0.013
    7  0.000  0.003  0.010  0.013
    8  0.000  0.003  0.010  0.013
    9  0.003  0.001  0.002  0.006
   10  0.003  0.001  0.021  0.026
   11  0.004  0.004  0.016  0.024
   12  0.003  0.001  0.021  0.025
   13  0.004  0.004  0.016  0.024
   14  0.004  0.004  0.016  0.024
   15  0.006  0.001  0.013  0.019
   16  0.003  0.001  0.021  0.025
   17  0.006  0.001  0.013  0.019
   18  0.006  0.001  0.013  0.019
   19  0.011  0.001  0.017  0.029
   20  0.006  0.004  0.013  0.023
   21  0.006  0.004  0.013  0.023
   22  0.002  0.001  0.019  0.023
   23  0.006  0.004  0.013  0.023
   24  0.002  0.001  0.019  0.023
   25  0.011  0.001  0.017  0.029
   26  0.011  0.001  0.017  0.029
   27  0.002  0.001  0.019  0.023
   28  0.004  0.002  0.005  0.010
   29  0.001  0.002  0.010  0.014
   30  0.001  0.002  0.010  0.014
   31  0.001  0.002  0.010  0.014
   32  0.001  0.002  0.010  0.014
   33  0.001  0.002  0.010  0.014
   34  0.001  0.002  0.010  0.014
   35  0.003  0.001  0.002  0.006
   36  0.049  0.007  0.000  0.056
   37  0.003  0.004  0.000  0.007
tot    0.224  0.087  0.431  0.742
 
band    18 # energy   -4.73942707 # occ.  2.00000000
 
ion      s      p      d    tot
    1  0.000  0.000  0.004  0.004
    2  0.002  0.001  0.002  0.005
    3  0.007  0.001  0.002  0.010
    4  0.002  0.001  0.002  0.005
    5  0.000  0.002  0.002  0.004
    6  0.001  0.001  0.002  0.003
    7  0.007  0.001  0.002  0.010
    8  0.001  0.001  0.002  0.004
    9  0.000  0.001  0.006  0.007
   10  0.000  0.000  0.001  0.002
   11  0.001  0.002  0.005  0.009
   12  0.000  0.001  0.004  0.005
   13  0.001  0.002  0.006  0.009
   14  0.000  0.000  0.012  0.012
   15  0.001  0.000  0.006  0.006
   16  0.000  0.001  0.004  0.005
   17  0.000  0.000  0.006  0.007
   18  0.000  0.000  0.017  0.017
   19  0.002  0.001  0.008  0.011
   20  0.000  0.000  0.000  0.001
   21  0.006  0.002  0.017  0.024
   22  0.008  0.001  0.007  0.016
   23  0.006  0.002  0.018  0.026
   24  0.000  0.001  0.018  0.019
   25  0.000  0.005  0.014  0.019
   26  0.002  0.002  0.008  0.011
   27  0.009  0.001  0.006  0.016
   28  0.000  0.002  0.013  0.015
   29  0.004  0.001  0.005  0.010
   30  0.018  0.001  0.011  0.030
   31  0.003  0.001  0.005  0.009
   32  0.005  0.001  0.005  0.012
   33  0.018  0.001  0.011  0.030
   34  0.006  0.001  0.005  0.013
   35  0.000  0.002  0.014  0.015
   36  0.000  0.011  0.296  0.308
   37  0.000  0.067  0.000  0.067
tot    0.113  0.119  0.545  0.777
 
band    19 # energy   -4.73940502 # occ.  2.00000000
 
ion      s      p      d    tot
    1  0.000  0.000  0.004  0.004
    2  0.004  0.001  0.002  0.007
    3  0.000  0.000  0.002  0.002
    4  0.005  0.001  0.002  0.007
    5  0.000  0.002  0.002  0.004
    6  0.006  0.001  0.002  0.009
    7  0.000  0.000  0.002  0.003
    8  0.005  0.001  0.002  0.008
    9  0.000  0.001  0.006  0.007
   10  0.001  0.001  0.005  0.006
   11  0.000  0.001  0.010  0.011
   12  0.000  0.001  0.002  0.003
   13  0.001  0.001  0.009  0.011
   14  0.002  0.003  0.004  0.008
   15  0.000  0.000  0.014  0.014
   16  0.000  0.001  0.002  0.003
   17  0.000  0.000  0.013  0.013
   18  0.001  0.000  0.002  0.003
   19  0.000  0.004  0.012  0.017
   20  0.008  0.003  0.023  0.033
   21  0.002  0.001  0.006  0.009
   22  0.003  0.001  0.014  0.018
   23  0.002  0.001  0.006  0.008
   24  0.012  0.001  0.002  0.015
   25  0.002  0.000  0.006  0.009
   26  0.001  0.004  0.012  0.016
   27  0.003  0.001  0.015  0.018
   28  0.000  0.002  0.013  0.015
   29  0.015  0.001  0.009  0.025
   30  0.000  0.001  0.003  0.005
   31  0.015  0.001  0.009  0.026
   32  0.013  0.001  0.009  0.023
   33  0.000  0.001  0.003  0.005
   34  0.012  0.001  0.009  0.022
   35  0.000  0.002  0.014  0.015
   36  0.000  0.011  0.296  0.308
   37  0.000  0.067  0.000  0.067
tot    0.113  0.119  0.545  0.777
 
band    20 # energy   -4.69309867 # occ.  2.00000000
 
ion      s      p      d    tot
    1  0.002  0.000  0.001  0.003
    2  0.000  0.000  0.002  0.002
    3  0.000  0.000  0.002  0.002
    4  0.000  0.000  0.002  0.002
    5  0.000  0.000  0.002  0.003
    6  0.000  0.000  0.002  0.002
    7  0.000  0.000  0.002  0.002
    8  0.000  0.000  0.002  0.002
    9  0.001  0.000  0.001  0.002
   10  0.001  0.000  0.007  0.008
   11  0.001  0.001  0.010  0.012
   12  0.001  0.000  0.007  0.008
   13  0.001  0.001  0.010  0.012
   14  0.001  0.001  0.010  0.012
   15  0.001  0.000  0.008  0.009
   16  0.001  0.000  0.007  0.008
   17  0.001  0.000  0.008  0.009
   18  0.001  0.000  0.008  0.009
   19  0.002  0.000  0.015  0.017
   20  0.005  0.000  0.013  0.019
   21  0.005  0.000  0.013  0.019
   22  0.002  0.001  0.029  0.032
   23  0.005  0.000  0.013  0.019
   24  0.002  0.001  0.029  0.032
   25  0.002  0.000  0.015  0.017
   26  0.002  0.000  0.015  0.017
   27  0.002  0.001  0.029  0.032
   28  0.012  0.000  0.008  0.020
   29  0.003  0.003  0.017  0.022
   30  0.003  0.003  0.017  0.022
   31  0.003  0.003  0.017  0.022
   32  0.003  0.003  0.017  0.022
   33  0.003  0.003  0.017  0.022
   34  0.003  0.003  0.017  0.022
   35  0.031  0.000  0.010  0.041
   36  0.001  0.001  0.231  0.232
   37  0.019  0.072  0.000  0.091
tot    0.116  0.100  0.617  0.833
 
band    21 # energy   -4.58006285 # occ.  2.00000000
 
ion      s      p      d    tot
    1  0.000  0.001  0.016  0.018
    2  0.014  0.002  0.005  0.020
    3  0.003  0.001  0.005  0.009
    4  0.014  0.002  0.005  0.020
    5  0.000  0.000  0.011  0.012
    6  0.004  0.001  0.005  0.010
    7  0.003  0.001  0.005  0.009
    8  0.004  0.001  0.005  0.010
    9  0.000  0.003  0.003  0.006
   10  0.000  0.000  0.051  0.051
   11  0.000  0.002  0.012  0.014
   12  0.000  0.001  0.015  0.016
   13  0.000  0.002  0.012  0.014
   14  0.000  0.000  0.004  0.004
   15  0.000  0.005  0.013  0.018
   16  0.000  0.001  0.015  0.015
   17  0.000  0.005  0.013  0.018
   18  0.000  0.000  0.020  0.020
   19  0.013  0.001  0.009  0.023
   20  0.000  0.000  0.040  0.040
   21  0.000  0.001  0.020  0.021
   22  0.004  0.001  0.013  0.018
   23  0.000  0.001  0.020  0.021
   24  0.000  0.002  0.001  0.003
   25  0.000  0.000  0.026  0.026
   26  0.013  0.001  0.009  0.023
   27  0.004  0.001  0.013  0.018
   28  0.000  0.000  0.006  0.006
   29  0.003  0.001  0.020  0.024
   30  0.000  0.001  0.014  0.014
   31  0.003  0.001  0.020  0.024
   32  0.003  0.001  0.020  0.023
   33  0.000  0.001  0.014  0.014
   34  0.002  0.001  0.020  0.023
   35  0.000  0.000  0.002  0.003
   36  0.000  0.000  0.220  0.220