PROCAR new format
# of k-points:   10         # of bands:  252         # of ions:   36

 k-point     1 :    0.00000000 0.00000000 0.00000000     weight = 0.01562500

band     1 # energy   -8.66055443 # occ.  2.00000000
 
ion      s      p      d    tot
    1  0.007  0.001  0.000  0.007
    2  0.007  0.001  0.000  0.007
    3  0.007  0.001  0.000  0.007
    4  0.007  0.001  0.000  0.007
    5  0.007  0.001  0.000  0.007
    6  0.007  0.001  0.000  0.007
    7  0.007  0.001  0.000  0.007
    8  0.007  0.001  0.000  0.007
    9  0.007  0.001  0.000  0.007
   10  0.025  0.000  0.000  0.025
   11  0.025  0.000  0.000  0.025
   12  0.025  0.000  0.000  0.025
   13  0.025  0.000  0.000  0.025
   14  0.025  0.000  0.000  0.025
   15  0.025  0.000  0.000  0.025
   16  0.025  0.000  0.000  0.025
   17  0.025  0.000  0.000  0.025
   18  0.025  0.000  0.000  0.025
   19  0.025  0.000  0.000  0.026
   20  0.024  0.000  0.000  0.024
   21  0.024  0.000  0.000  0.024
   22  0.025  0.000  0.000  0.025
   23  0.024  0.000  0.000  0.024
   24  0.025  0.000  0.000  0.025
   25  0.025  0.000  0.000  0.026
   26  0.025  0.000  0.000  0.026
   27  0.025  0.000  0.000  0.025
   28  0.007  0.001  0.000  0.008
   29  0.007  0.001  0.000  0.007
   30  0.007  0.001  0.000  0.007
   31  0.007  0.001  0.000  0.007
   32  0.007  0.001  0.000  0.007
   33  0.007  0.001  0.000  0.007
   34  0.007  0.001  0.000  0.007
   35  0.007  0.001  0.000  0.008
   36  0.007  0.001  0.000  0.008
tot    0.567  0.017  0.001  0.585
 
band     2 # energy   -7.34357748 # occ.  2.00000000
 
ion      s      p      d    tot
    1  0.018  0.001  0.001  0.019
    2  0.018  0.001  0.001  0.019
    3  0.018  0.001  0.001  0.019
    4  0.018  0.001  0.001  0.019
    5  0.018  0.001  0.001  0.020
    6  0.018  0.001  0.001  0.019
    7  0.018  0.001  0.001  0.019
    8  0.018  0.001  0.001  0.019
    9  0.018  0.001  0.001  0.019
   10  0.010  0.002  0.001  0.012
   11  0.010  0.002  0.001  0.013
   12  0.010  0.002  0.001  0.012
   13  0.010  0.002  0.001  0.013
   14  0.010  0.002  0.001  0.013
   15  0.009  0.002  0.001  0.012
   16  0.010  0.002  0.001  0.012
   17  0.009  0.002  0.001  0.012
   18  0.009  0.002  0.001  0.012
   19  0.012  0.002  0.001  0.014
   20  0.009  0.002  0.001  0.011
   21  0.009  0.002  0.001  0.011
   22  0.011  0.002  0.001  0.014
   23  0.009  0.002  0.001  0.011
   24  0.011  0.002  0.001  0.014
   25  0.012  0.002  0.001  0.014
   26  0.012  0.002  0.001  0.014
   27  0.011  0.002  0.001  0.014
   28  0.020  0.001  0.001  0.022
   29  0.018  0.001  0.000  0.020
   30  0.018  0.001  0.000  0.020
   31  0.018  0.001  0.000  0.020
   32  0.018  0.001  0.000  0.020
   33  0.018  0.001  0.000  0.020
   34  0.018  0.001  0.000  0.020
   35  0.020  0.001  0.001  0.022
   36  0.017  0.001  0.001  0.019
tot    0.511  0.055  0.020  0.586
 
band     3 # energy   -5.74023291 # occ.  2.00000000
 
ion      s      p      d    tot
    1  0.017  0.000  0.006  0.023
    2  0.015  0.000  0.006  0.021
    3  0.015  0.000  0.006  0.021
    4  0.015  0.000  0.006  0.021
    5  0.007  0.000  0.007  0.014
    6  0.015  0.000  0.006  0.021
    7  0.015  0.000  0.006  0.021
    8  0.015  0.000  0.006  0.021
    9  0.024  0.000  0.004  0.028
   10  0.003  0.003  0.003  0.009
   11  0.012  0.005  0.001  0.018
   12  0.003  0.003  0.003  0.009
   13  0.012  0.005  0.001  0.018
   14  0.012  0.005  0.001  0.018
   15  0.000  0.003  0.004  0.007
   16  0.003  0.003  0.003  0.009
   17  0.000  0.003  0.004  0.007
   18  0.000  0.003  0.004  0.007
   19  0.001  0.003  0.005  0.009
   20  0.017  0.004  0.002  0.023
   21  0.017  0.004  0.002  0.023
   22  0.001  0.004  0.004  0.008
   23  0.017  0.004  0.002  0.023
   24  0.001  0.004  0.004  0.008
   25  0.001  0.003  0.005  0.009
   26  0.001  0.003  0.005  0.009
   27  0.001  0.004  0.004  0.008
   28  0.022  0.000  0.005  0.027
   29  0.016  0.000  0.007  0.023
   30  0.016  0.000  0.007  0.023
   31  0.016  0.000  0.007  0.023
   32  0.016  0.000  0.007  0.023
   33  0.016  0.000  0.007  0.023
   34  0.016  0.000  0.007  0.023
   35  0.025  0.000  0.006  0.030
   36  0.005  0.001  0.020  0.026
tot    0.383  0.070  0.180  0.633
 
band     4 # energy   -5.69231946 # occ.  2.00000000
 
ion      s      p      d    tot
    1  0.000  0.003  0.004  0.006
    2  0.005  0.002  0.002  0.008
    3  0.008  0.002  0.002  0.013
    4  0.004  0.002  0.002  0.008
    5  0.000  0.000  0.002  0.002
    6  0.001  0.001  0.002  0.003
    7  0.008  0.002  0.002  0.012
    8  0.001  0.001  0.002  0.003
    9  0.000  0.002  0.005  0.007
   10  0.037  0.001  0.006  0.044
   11  0.000  0.006  0.005  0.012
   12  0.009  0.009  0.005  0.023
   13  0.000  0.006  0.005  0.012
   14  0.001  0.002  0.004  0.007
   15  0.012  0.001  0.012  0.026
   16  0.009  0.009  0.005  0.023
   17  0.013  0.002  0.012  0.027
   18  0.050  0.005  0.003  0.058
   19  0.016  0.004  0.012  0.032
   20  0.016  0.004  0.003  0.022
   21  0.004  0.004  0.009  0.017
   22  0.005  0.011  0.003  0.018
   23  0.004  0.004  0.010  0.017
   24  0.018  0.000  0.007  0.024
   25  0.066  0.004  0.004  0.074
   26  0.017  0.004  0.012  0.033
   27  0.004  0.011  0.002  0.018
   28  0.000  0.004  0.007  0.010
   29  0.005  0.002  0.003  0.009
   30  0.014  0.003  0.003  0.020
   31  0.004  0.002  0.003  0.009
   32  0.002  0.001  0.003  0.007
   33  0.014  0.003  0.003  0.019
   34  0.003  0.001  0.003  0.007
   35  0.000  0.002  0.004  0.006
   36  0.000  0.000  0.011  0.011
tot    0.348  0.115  0.181  0.644
 
band     5 # energy   -5.69219049 # occ.  2.00000000
 
ion      s      p      d    tot
    1  0.000  0.003  0.004  0.006
    2  0.004  0.001  0.002  0.008
    3  0.001  0.001  0.002  0.003
    4  0.005  0.001  0.002  0.008
    5  0.000  0.000  0.002  0.002
    6  0.008  0.002  0.002  0.013
    7  0.001  0.001  0.002  0.003
    8  0.008  0.002  0.002  0.013
    9  0.000  0.002  0.005  0.007
   10  0.000  0.011  0.005  0.016
   11  0.001  0.003  0.004  0.008
   12  0.027  0.004  0.006  0.036
   13  0.001  0.003  0.004  0.009
   14  0.000  0.007  0.006  0.013
   15  0.038  0.004  0.006  0.048
   16  0.027  0.003  0.006  0.037
   17  0.037  0.004  0.006  0.047
   18  0.000  0.000  0.015  0.016
   19  0.050  0.004  0.007  0.061
   20  0.000  0.004  0.012  0.015
   21  0.011  0.004  0.005  0.020
   22  0.013  0.004  0.005  0.022
   23  0.012  0.004  0.005  0.020
   24  0.000  0.014  0.001  0.015
   25  0.000  0.004  0.014  0.018
   26  0.049  0.004  0.007  0.060
   27  0.014  0.003  0.005  0.023
   28  0.000  0.004  0.007  0.010
   29  0.009  0.002  0.003  0.015
   30  0.000  0.001  0.003  0.004
   31  0.009  0.002  0.003  0.015
   32  0.011  0.003  0.003  0.017
   33  0.000  0.001  0.003  0.004
   34  0.011  0.003  0.003  0.016
   35  0.000  0.002  0.004  0.006
   36  0.000  0.000  0.011  0.011
tot    0.348  0.115  0.181  0.644
 
band     6 # energy   -5.67455164 # occ.  2.00000000
 
ion      s      p      d    tot
    1  0.019  0.003  0.001  0.022
    2  0.000  0.002  0.004  0.005
    3  0.000  0.002  0.004  0.005
    4  0.000  0.002  0.004  0.005
    5  0.001  0.000  0.000  0.001
    6  0.000  0.002  0.004  0.005
    7  0.000  0.002  0.004  0.005
    8  0.000  0.002  0.004  0.005
    9  0.010  0.002  0.000  0.012
   10  0.028  0.005  0.006  0.039
   11  0.003  0.001  0.011  0.015
   12  0.029  0.005  0.006  0.040
   13  0.003  0.001  0.011  0.015
   14  0.003  0.001  0.011  0.015
   15  0.014  0.008  0.003  0.025
   16  0.029  0.005  0.006  0.040
   17  0.014  0.008  0.003  0.025
   18  0.014  0.008  0.003  0.025
   19  0.021  0.010  0.002  0.033
   20  0.000  0.002  0.010  0.012
   21  0.000  0.002  0.010  0.012
   22  0.028  0.003  0.009  0.039
   23  0.000  0.002  0.010  0.012
   24  0.027  0.003  0.009  0.039
   25  0.022  0.010  0.002  0.033
   26  0.021  0.010  0.002  0.033
   27  0.028  0.003  0.009  0.039
   28  0.019  0.003  0.000  0.022
   29  0.000  0.002  0.004  0.006
   30  0.000  0.002  0.004  0.006
   31  0.000  0.002  0.004  0.006
   32  0.000  0.002  0.004  0.006
   33  0.000  0.002  0.004  0.006
   34  0.000  0.002  0.004  0.006
   35  0.016  0.003  0.001  0.020
   36  0.000  0.000  0.000  0.000
tot    0.348  0.117  0.175  0.640
 
band     7 # energy   -5.66711365 # occ.  2.00000000
 
ion      s      p      d    tot
    1  0.000  0.000  0.004  0.004
    2  0.005  0.002  0.002  0.009
    3  0.009  0.002  0.002  0.014
    4  0.005  0.002  0.002  0.009
    5  0.000  0.003  0.005  0.009
    6  0.001  0.001  0.002  0.003
    7  0.009  0.002  0.002  0.014
    8  0.001  0.001  0.002  0.004
    9  0.000  0.001  0.003  0.004
   10  0.000  0.001  0.014  0.016
   11  0.046  0.004  0.007  0.057
   12  0.018  0.004  0.005  0.027
   13  0.045  0.004  0.007  0.055
   14  0.000  0.006  0.012  0.018
   15  0.006  0.003  0.005  0.015
   16  0.019  0.004  0.005  0.027
   17  0.006  0.004  0.005  0.015
   18  0.000  0.013  0.002  0.015
   19  0.000  0.003  0.005  0.008
   20  0.000  0.011  0.006  0.017
   21  0.037  0.004  0.006  0.047
   22  0.035  0.004  0.006  0.045
   23  0.038  0.004  0.006  0.048
   24  0.000  0.000  0.017  0.017
   25  0.000  0.010  0.005  0.015
   26  0.000  0.004  0.005  0.008
   27  0.036  0.004  0.006  0.046
   28  0.000  0.000  0.002  0.003
   29  0.004  0.001  0.002  0.007
   30  0.010  0.003  0.003  0.015
   31  0.003  0.001  0.002  0.007
   32  0.001  0.001  0.002  0.005
   33  0.010  0.003  0.003  0.015
   34  0.002  0.001  0.002  0.005
   35  0.000  0.002  0.005  0.007
   36  0.000  0.005  0.012  0.017
tot    0.344  0.117  0.185  0.646
 
band     8 # energy   -5.66699309 # occ.  2.00000000
 
ion      s      p      d    tot
    1  0.000  0.000  0.004  0.004
    2  0.005  0.002  0.002  0.008
    3  0.001  0.001  0.002  0.004
    4  0.005  0.002  0.002  0.009
    5  0.000  0.003  0.005  0.009
    6  0.009  0.002  0.002  0.014
    7  0.001  0.001  0.002  0.004
    8  0.009  0.002  0.002  0.014
    9  0.000  0.001  0.003  0.004
   10  0.024  0.004  0.002  0.031
   11  0.014  0.005  0.010  0.030
   12  0.006  0.002  0.011  0.019
   13  0.016  0.005  0.010  0.031
   14  0.061  0.003  0.005  0.069
   15  0.002  0.010  0.003  0.015
   16  0.005  0.002  0.011  0.019
   17  0.002  0.010  0.003  0.015
   18  0.008  0.000  0.006  0.015
   19  0.000  0.008  0.005  0.013
   20  0.050  0.001  0.006  0.057
   21  0.013  0.008  0.006  0.028
   22  0.012  0.001  0.013  0.027
   23  0.012  0.008  0.006  0.027
   24  0.048  0.005  0.002  0.055
   25  0.000  0.001  0.005  0.006
   26  0.000  0.008  0.005  0.013
   27  0.011  0.001  0.014  0.026
   28  0.000  0.000  0.002  0.003
   29  0.006  0.002  0.003  0.011
   30  0.000  0.001  0.002  0.003
   31  0.006  0.002  0.003  0.011
   32  0.008  0.002  0.003  0.013
   33  0.000  0.001  0.002  0.003
   34  0.008  0.002  0.003  0.013
   35  0.000  0.002  0.005  0.007
   36  0.000  0.005  0.012  0.017
tot    0.344  0.117  0.185  0.646
 
band     9 # energy   -5.58657689 # occ.  2.00000000
 
ion      s      p      d    tot
    1  0.000  0.000  0.001  0.002
    2  0.002  0.002  0.005  0.009
    3  0.002  0.002  0.005  0.009
    4  0.002  0.002  0.005  0.009
    5  0.037  0.003  0.000  0.040
    6  0.002  0.002  0.005  0.009
    7  0.002  0.002  0.005  0.009
    8  0.002  0.002  0.005  0.009
    9  0.003  0.002  0.003  0.008
   10  0.004  0.005  0.008  0.017
   11  0.021  0.009  0.004  0.034
   12  0.004  0.005  0.008  0.017
   13  0.021  0.009  0.004  0.034
   14  0.022  0.009  0.004  0.034
   15  0.025  0.001  0.011  0.038
   16  0.004  0.005  0.008  0.017
   17  0.025  0.001  0.011  0.038
   18  0.025  0.001  0.011  0.038
   19  0.011  0.001  0.010  0.022
   20  0.019  0.005  0.005  0.030
   21  0.020  0.005  0.005  0.030
   22  0.006  0.006  0.005  0.018
   23  0.020  0.005  0.005  0.030
   24  0.006  0.006  0.005  0.018
   25  0.011  0.001  0.010  0.022
   26  0.011  0.001  0.010  0.022
   27  0.006  0.006  0.005  0.018
   28  0.000  0.001  0.003  0.004
   29  0.002  0.001  0.003  0.006
   30  0.002  0.001  0.003  0.006
   31  0.002  0.001  0.003  0.006
   32  0.002  0.001  0.003  0.006
   33  0.002  0.001  0.003  0.006
   34  0.002  0.001  0.003  0.006
   35  0.000  0.001  0.001  0.002
   36  0.023  0.003  0.000  0.026
tot    0.351  0.110  0.190  0.650
 
band    10 # energy   -4.94472038 # occ.  2.00000000
 
ion      s      p      d    tot
    1  0.000  0.004  0.010  0.014
    2  0.003  0.002  0.005  0.010
    3  0.020  0.004  0.005  0.029
    4  0.003  0.002  0.005  0.010
    5  0.000  0.000  0.010  0.010
    6  0.007  0.002  0.005  0.014
    7  0.020  0.004  0.005  0.029
    8  0.007  0.002  0.005  0.014
    9  0.000  0.005  0.008  0.013
   10  0.010  0.001  0.006  0.018
   11  0.001  0.002  0.013  0.016
   12  0.003  0.003  0.016  0.022
   13  0.001  0.002  0.013  0.016
   14  0.004  0.001  0.008  0.013
   15  0.006  0.001  0.018  0.026
   16  0.003  0.003  0.016  0.022
   17  0.007  0.001  0.018  0.026
   18  0.026  0.005  0.005  0.036
   19  0.003  0.002  0.014  0.018
   20  0.001  0.001  0.010  0.011
   21  0.000  0.002  0.013  0.015
   22  0.002  0.002  0.024  0.028
   23  0.000  0.002  0.013  0.015
   24  0.009  0.003  0.003  0.015
   25  0.013  0.006  0.009  0.028
   26  0.003  0.002  0.013  0.018
   27  0.002  0.002  0.024  0.028
   28  0.000  0.004  0.007  0.012
   29  0.005  0.002  0.007  0.014
   30  0.025  0.003  0.007  0.036
   31  0.005  0.002  0.007  0.014
   32  0.007  0.002  0.007  0.016
   33  0.025  0.003  0.007  0.036
   34  0.007  0.002  0.007  0.016
   35  0.000  0.005  0.010  0.015
   36  0.000  0.000  0.038  0.038
tot    0.231  0.092  0.387  0.710
 
band    11 # energy   -4.94466230 # occ.  2.00000000
 
ion      s      p      d    tot
    1  0.000  0.004  0.010  0.014
    2  0.017  0.003  0.005  0.025
    3  0.000  0.001  0.005  0.006
    4  0.017  0.003  0.005  0.025
    5  0.000  0.000  0.010  0.010
    6  0.013  0.003  0.005  0.021
    7  0.000  0.001  0.005  0.006
    8  0.013  0.003  0.005  0.021
    9  0.000  0.005  0.008  0.013
   10  0.000  0.004  0.019  0.023
   11  0.003  0.002  0.009  0.014
   12  0.008  0.002  0.009  0.019
   13  0.003  0.002  0.010  0.014
   14  0.000  0.003  0.015  0.017
   15  0.020  0.004  0.009  0.033
   16  0.008  0.002  0.009  0.019
   17  0.020  0.004  0.009  0.033
   18  0.000  0.000  0.022  0.022
   19  0.010  0.005  0.010  0.025
   20  0.000  0.002  0.014  0.016
   21  0.000  0.001  0.011  0.012
   22  0.007  0.003  0.010  0.019
   23  0.000  0.001  0.011  0.012
   24  0.000  0.002  0.030  0.032
   25  0.000  0.000  0.015  0.015
   26  0.010  0.005  0.010  0.025
   27  0.007  0.003  0.010  0.019
   28  0.000  0.004  0.007  0.012
   29  0.020  0.003  0.007  0.030
   30  0.000  0.002  0.007  0.009
   31  0.020  0.003  0.007  0.030
   32  0.018  0.003  0.007  0.028
   33  0.000  0.002  0.007  0.008
   34  0.018  0.003  0.007  0.028
   35  0.000  0.005  0.010  0.015
   36  0.000  0.000  0.038  0.038
tot    0.231  0.092  0.387  0.710
 
band    12 # energy   -4.91269510 # occ.  2.00000000
 
ion      s      p      d    tot
    1  0.010  0.000  0.008  0.018
    2  0.005  0.001  0.009  0.015
    3  0.005  0.001  0.009  0.015
    4  0.005  0.001  0.009  0.015
    5  0.001  0.001  0.010  0.012
    6  0.005  0.001  0.009  0.015
    7  0.005  0.001  0.009  0.015
    8  0.005  0.001  0.009  0.015
    9  0.007  0.000  0.008  0.016
   10  0.005  0.000  0.025  0.030
   11  0.011  0.000  0.022  0.033
   12  0.005  0.000  0.025  0.030
   13  0.011  0.000  0.022  0.033
   14  0.011  0.000  0.022  0.033
   15  0.005  0.000  0.023  0.027
   16  0.005  0.000  0.025  0.030
   17  0.005  0.000  0.023  0.027
   18  0.005  0.000  0.023  0.027
   19  0.004  0.000  0.022  0.025
   20  0.009  0.000  0.022  0.031
   21  0.009  0.000  0.022  0.031
   22  0.006  0.000  0.022  0.028
   23  0.009  0.000  0.022  0.031
   24  0.006  0.000  0.022  0.028
   25  0.004  0.000  0.022  0.025
   26  0.004  0.000  0.022  0.025
   27  0.006  0.000  0.022  0.028
   28  0.007  0.000  0.007  0.015
   29  0.004  0.000  0.008  0.013
   30  0.004  0.000  0.008  0.013
   31  0.004  0.000  0.008  0.013
   32  0.004  0.000  0.008  0.013
   33  0.004  0.000  0.008  0.013
   34  0.004  0.000  0.008  0.013
   35  0.005  0.000  0.008  0.013
   36  0.001  0.002  0.021  0.023
tot    0.198  0.012  0.572  0.783
 
band    13 # energy   -4.89912501 # occ.  2.00000000
 
ion      s      p      d    tot
    1  0.028  0.003  0.001  0.033
    2  0.000  0.003  0.010  0.013
    3  0.000  0.003  0.010  0.013
    4  0.000  0.003  0.010  0.013
    5  0.000  0.000  0.000  0.000
    6  0.000  0.003  0.010  0.013
    7  0.000  0.003  0.010  0.013
    8  0.000  0.003  0.010  0.013
    9  0.035  0.004  0.000  0.039
   10  0.011  0.003  0.010  0.024
   11  0.000  0.000  0.015  0.016
   12  0.011  0.003  0.010  0.024
   13  0.000  0.000  0.015  0.016
   14  0.000  0.000  0.015  0.016
   15  0.006  0.004  0.017  0.027
   16  0.011  0.003  0.010  0.024
   17  0.006  0.004  0.017  0.027
   18  0.006  0.004  0.017  0.027
   19  0.005  0.003  0.020  0.028
   20  0.001  0.000  0.013  0.014
   21  0.001  0.000  0.013  0.014
   22  0.009  0.004  0.010  0.023
   23  0.001  0.000  0.013  0.014
   24  0.009  0.004  0.010  0.023
   25  0.005  0.003  0.020  0.028
   26  0.005  0.003  0.020  0.028
   27  0.009  0.004  0.010  0.023
   28  0.032  0.003  0.000  0.036
   29  0.000  0.003  0.010  0.014
   30  0.000  0.003  0.010  0.014
   31  0.000  0.003  0.010  0.014
   32  0.000  0.003  0.010  0.014
   33  0.000  0.003  0.010  0.014
   34  0.000  0.003  0.010  0.014
   35  0.034  0.004  0.000  0.039
   36  0.000  0.000  0.000  0.000
tot    0.230  0.095  0.379  0.704
 
band    14 # energy   -4.88159534 # occ.  2.00000000
 
ion      s      p      d    tot
    1  0.000  0.002  0.009  0.012
    2  0.003  0.002  0.005  0.011
    3  0.021  0.004  0.006  0.031
    4  0.003  0.002  0.005  0.010
    5  0.000  0.006  0.009  0.015
    6  0.008  0.002  0.005  0.015
    7  0.021  0.004  0.006  0.031
    8  0.009  0.002  0.005  0.016
    9  0.000  0.001  0.013  0.014
   10  0.000  0.000  0.017  0.018
   11  0.015  0.004  0.010  0.029
   12  0.011  0.003  0.011  0.025
   13  0.014  0.003  0.011  0.029
   14  0.000  0.002  0.028  0.030
   15  0.000  0.001  0.011  0.012
   16  0.011  0.004  0.011  0.026
   17  0.000  0.001  0.011  0.013
   18  0.000  0.004  0.019  0.023
   19  0.002  0.001  0.011  0.013
   20  0.000  0.001  0.027  0.028
   21  0.015  0.004  0.010  0.030
   22  0.007  0.003  0.011  0.020
   23  0.016  0.004  0.010  0.030
   24  0.000  0.001  0.015  0.015
   25  0.000  0.004  0.022  0.026
   26  0.002  0.001  0.011  0.014
   27  0.007  0.003  0.011  0.021
   28  0.000  0.002  0.012  0.014
   29  0.004  0.002  0.005  0.011
   30  0.019  0.004  0.006  0.029
   31  0.003  0.002  0.005  0.010
   32  0.006  0.002  0.005  0.013
   33  0.019  0.004  0.006  0.029
   34  0.006  0.002  0.005  0.014
   35  0.000  0.001  0.010  0.011
   36  0.000  0.008  0.020  0.028
tot    0.221  0.095  0.397  0.713
 
band    15 # energy   -4.88156008 # occ.  2.00000000
 
ion      s      p      d    tot
    1  0.000  0.002  0.009  0.012
    2  0.018  0.003  0.005  0.027
    3  0.001  0.002  0.005  0.007
    4  0.019  0.004  0.005  0.028
    5  0.000  0.006  0.009  0.015
    6  0.014  0.003  0.006  0.023
    7  0.000  0.002  0.005  0.007
    8  0.013  0.003  0.006  0.022
    9  0.000  0.001  0.013  0.014
   10  0.015  0.004  0.009  0.028
   11  0.004  0.002  0.023  0.030
   12  0.004  0.001  0.015  0.021
   13  0.005  0.002  0.022  0.029
   14  0.019  0.004  0.005  0.028
   15  0.000  0.003  0.017  0.020
   16  0.003  0.001  0.016  0.020
   17  0.000  0.003  0.016  0.019
   18  0.000  0.000  0.008  0.009
   19  0.001  0.003  0.019  0.022
   20  0.021  0.005  0.004  0.030
   21  0.006  0.002  0.021  0.028
   22  0.002  0.002  0.013  0.017
   23  0.005  0.002  0.022  0.028
   24  0.009  0.003  0.010  0.022
   25  0.002  0.000  0.007  0.010
   26  0.001  0.003  0.018  0.022
   27  0.002  0.001  0.013  0.017
   28  0.000  0.002  0.012  0.014
   29  0.015  0.003  0.006  0.024
   30  0.000  0.001  0.005  0.006
   31  0.015  0.003  0.006  0.025
   32  0.013  0.003  0.006  0.022
   33  0.000  0.001  0.005  0.006
   34  0.013  0.003  0.006  0.021
   35  0.000  0.001  0.010  0.011
   36  0.000  0.008  0.020  0.028
tot    0.221  0.095  0.397  0.713
 
band    16 # energy   -4.75078653 # occ.  2.00000000
 
ion      s      p      d    tot
    1  0.015  0.002  0.000  0.017
    2  0.000  0.003  0.011  0.014
    3  0.000  0.003  0.011  0.014
    4  0.000  0.003  0.011  0.014
    5  0.045  0.004  0.000  0.049
    6  0.000  0.003  0.011  0.014
    7  0.000  0.003  0.011  0.014
    8  0.000  0.003  0.011  0.014
    9  0.004  0.001  0.001  0.006
   10  0.002  0.001  0.026  0.029
   11  0.005  0.004  0.020  0.029
   12  0.002  0.001  0.026  0.029
   13  0.005  0.004  0.020  0.029
   14  0.005  0.004  0.020  0.028
   15  0.003  0.001  0.010  0.015
   16  0.002  0.001  0.026  0.029
   17  0.003  0.001  0.010  0.015
   18  0.003  0.001  0.010  0.015
   19  0.010  0.001  0.021  0.032
   20  0.011  0.004  0.007  0.022
   21  0.011  0.004  0.007  0.022
   22  0.002  0.001  0.019  0.022
   23  0.011  0.004  0.007  0.022
   24  0.002  0.001  0.019  0.022
   25  0.010  0.001  0.021  0.032
   26  0.010  0.001  0.021  0.032
   27  0.002  0.001  0.019  0.022
   28  0.004  0.002  0.005  0.010
   29  0.001  0.002  0.009  0.012
   30  0.001  0.002  0.009  0.012
   31  0.001  0.002  0.009  0.012
   32  0.001  0.002  0.009  0.012
   33  0.001  0.002  0.009  0.012
   34  0.001  0.002  0.009  0.012
   35  0.004  0.001  0.001  0.006
   36  0.042  0.006  0.000  0.048
tot    0.218  0.084  0.436  0.738
 
band    17 # energy   -4.28368630 # occ.  2.00000000
 
ion      s      p      d    tot
    1  0.000  0.001  0.027  0.028
    2  0.015  0.001  0.008  0.024
    3  0.006  0.001  0.007  0.015
    4  0.015  0.001  0.008  0.024
    5  0.000  0.001  0.014  0.015
    6  0.002  0.001  0.008  0.010
    7  0.006  0.001  0.007  0.014
    8  0.002  0.001  0.008  0.010
    9  0.000  0.003  0.003  0.006
   10  0.000  0.000  0.060  0.060
   11  0.000  0.003  0.017  0.020
   12  0.000  0.000  0.018  0.019
   13  0.000  0.003  0.017  0.020
   14  0.000  0.000  0.008  0.008
   15  0.000  0.005  0.016  0.021
   16  0.000  0.000  0.018  0.018
   17  0.000  0.005  0.016  0.021
   18  0.000  0.000  0.027  0.027
   19  0.003  0.003  0.015  0.022
   20  0.000  0.000  0.050  0.050
   21  0.000  0.000  0.019  0.020
   22  0.002  0.002  0.016  0.020
   23  0.000  0.000  0.019  0.019
   24  0.000  0.000  0.022  0.022
   25  0.000  0.000  0.017  0.017
   26  0.003  0.003  0.015  0.022
   27  0.002  0.002  0.015  0.020
   28  0.000  0.001  0.007  0.008
   29  0.010  0.000  0.017  0.027
   30  0.000  0.001  0.013  0.014
   31  0.010  0.000  0.017  0.028
   32  0.011  0.000  0.015  0.027
   33  0.000  0.001  0.013  0.014
   34  0.011  0.000  0.015  0.026
   35  0.000  0.002  0.008  0.009
   36  0.000  0.000  0.089  0.089
tot    0.099  0.045  0.668  0.812
 
band    18 # energy   -4.28364814 # occ.  2.00000000
 
ion      s      p      d    tot
    1  0.000  0.001  0.027  0.028
    2  0.000  0.001  0.007  0.009
    3  0.009  0.001  0.008  0.018
    4  0.000  0.001  0.007  0.009
    5  0.000  0.001  0.014  0.015
    6  0.013  0.001  0.008  0.022
    7  0.009  0.001  0.008  0.018
    8  0.013  0.001  0.008  0.022
    9  0.000  0.003  0.003  0.006
   10  0.000  0.000  0.004  0.004
   11  0.000  0.001  0.011  0.012
   12  0.000  0.000  0.046  0.046
   13  0.000  0.001  0.011  0.012
   14  0.000  0.004  0.020  0.024
   15  0.000  0.002  0.023  0.025
   16  0.000  0.000  0.046  0.046
   17  0.000  0.002  0.023  0.025
   18  0.000  0.007  0.012  0.019
   19  0.001  0.001  0.016  0.019
   20  0.000  0.000  0.009  0.009
   21  0.000  0.000  0.039  0.039
   22  0.001  0.001  0.020  0.021
   23  0.000  0.000  0.040  0.040
   24  0.003  0.003  0.013  0.019
   25  0.004  0.004  0.015  0.023
   26  0.001  0.001  0.016  0.019
   27  0.001  0.001  0.020  0.021
   28  0.000  0.001  0.007  0.008
   29  0.004  0.001  0.013  0.018
   30  0.014  0.000  0.017  0.031
   31  0.004  0.001  0.013  0.018
   32  0.003  0.001  0.015  0.019
   33  0.014  0.000  0.017  0.031
   34  0.003  0.001  0.015  0.019
   35  0.000  0.002  0.008  0.009
   36  0.000  0.000  0.089  0.089
tot    0.099  0.045  0.668  0.812
 
band    19 # energy   -4.20143414 # occ.  2.00000000
 
ion      s      p      d    tot
    1  0.003  0.000  0.001  0.004
    2  0.000  0.001  0.018  0.020
    3  0.000  0.001  0.018  0.020
    4  0.000  0.001  0.018  0.020
    5  0.015  0.001  0.000  0.016
    6  0.000  0.001  0.018  0.020
    7  0.000  0.001  0.018  0.020
    8  0.000  0.001  0.018  0.020
    9  0.030  0.001  0.002  0.033
   10  0.000  0.001  0.009  0.011
   11  0.000  0.001  0.020  0.021
   12  0.000  0.001  0.009  0.011
   13  0.000  0.001  0.020  0.021
   14  0.000  0.001  0.020  0.021
   15  0.000  0.004  0.042  0.046
   16  0.000  0.001  0.009  0.011
   17  0.000  0.004  0.042  0.046
   18  0.000  0.004  0.042  0.046
   19  0.000  0.001  0.028  0.030
   20  0.000  0.001  0.006  0.007
   21  0.000  0.001  0.006  0.007
   22  0.001  0.004  0.036  0.040
   23  0.000  0.001  0.006  0.007
   24  0.001  0.004  0.036  0.040
   25  0.000  0.001  0.028  0.030
   26  0.000  0.001  0.028  0.030
   27  0.001  0.004  0.036  0.040
   28  0.021  0.001  0.001  0.023
   29  0.000  0.001  0.018  0.019
   30  0.000  0.001  0.018  0.019
   31  0.000  0.001  0.018  0.019
   32  0.000  0.001  0.018  0.019
   33  0.000  0.001  0.018  0.019
   34  0.000  0.001  0.018  0.019
   35  0.023  0.001  0.003  0.027
   36  0.000  0.000  0.001  0.001
tot    0.099  0.054  0.645  0.799
 
band    20 # energy   -4.18599006 # occ.  2.00000000
 
ion      s      p      d    tot
    1  0.000  0.002  0.001  0.004
    2  0.014  0.001  0.010  0.026
    3  0.008  0.001  0.009  0.018
    4  0.014  0.001  0.010  0.026
    5  0.000  0.002  0.022  0.024
    6  0.001  0.001  0.010  0.011
    7  0.008  0.001  0.009  0.018
    8  0.001  0.001  0.010  0.011
    9  0.000  0.000  0.032  0.032
   10  0.001  0.007  0.021  0.029
   11  0.000  0.001  0.041  0.042
   12  0.000  0.002  0.012  0.014
   13  0.000  0.001  0.042  0.042
   14  0.001  0.002  0.005  0.008
   15  0.000  0.000  0.032  0.033
   16  0.000  0.002  0.012  0.014
   17  0.000  0.000  0.032  0.033
   18  0.000  0.001  0.012  0.014
   19  0.000  0.000  0.047  0.047
   20  0.001  0.007  0.017  0.025
   21  0.000  0.002  0.014  0.016
   22  0.000  0.001  0.025  0.026
   23  0.000  0.002  0.014  0.017
   24  0.000  0.003  0.017  0.020
   25  0.001  0.001  0.004  0.005
   26  0.000  0.000  0.047  0.048
   27  0.000  0.001  0.025  0.026
   28  0.000  0.001  0.032  0.033
   29  0.011  0.001  0.010  0.023
   30  0.000  0.001  0.009  0.010
   31  0.011  0.001  0.010  0.022
   32  0.011  0.001  0.010  0.022
   33  0.000  0.001  0.009  0.010
   34  0.011  0.001  0.010  0.022
   35  0.000  0.000  0.027  0.027
   36  0.000  0.003  0.002  0.005
tot    0.095  0.053  0.655  0.803
 
band    21 # energy   -4.18595719 # occ.  2.00000000
 
ion      s      p      d    tot
    1  0.000  0.002  0.001  0.004
    2  0.001  0.001  0.009  0.011
    3  0.007  0.001  0.010  0.019
    4  0.001  0.001  0.009  0.011
    5  0.000  0.002  0.022  0.024
    6  0.015  0.001  0.010  0.026
    7  0.007  0.001  0.010  0.018
    8  0.015  0.001  0.010  0.025
    9  0.000  0.000  0.032  0.032
   10  0.000  0.000  0.009  0.009
   11  0.001  0.002  0.017  0.020
   12  0.001  0.005  0.018  0.024
   13  0.001  0.002  0.017  0.019
   14  0.000  0.000  0.054  0.054
   15  0.000  0.001  0.019  0.020
   16  0.001  0.005  0.018  0.024
   17  0.000  0.001  0.019  0.020
   18  0.000  0.000  0.039  0.039
   19  0.000  0.001  0.018  0.020
   20  0.000  0.000  0.013  0.014
   21  0.001  0.005  0.016  0.023
   22  0.000  0.002  0.020  0.022
   23  0.001  0.005  0.016  0.022
   24  0.000  0.000  0.028  0.028
   25  0.000  0.000  0.062  0.062
   26  0.000  0.001  0.018  0.019
   27  0.000  0.002  0.020  0.022
   28  0.000  0.001  0.031  0.033
   29  0.003  0.001  0.010  0.014
   30  0.014  0.001  0.010  0.026
   31  0.003  0.001  0.010  0.014
   32  0.004  0.001  0.010  0.015
   33  0.014  0.001  0.010  0.026
   34  0.004  0.001  0.010  0.014
   35  0.000  0.000  0.027  0.027
   36  0.000  0.003  0.002  0.005
tot    0.095  0.053  0.655  0.803
 
band    22 # energy   -4.09706115 # occ.  2.00000000
 
ion      s      p      d    tot
    1  0.027  0.001  0.002  0.030
    2  0.000  0.001  0.019  0.020
    3  0.000  0.001  0.019  0.020
    4  0.000  0.001  0.019  0.020
    5  0.009  0.000  0.005  0.014
    6  0.000  0.001  0.019  0.020
    7  0.000  0.001  0.019  0.020
    8  0.000  0.001  0.019  0.020
    9  0.004  0.000  0.000  0.005
   10  0.000  0.002  0.033  0.035
   11  0.001  0.002  0.025  0.027
   12  0.000  0.002  0.033  0.035
   13  0.001  0.002  0.025  0.027
   14  0.001  0.002  0.024  0.027
   15  0.000  0.000  0.013  0.013
   16  0.000  0.002  0.033  0.035