PROCAR new format
# of k-points:   10         # of bands:  252         # of ions:   36

 k-point     1 :    0.00000000 0.00000000 0.00000000     weight = 0.01562500

band     1 # energy   -6.28896917 # occ.  2.00000000
 
ion      s      p      d    tot
    1  0.006  0.001  0.000  0.006
    2  0.006  0.001  0.000  0.006
    3  0.006  0.001  0.000  0.006
    4  0.006  0.001  0.000  0.006
    5  0.006  0.001  0.000  0.006
    6  0.006  0.001  0.000  0.006
    7  0.006  0.001  0.000  0.006
    8  0.006  0.001  0.000  0.006
    9  0.006  0.001  0.000  0.006
   10  0.023  0.000  0.000  0.023
   11  0.023  0.000  0.000  0.024
   12  0.023  0.000  0.000  0.023
   13  0.023  0.000  0.000  0.024
   14  0.023  0.000  0.000  0.024
   15  0.023  0.000  0.000  0.023
   16  0.023  0.000  0.000  0.023
   17  0.023  0.000  0.000  0.023
   18  0.023  0.000  0.000  0.023
   19  0.022  0.000  0.000  0.023
   20  0.024  0.000  0.000  0.025
   21  0.024  0.000  0.000  0.025
   22  0.023  0.000  0.000  0.024
   23  0.024  0.000  0.000  0.025
   24  0.023  0.000  0.000  0.023
   25  0.022  0.000  0.000  0.023
   26  0.022  0.000  0.000  0.023
   27  0.023  0.000  0.000  0.024
   28  0.006  0.001  0.000  0.006
   29  0.006  0.001  0.000  0.007
   30  0.006  0.001  0.000  0.007
   31  0.006  0.001  0.000  0.007
   32  0.006  0.001  0.000  0.007
   33  0.006  0.001  0.000  0.007
   34  0.006  0.001  0.000  0.007
   35  0.006  0.001  0.000  0.006
   36  0.014  0.001  0.000  0.015
tot    0.529  0.013  0.005  0.547
 
band     2 # energy   -5.42020881 # occ.  2.00000000
 
ion      s      p      d    tot
    1  0.008  0.000  0.001  0.009
    2  0.009  0.000  0.000  0.010
    3  0.009  0.000  0.000  0.010
    4  0.009  0.000  0.000  0.010
    5  0.009  0.000  0.000  0.010
    6  0.009  0.000  0.000  0.010
    7  0.009  0.000  0.000  0.010
    8  0.009  0.000  0.000  0.010
    9  0.009  0.000  0.000  0.010
   10  0.011  0.001  0.014  0.026
   11  0.012  0.001  0.013  0.026
   12  0.011  0.001  0.014  0.026
   13  0.012  0.001  0.013  0.026
   14  0.012  0.001  0.013  0.026
   15  0.012  0.001  0.013  0.026
   16  0.011  0.001  0.014  0.026
   17  0.012  0.001  0.013  0.026
   18  0.012  0.001  0.013  0.026
   19  0.010  0.001  0.012  0.023
   20  0.012  0.001  0.010  0.024
   21  0.012  0.001  0.010  0.024
   22  0.010  0.001  0.013  0.024
   23  0.012  0.001  0.010  0.024
   24  0.010  0.001  0.013  0.024
   25  0.010  0.001  0.012  0.023
   26  0.010  0.001  0.012  0.023
   27  0.010  0.001  0.013  0.024
   28  0.008  0.000  0.000  0.009
   29  0.009  0.000  0.001  0.011
   30  0.009  0.000  0.001  0.011
   31  0.009  0.000  0.001  0.011
   32  0.009  0.000  0.001  0.011
   33  0.009  0.000  0.001  0.011
   34  0.009  0.000  0.001  0.011
   35  0.008  0.000  0.000  0.008
   36  0.024  0.001  0.000  0.025
tot    0.375  0.028  0.235  0.638
 
band     3 # energy   -5.14017038 # occ.  2.00000000
 
ion      s      p      d    tot
    1  0.007  0.000  0.019  0.025
    2  0.009  0.000  0.015  0.024
    3  0.009  0.000  0.015  0.024
    4  0.009  0.000  0.015  0.024
    5  0.010  0.000  0.014  0.024
    6  0.009  0.000  0.015  0.024
    7  0.009  0.000  0.015  0.024
    8  0.009  0.000  0.015  0.024
    9  0.012  0.000  0.014  0.025
   10  0.001  0.000  0.019  0.020
   11  0.001  0.000  0.021  0.022
   12  0.001  0.000  0.019  0.020
   13  0.001  0.000  0.021  0.022
   14  0.001  0.000  0.021  0.022
   15  0.000  0.000  0.022  0.022
   16  0.001  0.000  0.019  0.020
   17  0.000  0.000  0.022  0.022
   18  0.000  0.000  0.022  0.022
   19  0.001  0.000  0.018  0.019
   20  0.000  0.000  0.024  0.025
   21  0.000  0.000  0.024  0.025
   22  0.002  0.000  0.018  0.020
   23  0.000  0.000  0.024  0.025
   24  0.002  0.000  0.018  0.020
   25  0.001  0.000  0.018  0.019
   26  0.001  0.000  0.018  0.019
   27  0.002  0.000  0.018  0.020
   28  0.004  0.000  0.014  0.018
   29  0.007  0.000  0.012  0.020
   30  0.007  0.000  0.012  0.020
   31  0.007  0.000  0.012  0.020
   32  0.007  0.000  0.012  0.020
   33  0.007  0.000  0.012  0.020
   34  0.007  0.000  0.012  0.020
   35  0.005  0.000  0.012  0.016
   36  0.026  0.000  0.004  0.030
tot    0.176  0.005  0.607  0.788
 
band     4 # energy   -5.01482268 # occ.  2.00000000
 
ion      s      p      d    tot
    1  0.016  0.001  0.001  0.018
    2  0.005  0.000  0.013  0.018
    3  0.005  0.000  0.013  0.018
    4  0.005  0.000  0.013  0.018
    5  0.005  0.000  0.017  0.022
    6  0.005  0.000  0.013  0.018
    7  0.005  0.000  0.013  0.018
    8  0.005  0.000  0.013  0.018
    9  0.000  0.001  0.016  0.017
   10  0.002  0.000  0.048  0.049
   11  0.000  0.000  0.024  0.025
   12  0.002  0.000  0.048  0.049
   13  0.000  0.000  0.024  0.025
   14  0.000  0.000  0.024  0.025
   15  0.013  0.001  0.004  0.018
   16  0.002  0.000  0.048  0.049
   17  0.013  0.001  0.004  0.018
   18  0.013  0.001  0.004  0.018
   19  0.003  0.000  0.030  0.034
   20  0.005  0.000  0.028  0.033
   21  0.005  0.000  0.028  0.033
   22  0.009  0.001  0.003  0.013
   23  0.005  0.000  0.028  0.033
   24  0.009  0.001  0.003  0.013
   25  0.003  0.000  0.030  0.034
   26  0.003  0.000  0.030  0.034
   27  0.009  0.001  0.003  0.013
   28  0.001  0.001  0.009  0.011
   29  0.001  0.000  0.010  0.011
   30  0.001  0.000  0.010  0.011
   31  0.001  0.000  0.010  0.011
   32  0.001  0.000  0.010  0.011
   33  0.001  0.000  0.010  0.011
   34  0.001  0.000  0.010  0.011
   35  0.000  0.000  0.001  0.002
   36  0.028  0.002  0.000  0.030
tot    0.177  0.016  0.596  0.789
 
band     5 # energy   -4.99199375 # occ.  2.00000000
 
ion      s      p      d    tot
    1  0.000  0.000  0.001  0.001
    2  0.000  0.000  0.003  0.003
    3  0.002  0.001  0.006  0.008
    4  0.000  0.000  0.003  0.003
    5  0.000  0.000  0.009  0.009
    6  0.001  0.000  0.003  0.005
    7  0.002  0.001  0.006  0.008
    8  0.001  0.000  0.003  0.005
    9  0.000  0.000  0.005  0.005
   10  0.001  0.000  0.022  0.023
   11  0.006  0.000  0.066  0.073
   12  0.000  0.001  0.042  0.043
   13  0.006  0.000  0.066  0.072
   14  0.025  0.001  0.005  0.031
   15  0.004  0.001  0.019  0.025
   16  0.000  0.001  0.043  0.043
   17  0.004  0.001  0.020  0.025
   18  0.017  0.000  0.034  0.051
   19  0.001  0.000  0.043  0.044
   20  0.009  0.000  0.031  0.040
   21  0.002  0.001  0.016  0.020
   22  0.006  0.001  0.047  0.054
   23  0.002  0.001  0.016  0.019
   24  0.024  0.001  0.010  0.035
   25  0.004  0.001  0.013  0.018
   26  0.001  0.000  0.043  0.044
   27  0.006  0.001  0.047  0.054
   28  0.000  0.000  0.002  0.002
   29  0.001  0.000  0.004  0.006
   30  0.000  0.000  0.002  0.002
   31  0.001  0.000  0.004  0.006
   32  0.001  0.000  0.003  0.005
   33  0.000  0.000  0.002  0.002
   34  0.001  0.000  0.003  0.005
   35  0.000  0.000  0.009  0.009
   36  0.000  0.000  0.001  0.001
tot    0.131  0.017  0.652  0.800
 
band     6 # energy   -4.99198595 # occ.  2.00000000
 
ion      s      p      d    tot
    1  0.000  0.000  0.001  0.001
    2  0.002  0.001  0.005  0.007
    3  0.000  0.000  0.002  0.003
    4  0.002  0.001  0.005  0.007
    5  0.000  0.000  0.009  0.009
    6  0.001  0.000  0.005  0.006
    7  0.000  0.000  0.002  0.003
    8  0.001  0.000  0.005  0.006
    9  0.000  0.000  0.005  0.005
   10  0.000  0.001  0.050  0.050
   11  0.019  0.001  0.025  0.045
   12  0.001  0.000  0.029  0.030
   13  0.019  0.001  0.025  0.045
   14  0.000  0.000  0.086  0.086
   15  0.013  0.001  0.029  0.042
   16  0.001  0.000  0.028  0.030
   17  0.013  0.001  0.029  0.042
   18  0.000  0.002  0.015  0.016
   19  0.003  0.000  0.023  0.026
   20  0.000  0.001  0.011  0.013
   21  0.007  0.001  0.026  0.033
   22  0.018  0.001  0.022  0.041
   23  0.007  0.001  0.026  0.033
   24  0.000  0.001  0.060  0.060
   25  0.000  0.000  0.053  0.053
   26  0.003  0.000  0.023  0.027
   27  0.018  0.001  0.022  0.041
   28  0.000  0.000  0.002  0.002
   29  0.000  0.000  0.002  0.003
   30  0.002  0.001  0.004  0.006
   31  0.000  0.000  0.002  0.003
   32  0.001  0.000  0.003  0.004
   33  0.002  0.001  0.004  0.006
   34  0.001  0.000  0.003  0.004
   35  0.000  0.000  0.009  0.009
   36  0.000  0.000  0.001  0.001
tot    0.131  0.017  0.652  0.800
 
band     7 # energy   -4.98513155 # occ.  2.00000000
 
ion      s      p      d    tot
    1  0.002  0.001  0.001  0.003
    2  0.000  0.000  0.005  0.005
    3  0.000  0.000  0.005  0.005
    4  0.000  0.000  0.005  0.005
    5  0.004  0.001  0.007  0.013
    6  0.000  0.000  0.005  0.005
    7  0.000  0.000  0.005  0.005
    8  0.000  0.000  0.005  0.005
    9  0.001  0.000  0.003  0.004
   10  0.010  0.001  0.003  0.015
   11  0.012  0.000  0.056  0.067
   12  0.010  0.001  0.003  0.014
   13  0.012  0.000  0.056  0.067
   14  0.012  0.000  0.055  0.067
   15  0.000  0.000  0.051  0.052
   16  0.010  0.001  0.003  0.014
   17  0.000  0.000  0.051  0.052
   18  0.000  0.000  0.051  0.051
   19  0.010  0.001  0.020  0.032
   20  0.003  0.001  0.015  0.019
   21  0.003  0.001  0.015  0.019
   22  0.003  0.000  0.052  0.055
   23  0.003  0.001  0.015  0.019
   24  0.003  0.000  0.052  0.055
   25  0.010  0.001  0.021  0.032
   26  0.010  0.001  0.021  0.032
   27  0.003  0.000  0.052  0.055
   28  0.003  0.001  0.003  0.007
   29  0.000  0.000  0.003  0.003
   30  0.000  0.000  0.003  0.003
   31  0.000  0.000  0.003  0.003
   32  0.000  0.000  0.003  0.003
   33  0.000  0.000  0.003  0.003
   34  0.000  0.000  0.003  0.003
   35  0.003  0.001  0.006  0.010
   36  0.000  0.000  0.000  0.000
tot    0.128  0.016  0.660  0.803
 
band     8 # energy   -4.98316782 # occ.  2.00000000
 
ion      s      p      d    tot
    1  0.000  0.000  0.008  0.008
    2  0.001  0.001  0.006  0.007
    3  0.000  0.000  0.003  0.003
    4  0.001  0.001  0.006  0.008
    5  0.000  0.000  0.001  0.001
    6  0.001  0.000  0.005  0.005
    7  0.000  0.000  0.003  0.003
    8  0.000  0.000  0.004  0.005
    9  0.000  0.000  0.006  0.006
   10  0.026  0.001  0.025  0.052
   11  0.000  0.001  0.028  0.030
   12  0.008  0.001  0.036  0.044
   13  0.001  0.001  0.029  0.031
   14  0.002  0.000  0.038  0.040
   15  0.003  0.000  0.087  0.091
   16  0.006  0.001  0.037  0.043
   17  0.004  0.000  0.079  0.083
   18  0.015  0.001  0.007  0.022
   19  0.003  0.001  0.021  0.025
   20  0.014  0.001  0.008  0.022
   21  0.004  0.000  0.038  0.042
   22  0.000  0.001  0.034  0.035
   23  0.003  0.000  0.041  0.044
   24  0.000  0.000  0.027  0.027
   25  0.014  0.001  0.023  0.038
   26  0.004  0.001  0.021  0.026
   27  0.000  0.001  0.035  0.036
   28  0.000  0.000  0.006  0.006
   29  0.000  0.000  0.002  0.003
   30  0.001  0.000  0.003  0.004
   31  0.000  0.000  0.002  0.002
   32  0.001  0.000  0.002  0.003
   33  0.001  0.000  0.003  0.005
   34  0.001  0.000  0.002  0.003
   35  0.000  0.000  0.002  0.002
   36  0.000  0.000  0.002  0.002
tot    0.113  0.016  0.681  0.809
 
band     9 # energy   -4.98316193 # occ.  2.00000000
 
ion      s      p      d    tot
    1  0.000  0.000  0.008  0.008
    2  0.000  0.000  0.003  0.003
    3  0.001  0.000  0.006  0.007
    4  0.000  0.000  0.003  0.003
    5  0.000  0.000  0.001  0.001
    6  0.001  0.000  0.004  0.005
    7  0.001  0.000  0.006  0.008
    8  0.001  0.000  0.004  0.006
    9  0.000  0.000  0.006  0.006
   10  0.000  0.001  0.040  0.041
   11  0.001  0.000  0.035  0.037
   12  0.019  0.001  0.029  0.049
   13  0.001  0.001  0.035  0.036
   14  0.000  0.001  0.026  0.028
   15  0.012  0.001  0.028  0.040
   16  0.021  0.001  0.028  0.050
   17  0.010  0.000  0.037  0.048
   18  0.000  0.000  0.108  0.108
   19  0.011  0.001  0.023  0.035
   20  0.000  0.000  0.050  0.050
   21  0.010  0.001  0.020  0.030
   22  0.000  0.000  0.030  0.030
   23  0.011  0.001  0.016  0.028
   24  0.000  0.001  0.037  0.038
   25  0.000  0.001  0.020  0.021
   26  0.010  0.001  0.023  0.033
   27  0.000  0.000  0.029  0.029
   28  0.000  0.000  0.006  0.006
   29  0.001  0.000  0.003  0.004
   30  0.000  0.000  0.002  0.002
   31  0.001  0.000  0.003  0.004
   32  0.000  0.000  0.003  0.004
   33  0.000  0.000  0.002  0.002
   34  0.000  0.000  0.003  0.004
   35  0.000  0.000  0.002  0.002
   36  0.000  0.000  0.002  0.002
tot    0.113  0.016  0.680  0.809
 
band    10 # energy   -4.96511824 # occ.  2.00000000
 
ion      s      p      d    tot
    1  0.003  0.000  0.015  0.017
    2  0.002  0.000  0.009  0.011
    3  0.002  0.000  0.009  0.011
    4  0.002  0.000  0.009  0.011
    5  0.001  0.000  0.008  0.009
    6  0.002  0.000  0.009  0.011
    7  0.002  0.000  0.009  0.011
    8  0.002  0.000  0.009  0.011
    9  0.003  0.000  0.000  0.003
   10  0.001  0.000  0.047  0.049
   11  0.007  0.001  0.013  0.021
   12  0.001  0.000  0.047  0.049
   13  0.007  0.001  0.013  0.021
   14  0.007  0.001  0.013  0.021
   15  0.004  0.000  0.049  0.054
   16  0.001  0.000  0.047  0.049
   17  0.004  0.000  0.049  0.054
   18  0.004  0.000  0.049  0.054
   19  0.004  0.000  0.025  0.030
   20  0.001  0.001  0.014  0.016
   21  0.001  0.001  0.014  0.016
   22  0.001  0.000  0.041  0.042
   23  0.001  0.001  0.014  0.016
   24  0.001  0.000  0.041  0.042
   25  0.004  0.000  0.025  0.030
   26  0.004  0.000  0.025  0.030
   27  0.001  0.000  0.041  0.042
   28  0.002  0.000  0.012  0.014
   29  0.002  0.000  0.009  0.011
   30  0.002  0.000  0.009  0.011
   31  0.002  0.000  0.009  0.011
   32  0.002  0.000  0.009  0.011
   33  0.002  0.000  0.009  0.011
   34  0.002  0.000  0.009  0.011
   35  0.001  0.000  0.001  0.002
   36  0.006  0.000  0.003  0.009
tot    0.093  0.011  0.715  0.819
 
band    11 # energy   -4.94739452 # occ.  2.00000000
 
ion      s      p      d    tot
    1  0.000  0.000  0.016  0.017
    2  0.002  0.000  0.012  0.014
    3  0.002  0.000  0.012  0.013
    4  0.002  0.000  0.012  0.014
    5  0.000  0.000  0.000  0.000
    6  0.002  0.000  0.012  0.013
    7  0.002  0.000  0.012  0.013
    8  0.002  0.000  0.012  0.013
    9  0.010  0.000  0.007  0.017
   10  0.004  0.000  0.024  0.028
   11  0.000  0.000  0.037  0.038
   12  0.004  0.000  0.023  0.028
   13  0.000  0.000  0.037  0.038
   14  0.000  0.000  0.037  0.038
   15  0.000  0.000  0.018  0.019
   16  0.004  0.000  0.023  0.028
   17  0.000  0.000  0.018  0.019
   18  0.000  0.000  0.018  0.019
   19  0.001  0.001  0.005  0.006
   20  0.002  0.000  0.030  0.032
   21  0.002  0.000  0.030  0.032
   22  0.003  0.000  0.058  0.062
   23  0.002  0.000  0.030  0.032
   24  0.003  0.000  0.059  0.062
   25  0.001  0.001  0.005  0.006
   26  0.001  0.001  0.005  0.006
   27  0.003  0.000  0.058  0.062
   28  0.012  0.000  0.003  0.015
   29  0.004  0.000  0.013  0.017
   30  0.004  0.000  0.013  0.017
   31  0.004  0.000  0.013  0.017
   32  0.004  0.000  0.013  0.017
   33  0.004  0.000  0.013  0.017
   34  0.004  0.000  0.013  0.017
   35  0.003  0.000  0.033  0.036
   36  0.000  0.000  0.000  0.001
tot    0.092  0.007  0.725  0.825
 
band    12 # energy   -4.94375391 # occ.  2.00000000
 
ion      s      p      d    tot
    1  0.000  0.000  0.010  0.010
    2  0.002  0.000  0.007  0.010
    3  0.000  0.000  0.009  0.009
    4  0.002  0.000  0.007  0.010
    5  0.000  0.000  0.006  0.006
    6  0.003  0.001  0.006  0.010
    7  0.000  0.000  0.009  0.009
    8  0.003  0.001  0.006  0.010
    9  0.000  0.000  0.018  0.018
   10  0.003  0.000  0.030  0.033
   11  0.002  0.000  0.047  0.049
   12  0.001  0.000  0.028  0.029
   13  0.002  0.000  0.044  0.047
   14  0.009  0.000  0.007  0.016
   15  0.000  0.000  0.032  0.032
   16  0.001  0.000  0.028  0.028
   17  0.000  0.000  0.032  0.032
   18  0.002  0.000  0.033  0.035
   19  0.003  0.000  0.074  0.077
   20  0.001  0.000  0.034  0.035
   21  0.000  0.000  0.031  0.031
   22  0.002  0.000  0.035  0.037
   23  0.000  0.000  0.030  0.031
   24  0.007  0.000  0.035  0.043
   25  0.014  0.000  0.003  0.017
   26  0.004  0.000  0.069  0.073
   27  0.002  0.000  0.035  0.037
   28  0.000  0.000  0.007  0.007
   29  0.001  0.000  0.005  0.007
   30  0.002  0.001  0.004  0.007
   31  0.001  0.000  0.006  0.007
   32  0.000  0.000  0.009  0.009
   33  0.002  0.001  0.004  0.007
   34  0.000  0.000  0.008  0.009
   35  0.000  0.000  0.011  0.011
   36  0.000  0.000  0.002  0.002
tot    0.071  0.009  0.758  0.837
 
band    13 # energy   -4.94373859 # occ.  2.00000000
 
ion      s      p      d    tot
    1  0.000  0.000  0.010  0.010
    2  0.001  0.000  0.008  0.010
    3  0.004  0.001  0.006  0.010
    4  0.001  0.000  0.008  0.010
    5  0.000  0.000  0.005  0.006
    6  0.001  0.000  0.009  0.009
    7  0.004  0.000  0.006  0.010
    8  0.001  0.000  0.009  0.009
    9  0.000  0.000  0.018  0.018
   10  0.000  0.000  0.027  0.027
   11  0.007  0.000  0.019  0.025
   12  0.002  0.000  0.029  0.031
   13  0.006  0.000  0.021  0.028
   14  0.000  0.000  0.058  0.058
   15  0.001  0.000  0.032  0.034
   16  0.002  0.000  0.030  0.032
   17  0.001  0.000  0.032  0.034
   18  0.000  0.000  0.031  0.032
   19  0.011  0.000  0.024  0.035
   20  0.000  0.000  0.029  0.029
   21  0.001  0.000  0.032  0.033
   22  0.005  0.000  0.035  0.041
   23  0.001  0.000  0.033  0.034
   24  0.000  0.000  0.034  0.035
   25  0.000  0.000  0.094  0.094
   26  0.010  0.000  0.028  0.038
   27  0.006  0.000  0.035  0.041
   28  0.000  0.000  0.007  0.008
   29  0.001  0.001  0.006  0.008
   30  0.000  0.000  0.008  0.008
   31  0.002  0.001  0.006  0.008
   32  0.002  0.000  0.003  0.006
   33  0.000  0.000  0.008  0.008
   34  0.002  0.000  0.003  0.006
   35  0.000  0.000  0.011  0.011
   36  0.000  0.000  0.002  0.002
tot    0.071  0.009  0.758  0.837
 
band    14 # energy   -4.93663789 # occ.  2.00000000
 
ion      s      p      d    tot
    1  0.000  0.000  0.014  0.014
    2  0.002  0.000  0.008  0.010
    3  0.000  0.000  0.009  0.009
    4  0.002  0.000  0.008  0.010
    5  0.000  0.000  0.017  0.017
    6  0.003  0.000  0.006  0.009
    7  0.000  0.000  0.009  0.009
    8  0.002  0.000  0.006  0.009
    9  0.000  0.000  0.003  0.003
   10  0.000  0.000  0.075  0.075
   11  0.001  0.000  0.041  0.041
   12  0.004  0.000  0.029  0.034
   13  0.001  0.000  0.040  0.041
   14  0.000  0.000  0.022  0.022
   15  0.002  0.000  0.025  0.027
   16  0.005  0.000  0.027  0.032
   17  0.002  0.000  0.025  0.027
   18  0.000  0.000  0.035  0.035
   19  0.002  0.000  0.037  0.040
   20  0.000  0.000  0.083  0.083
   21  0.008  0.000  0.032  0.039
   22  0.002  0.000  0.028  0.030
   23  0.008  0.000  0.029  0.037
   24  0.000  0.000  0.055  0.055
   25  0.000  0.000  0.014  0.015
   26  0.002  0.000  0.036  0.038
   27  0.002  0.000  0.026  0.029
   28  0.000  0.000  0.009  0.009
   29  0.001  0.000  0.005  0.006
   30  0.002  0.000  0.004  0.006
   31  0.001  0.000  0.005  0.006
   32  0.000  0.000  0.007  0.007
   33  0.002  0.000  0.004  0.006
   34  0.000  0.000  0.007  0.007
   35  0.000  0.000  0.003  0.003
   36  0.000  0.001  0.004  0.004
tot    0.053  0.007  0.785  0.846
 
band    15 # energy   -4.93661617 # occ.  2.00000000
 
ion      s      p      d    tot
    1  0.000  0.000  0.014  0.014
    2  0.001  0.000  0.007  0.008
    3  0.003  0.000  0.006  0.009
    4  0.001  0.000  0.007  0.009
    5  0.000  0.000  0.017  0.017
    6  0.000  0.000  0.010  0.010
    7  0.003  0.000  0.006  0.009
    8  0.000  0.000  0.010  0.010
    9  0.000  0.000  0.003  0.003
   10  0.006  0.000  0.013  0.019
   11  0.000  0.000  0.027  0.027
   12  0.002  0.000  0.058  0.060
   13  0.000  0.000  0.028  0.028
   14  0.001  0.000  0.047  0.048
   15  0.001  0.000  0.032  0.033
   16  0.001  0.000  0.060  0.062
   17  0.001  0.000  0.032  0.032
   18  0.003  0.000  0.021  0.024
   19  0.001  0.000  0.021  0.022
   20  0.011  0.000  0.013  0.024
   21  0.003  0.000  0.064  0.067
   22  0.001  0.000  0.045  0.046
   23  0.002  0.000  0.066  0.069
   24  0.003  0.000  0.018  0.021
   25  0.003  0.000  0.044  0.047
   26  0.001  0.000  0.023  0.023
   27  0.001  0.000  0.046  0.047
   28  0.000  0.000  0.009  0.009
   29  0.001  0.000  0.005  0.007
   30  0.000  0.000  0.007  0.007
   31  0.002  0.000  0.005  0.007
   32  0.002  0.000  0.004  0.006
   33  0.000  0.000  0.007  0.007
   34  0.002  0.000  0.004  0.006
   35  0.000  0.000  0.003  0.003
   36  0.000  0.001  0.004  0.004
tot    0.053  0.007  0.785  0.846
 
band    16 # energy   -4.92218713 # occ.  2.00000000
 
ion      s      p      d    tot
    1  0.001  0.000  0.000  0.001
    2  0.001  0.000  0.012  0.013
    3  0.001  0.000  0.012  0.013
    4  0.001  0.000  0.012  0.013
    5  0.009  0.000  0.002  0.011
    6  0.001  0.000  0.012  0.013
    7  0.001  0.000  0.012  0.013
    8  0.001  0.000  0.012  0.013
    9  0.001  0.000  0.014  0.014
   10  0.001  0.000  0.027  0.028
   11  0.000  0.000  0.020  0.021
   12  0.001  0.000  0.027  0.028
   13  0.000  0.000  0.020  0.021
   14  0.000  0.000  0.020  0.021
   15  0.001  0.000  0.027  0.028
   16  0.001  0.000  0.027  0.028
   17  0.001  0.000  0.027  0.028
   18  0.001  0.000  0.027  0.028
   19  0.001  0.000  0.051  0.053
   20  0.007  0.000  0.055  0.062
   21  0.007  0.000  0.055  0.062
   22  0.004  0.001  0.005  0.009
   23  0.007  0.000  0.055  0.062
   24  0.004  0.001  0.005  0.009
   25  0.001  0.000  0.051  0.053
   26  0.001  0.000  0.051  0.053
   27  0.004  0.001  0.005  0.009
   28  0.000  0.000  0.000  0.000
   29  0.002  0.000  0.012  0.015
   30  0.002  0.000  0.012  0.015
   31  0.002  0.000  0.012  0.015
   32  0.002  0.000  0.012  0.015
   33  0.002  0.000  0.012  0.015
   34  0.002  0.000  0.012  0.015
   35  0.014  0.001  0.003  0.017
   36  0.001  0.001  0.011  0.012
tot    0.088  0.009  0.729  0.826
 
band    17 # energy   -4.78449524 # occ.  2.00000000
 
ion      s      p      d    tot
    1  0.001  0.001  0.007  0.008
    2  0.000  0.000  0.011  0.011
    3  0.000  0.000  0.011  0.011
    4  0.000  0.000  0.011  0.011
    5  0.003  0.001  0.000  0.004
    6  0.000  0.000  0.011  0.011
    7  0.000  0.000  0.011  0.011
    8  0.000  0.000  0.011  0.011
    9  0.000  0.000  0.007  0.007
   10  0.001  0.001  0.043  0.045
   11  0.000  0.000  0.021  0.021
   12  0.001  0.001  0.043  0.045
   13  0.000  0.000  0.021  0.021
   14  0.000  0.000  0.021  0.021
   15  0.002  0.000  0.044  0.047
   16  0.001  0.001  0.043  0.045
   17  0.002  0.000  0.044  0.047
   18  0.002  0.000  0.044  0.047
   19  0.002  0.000  0.038  0.040
   20  0.000  0.000  0.013  0.013
   21  0.000  0.000  0.013  0.013
   22  0.001  0.001  0.057  0.058
   23  0.000  0.000  0.013  0.013
   24  0.001  0.001  0.056  0.058
   25  0.002  0.000  0.038  0.040
   26  0.002  0.000  0.038  0.040
   27  0.001  0.001  0.057  0.058
   28  0.003  0.000  0.012  0.015
   29  0.000  0.001  0.010  0.011
   30  0.000  0.001  0.010  0.011
   31  0.000  0.001  0.010  0.011
   32  0.000  0.001  0.010  0.011
   33  0.000  0.001  0.010  0.011
   34  0.000  0.001  0.010  0.011
   35  0.004  0.001  0.003  0.008
   36  0.005  0.001  0.000  0.006
tot    0.037  0.017  0.803  0.856
 
band    18 # energy   -4.77578618 # occ.  2.00000000
 
ion      s      p      d    tot
    1  0.000  0.001  0.013  0.013
    2  0.000  0.000  0.010  0.010
    3  0.001  0.000  0.005  0.007
    4  0.000  0.000  0.010  0.010
    5  0.000  0.000  0.001  0.001
    6  0.001  0.001  0.008  0.011
    7  0.001  0.000  0.005  0.007
    8  0.001  0.001  0.008  0.010
    9  0.000  0.001  0.016  0.017
   10  0.002  0.001  0.046  0.049
   11  0.000  0.000  0.024  0.024
   12  0.001  0.000  0.025  0.026
   13  0.000  0.000  0.024  0.024
   14  0.000  0.001  0.024  0.025
   15  0.000  0.000  0.081  0.082
   16  0.000  0.000  0.024  0.024
   17  0.001  0.000  0.079  0.079
   18  0.002  0.000  0.039  0.041
   19  0.000  0.000  0.038  0.038
   20  0.002  0.001  0.032  0.035
   21  0.001  0.000  0.010  0.011
   22  0.001  0.000  0.069  0.070
   23  0.000  0.000  0.009  0.010
   24  0.003  0.000  0.045  0.048
   25  0.000  0.001  0.020  0.021
   26  0.000  0.000  0.036  0.037
   27  0.001  0.000  0.071  0.071
   28  0.000  0.000  0.001  0.001
   29  0.000  0.000  0.008  0.008
   30  0.001  0.001  0.005  0.007
   31  0.000  0.000  0.008  0.008
   32  0.000  0.000  0.005  0.006
   33  0.001  0.001  0.005  0.007
   34  0.001  0.000  0.005  0.006
   35  0.000  0.001  0.018  0.019
   36  0.000  0.000  0.003  0.003
tot    0.023  0.015  0.828  0.866
 
band    19 # energy   -4.77576679 # occ.  2.00000000
 
ion      s      p      d    tot
    1  0.000  0.001  0.013  0.013
    2  0.002  0.001  0.006  0.008
    3  0.001  0.001  0.010  0.012
    4  0.002  0.001  0.005  0.008
    5  0.000  0.000  0.001  0.001
    6  0.000  0.000  0.007  0.008
    7  0.001  0.001  0.010  0.012
    8  0.000  0.000  0.007  0.008
    9  0.000  0.001  0.016  0.016
   10  0.000  0.000  0.018  0.018
   11  0.000  0.001  0.024  0.025
   12  0.002  0.001  0.038  0.040
   13  0.000  0.001  0.024  0.025
   14  0.000  0.000  0.023  0.023
   15  0.001  0.000  0.051  0.052
   16  0.002  0.001  0.039  0.042
   17  0.001  0.000  0.054  0.055
   18  0.000  0.000  0.094  0.094
   19  0.000  0.001  0.025  0.026
   20  0.000  0.000  0.002  0.002
   21  0.002  0.001  0.023  0.026
   22  0.002  0.000  0.054  0.056
   23  0.002  0.001  0.025  0.027
   24  0.000  0.000  0.078  0.078
   25  0.000  0.000  0.043  0.044
   26  0.000  0.001  0.026  0.027
   27  0.002  0.000  0.053  0.055
   28  0.000  0.000  0.001  0.001
   29  0.001  0.000  0.004  0.006
   30  0.000  0.000  0.007  0.007
   31  0.001  0.001  0.004  0.006
   32  0.001  0.001  0.007  0.008
   33  0.000  0.000  0.007  0.007
   34  0.001  0.001  0.007  0.008
   35  0.000  0.001  0.018  0.019
   36  0.000  0.000  0.003  0.003
tot    0.023  0.015  0.828  0.866
 
band    20 # energy   -4.76970162 # occ.  2.00000000
 
ion      s      p      d    tot
    1  0.000  0.000  0.006  0.006
    2  0.000  0.000  0.010  0.011
    3  0.001  0.000  0.005  0.007
    4  0.000  0.000  0.010  0.011
    5  0.000  0.001  0.019  0.020
    6  0.001  0.001  0.008  0.011
    7  0.001  0.000  0.005  0.007
    8  0.001  0.001  0.008  0.010
    9  0.000  0.000  0.005  0.006
   10  0.000  0.000  0.069  0.069
   11  0.002  0.000  0.054  0.056
   12  0.000  0.000  0.037  0.038
   13  0.002  0.000  0.055  0.057
   14  0.000  0.000  0.071  0.071
   15  0.001  0.001  0.028  0.030
   16  0.000  0.001  0.035  0.036
   17  0.001  0.001  0.026  0.028
   18  0.000  0.000  0.000  0.000
   19  0.002  0.000  0.044  0.046
   20  0.000  0.000  0.073  0.073
   21  0.001  0.000  0.040  0.041
   22  0.000  0.001  0.019  0.021
   23  0.001  0.000  0.038  0.039
   24  0.000  0.000  0.010  0.010
   25  0.000  0.000  0.036  0.036
   26  0.002  0.000  0.043  0.046
   27  0.000  0.001  0.020  0.021
   28  0.000  0.001  0.016  0.017
   29  0.000  0.000  0.007  0.008
   30  0.001  0.001  0.005  0.007
   31  0.000  0.000  0.007  0.007
   32  0.000  0.000  0.005  0.005
   33  0.001  0.001  0.005  0.007
   34  0.000  0.000  0.005  0.005
   35  0.000  0.000  0.001  0.001
   36  0.000  0.001  0.003  0.003
tot    0.023  0.015  0.828  0.865
 
band    21 # energy   -4.76968801 # occ.  2.00000000
 
ion      s      p      d    tot
    1  0.000  0.000  0.006  0.006
    2  0.002  0.001  0.006  0.008
    3  0.001  0.001  0.011  0.012
    4  0.002  0.001  0.006  0.008
    5  0.000  0.001  0.019  0.020
    6  0.000  0.000  0.008  0.008
    7  0.001  0.001  0.011  0.012
    8  0.000  0.000  0.008  0.008
    9  0.000  0.000  0.005  0.005
   10  0.000  0.001  0.026  0.026
   11  0.001  0.000  0.065  0.066
   12  0.000  0.000  0.057  0.058
   13  0.001  0.000  0.064  0.065
   14  0.002  0.000  0.049  0.052
   15  0.000  0.000  0.008  0.009
   16  0.000  0.000  0.059  0.059
   17  0.000  0.000  0.010  0.011
   18  0.001  0.001  0.035  0.037
   19  0.001  0.000  0.039  0.039
   20  0.001  0.000  0.029  0.030
   21  0.000  0.000  0.060  0.061
   22  0.000  0.000  0.013  0.014
   23  0.000  0.000  0.062  0.063
   24  0.001  0.001  0.023  0.025
   25  0.003  0.001  0.045  0.049
   26  0.001  0.000  0.039  0.040
   27  0.000  0.000  0.012  0.013
   28  0.000  0.001  0.016  0.017
   29  0.001  0.000  0.004  0.006
   30  0.000  0.000  0.006  0.006
   31  0.001  0.001  0.004  0.006
   32  0.001  0.001  0.006  0.008
   33  0.000  0.000  0.006  0.006
   34  0.001  0.001  0.007  0.008
   35  0.000  0.000  0.001  0.001
   36  0.000  0.001  0.003  0.003
tot    0.023  0.015  0.828  0.865
 
band    22 # energy   -4.76784921 # occ.  2.00000000
 
ion      s      p      d    tot
    1  0.002  0.000  0.002  0.004
    2  0.000  0.000  0.011  0.012
    3  0.000  0.000  0.012  0.012
    4  0.000  0.000  0.011  0.012
    5  0.000  0.000  0.013  0.013
    6  0.000  0.000  0.011  0.012
    7  0.000  0.000  0.012  0.012
    8  0.000  0.000  0.011  0.012
    9  0.004  0.001  0.002  0.007
   10  0.002  0.000  0.025  0.027
   11  0.001  0.001  0.057  0.059
   12  0.002  0.000  0.026  0.028
   13  0.001  0.001  0.057  0.059
   14  0.001  0.001  0.058  0.059
   15  0.000  0.000  0.031  0.032
   16  0.002  0.000  0.026  0.028