PROCAR new format
# of k-points:   10         # of bands:  252         # of ions:   39

 k-point     1 :    0.00000000 0.00000000 0.00000000     weight = 0.01562500

band     1 # energy  -24.79402389 # occ.  2.00000000
 
ion      s      p      d    tot
    1  0.000  0.000  0.000  0.000
    2  0.000  0.000  0.000  0.000
    3  0.000  0.000  0.000  0.000
    4  0.000  0.000  0.000  0.000
    5  0.000  0.000  0.000  0.000
    6  0.000  0.000  0.000  0.000
    7  0.000  0.000  0.000  0.000
    8  0.000  0.000  0.000  0.000
    9  0.000  0.000  0.000  0.000
   10  0.000  0.000  0.000  0.000
   11  0.000  0.000  0.000  0.000
   12  0.000  0.000  0.000  0.000
   13  0.000  0.000  0.000  0.000
   14  0.000  0.000  0.000  0.000
   15  0.000  0.000  0.000  0.000
   16  0.000  0.000  0.000  0.000
   17  0.000  0.000  0.000  0.000
   18  0.000  0.000  0.000  0.000
   19  0.000  0.000  0.000  0.000
   20  0.000  0.000  0.000  0.000
   21  0.000  0.000  0.000  0.000
   22  0.000  0.000  0.000  0.000
   23  0.000  0.000  0.000  0.000
   24  0.000  0.000  0.000  0.000
   25  0.000  0.000  0.000  0.000
   26  0.000  0.000  0.000  0.000
   27  0.000  0.000  0.000  0.000
   28  0.000  0.000  0.000  0.000
   29  0.000  0.000  0.000  0.000
   30  0.000  0.000  0.000  0.000
   31  0.000  0.000  0.000  0.000
   32  0.000  0.000  0.000  0.000
   33  0.000  0.000  0.000  0.000
   34  0.000  0.000  0.000  0.000
   35  0.000  0.000  0.000  0.000
   36  0.000  0.000  0.000  0.000
   37  0.079  0.058  0.000  0.137
   38  0.724  0.008  0.000  0.732
   39  0.061  0.013  0.000  0.074
tot    0.864  0.078  0.000  0.943
 
band     2 # energy  -15.49886588 # occ.  2.00000000
 
ion      s      p      d    tot
    1  0.000  0.000  0.000  0.000
    2  0.000  0.000  0.000  0.000
    3  0.000  0.000  0.000  0.000
    4  0.000  0.000  0.000  0.000
    5  0.000  0.000  0.000  0.000
    6  0.000  0.000  0.000  0.000
    7  0.000  0.000  0.000  0.000
    8  0.000  0.000  0.000  0.000
    9  0.000  0.000  0.000  0.000
   10  0.000  0.000  0.000  0.000
   11  0.000  0.000  0.000  0.000
   12  0.000  0.000  0.000  0.000
   13  0.000  0.000  0.000  0.000
   14  0.000  0.000  0.000  0.000
   15  0.000  0.000  0.000  0.000
   16  0.000  0.000  0.000  0.000
   17  0.000  0.000  0.000  0.000
   18  0.000  0.000  0.000  0.000
   19  0.000  0.000  0.000  0.000
   20  0.000  0.000  0.000  0.000
   21  0.000  0.000  0.000  0.000
   22  0.000  0.000  0.000  0.000
   23  0.000  0.000  0.000  0.000
   24  0.000  0.000  0.000  0.000
   25  0.000  0.000  0.000  0.000
   26  0.000  0.000  0.000  0.000
   27  0.000  0.000  0.000  0.000
   28  0.000  0.000  0.000  0.000
   29  0.000  0.000  0.000  0.000
   30  0.000  0.000  0.000  0.000
   31  0.000  0.000  0.000  0.000
   32  0.000  0.000  0.000  0.000
   33  0.000  0.000  0.000  0.000
   34  0.000  0.000  0.000  0.000
   35  0.000  0.000  0.000  0.000
   36  0.004  0.003  0.005  0.011
   37  0.163  0.047  0.000  0.210
   38  0.019  0.518  0.000  0.537
   39  0.201  0.032  0.000  0.233
tot    0.386  0.600  0.005  0.991
 
band     3 # energy   -9.29067612 # occ.  2.00000000
 
ion      s      p      d    tot
    1  0.001  0.000  0.000  0.001
    2  0.001  0.000  0.000  0.001
    3  0.001  0.000  0.000  0.001
    4  0.001  0.000  0.000  0.001
    5  0.001  0.000  0.000  0.001
    6  0.001  0.000  0.000  0.001
    7  0.001  0.000  0.000  0.001
    8  0.001  0.000  0.000  0.001
    9  0.001  0.000  0.000  0.001
   10  0.003  0.000  0.000  0.004
   11  0.004  0.000  0.000  0.004
   12  0.003  0.000  0.000  0.004
   13  0.004  0.000  0.000  0.004
   14  0.004  0.000  0.000  0.004
   15  0.003  0.000  0.000  0.003
   16  0.003  0.000  0.000  0.004
   17  0.003  0.000  0.000  0.003
   18  0.003  0.000  0.000  0.003
   19  0.006  0.000  0.000  0.006
   20  0.016  0.002  0.002  0.020
   21  0.016  0.002  0.002  0.020
   22  0.006  0.000  0.000  0.007
   23  0.016  0.002  0.002  0.020
   24  0.006  0.000  0.000  0.007
   25  0.006  0.000  0.000  0.006
   26  0.006  0.000  0.000  0.006
   27  0.006  0.000  0.000  0.007
   28  0.003  0.000  0.000  0.003
   29  0.006  0.000  0.000  0.007
   30  0.006  0.000  0.000  0.007
   31  0.006  0.000  0.000  0.007
   32  0.006  0.000  0.000  0.007
   33  0.006  0.000  0.000  0.007
   34  0.006  0.000  0.000  0.007
   35  0.003  0.000  0.000  0.003
   36  0.159  0.028  0.162  0.349
   37  0.122  0.131  0.000  0.253
   38  0.008  0.039  0.000  0.047
   39  0.011  0.001  0.000  0.012
tot    0.463  0.208  0.169  0.840
 
band     4 # energy   -8.62456025 # occ.  2.00000000
 
ion      s      p      d    tot
    1  0.008  0.001  0.000  0.009
    2  0.008  0.001  0.000  0.008
    3  0.008  0.001  0.000  0.008
    4  0.008  0.001  0.000  0.008
    5  0.007  0.001  0.000  0.008
    6  0.008  0.001  0.000  0.008
    7  0.008  0.001  0.000  0.008
    8  0.008  0.001  0.000  0.008
    9  0.008  0.001  0.000  0.008
   10  0.024  0.000  0.000  0.024
   11  0.023  0.000  0.000  0.023
   12  0.024  0.000  0.000  0.024
   13  0.023  0.000  0.000  0.023
   14  0.023  0.000  0.000  0.023
   15  0.024  0.000  0.000  0.024
   16  0.024  0.000  0.000  0.024
   17  0.024  0.000  0.000  0.024
   18  0.024  0.000  0.000  0.024
   19  0.017  0.000  0.000  0.018
   20  0.010  0.001  0.001  0.012
   21  0.010  0.001  0.001  0.012
   22  0.017  0.000  0.000  0.017
   23  0.010  0.001  0.001  0.012
   24  0.017  0.000  0.000  0.017
   25  0.017  0.000  0.000  0.018
   26  0.017  0.000  0.000  0.018
   27  0.017  0.000  0.000  0.017
   28  0.003  0.001  0.000  0.004
   29  0.002  0.001  0.000  0.003
   30  0.002  0.001  0.000  0.003
   31  0.002  0.001  0.000  0.003
   32  0.002  0.001  0.000  0.003
   33  0.002  0.001  0.000  0.003
   34  0.002  0.001  0.000  0.003
   35  0.003  0.001  0.000  0.004
   36  0.016  0.022  0.070  0.108
   37  0.048  0.046  0.000  0.093
   38  0.003  0.012  0.000  0.015
   39  0.003  0.000  0.000  0.004
tot    0.497  0.099  0.074  0.669
 
band     5 # energy   -7.59956245 # occ.  2.00000000
 
ion      s      p      d    tot
    1  0.000  0.000  0.000  0.000
    2  0.000  0.000  0.000  0.000
    3  0.000  0.000  0.000  0.000
    4  0.000  0.000  0.000  0.000
    5  0.000  0.000  0.000  0.000
    6  0.000  0.000  0.000  0.000
    7  0.000  0.000  0.000  0.000
    8  0.000  0.000  0.000  0.000
    9  0.000  0.000  0.000  0.000
   10  0.000  0.000  0.000  0.000
   11  0.000  0.000  0.000  0.000
   12  0.000  0.000  0.000  0.000
   13  0.000  0.000  0.000  0.000
   14  0.000  0.000  0.000  0.000
   15  0.000  0.000  0.000  0.000
   16  0.000  0.000  0.000  0.000
   17  0.000  0.000  0.000  0.000
   18  0.000  0.000  0.000  0.000
   19  0.000  0.000  0.000  0.000
   20  0.000  0.000  0.000  0.000
   21  0.000  0.000  0.000  0.000
   22  0.000  0.000  0.000  0.000
   23  0.000  0.000  0.000  0.000
   24  0.000  0.000  0.000  0.000
   25  0.000  0.000  0.000  0.000
   26  0.000  0.000  0.000  0.000
   27  0.000  0.000  0.000  0.000
   28  0.000  0.000  0.000  0.000
   29  0.000  0.000  0.000  0.001
   30  0.000  0.000  0.000  0.000
   31  0.000  0.000  0.000  0.001
   32  0.000  0.000  0.000  0.001
   33  0.000  0.000  0.000  0.000
   34  0.000  0.000  0.000  0.001
   35  0.000  0.000  0.000  0.000
   36  0.000  0.003  0.027  0.029
   37  0.000  0.121  0.000  0.121
   38  0.000  0.519  0.000  0.519
   39  0.000  0.007  0.000  0.007
tot    0.002  0.651  0.029  0.682
 
band     6 # energy   -7.59940900 # occ.  2.00000000
 
ion      s      p      d    tot
    1  0.000  0.000  0.000  0.000
    2  0.000  0.000  0.000  0.000
    3  0.000  0.000  0.000  0.000
    4  0.000  0.000  0.000  0.000
    5  0.000  0.000  0.000  0.000
    6  0.000  0.000  0.000  0.000
    7  0.000  0.000  0.000  0.000
    8  0.000  0.000  0.000  0.000
    9  0.000  0.000  0.000  0.000
   10  0.000  0.000  0.000  0.000
   11  0.000  0.000  0.000  0.000
   12  0.000  0.000  0.000  0.000
   13  0.000  0.000  0.000  0.000
   14  0.000  0.000  0.000  0.000
   15  0.000  0.000  0.000  0.000
   16  0.000  0.000  0.000  0.000
   17  0.000  0.000  0.000  0.000
   18  0.000  0.000  0.000  0.000
   19  0.000  0.000  0.000  0.000
   20  0.000  0.000  0.000  0.000
   21  0.000  0.000  0.000  0.000
   22  0.000  0.000  0.000  0.000
   23  0.000  0.000  0.000  0.000
   24  0.000  0.000  0.000  0.000
   25  0.000  0.000  0.000  0.000
   26  0.000  0.000  0.000  0.000
   27  0.000  0.000  0.000  0.000
   28  0.000  0.000  0.000  0.000
   29  0.000  0.000  0.000  0.000
   30  0.000  0.000  0.001  0.001
   31  0.000  0.000  0.000  0.000
   32  0.000  0.000  0.000  0.000
   33  0.000  0.000  0.001  0.001
   34  0.000  0.000  0.000  0.000
   35  0.000  0.000  0.000  0.000
   36  0.000  0.003  0.027  0.029
   37  0.000  0.121  0.000  0.121
   38  0.000  0.519  0.000  0.519
   39  0.000  0.007  0.000  0.007
tot    0.002  0.651  0.029  0.682
 
band     7 # energy   -7.44179092 # occ.  2.00000000
 
ion      s      p      d    tot
    1  0.016  0.001  0.000  0.018
    2  0.016  0.001  0.001  0.017
    3  0.016  0.001  0.001  0.017
    4  0.016  0.001  0.001  0.017
    5  0.016  0.001  0.000  0.017
    6  0.016  0.001  0.001  0.017
    7  0.016  0.001  0.001  0.017
    8  0.016  0.001  0.001  0.017
    9  0.016  0.001  0.001  0.017
   10  0.008  0.002  0.000  0.010
   11  0.008  0.002  0.000  0.011
   12  0.008  0.002  0.000  0.010
   13  0.008  0.002  0.000  0.011
   14  0.008  0.002  0.000  0.011
   15  0.007  0.002  0.000  0.010
   16  0.008  0.002  0.000  0.010
   17  0.007  0.002  0.000  0.010
   18  0.007  0.002  0.000  0.010
   19  0.012  0.002  0.001  0.015
   20  0.007  0.002  0.001  0.010
   21  0.007  0.002  0.001  0.010
   22  0.012  0.002  0.001  0.015
   23  0.007  0.002  0.001  0.010
   24  0.012  0.002  0.001  0.015
   25  0.012  0.002  0.001  0.015
   26  0.012  0.002  0.001  0.015
   27  0.012  0.002  0.001  0.015
   28  0.020  0.001  0.000  0.021
   29  0.018  0.001  0.001  0.020
   30  0.018  0.001  0.001  0.020
   31  0.018  0.001  0.001  0.020
   32  0.018  0.001  0.001  0.020
   33  0.018  0.001  0.001  0.020
   34  0.018  0.001  0.001  0.020
   35  0.019  0.001  0.000  0.021
   36  0.005  0.010  0.047  0.061
   37  0.014  0.011  0.000  0.025
   38  0.001  0.002  0.000  0.003
   39  0.001  0.000  0.000  0.001
tot    0.478  0.074  0.066  0.618
 
band     8 # energy   -5.97109584 # occ.  2.00000000
 
ion      s      p      d    tot
    1  0.015  0.000  0.005  0.020
    2  0.015  0.000  0.005  0.020
    3  0.015  0.000  0.005  0.020
    4  0.015  0.000  0.005  0.020
    5  0.011  0.000  0.005  0.016
    6  0.015  0.000  0.005  0.020
    7  0.015  0.000  0.005  0.020
    8  0.015  0.000  0.005  0.020
    9  0.021  0.000  0.004  0.025
   10  0.003  0.004  0.001  0.008
   11  0.006  0.004  0.001  0.011
   12  0.003  0.004  0.001  0.008
   13  0.006  0.004  0.001  0.011
   14  0.006  0.004  0.001  0.011
   15  0.000  0.003  0.002  0.006
   16  0.003  0.004  0.001  0.008
   17  0.000  0.003  0.002  0.006
   18  0.000  0.003  0.002  0.006
   19  0.004  0.003  0.004  0.011
   20  0.013  0.004  0.006  0.023
   21  0.013  0.004  0.006  0.023
   22  0.002  0.003  0.004  0.008
   23  0.013  0.004  0.006  0.023
   24  0.002  0.003  0.004  0.008
   25  0.004  0.003  0.004  0.011
   26  0.004  0.003  0.004  0.011
   27  0.002  0.003  0.004  0.008
   28  0.015  0.000  0.006  0.021
   29  0.018  0.000  0.008  0.026
   30  0.018  0.000  0.008  0.026
   31  0.018  0.000  0.008  0.026
   32  0.018  0.000  0.008  0.026
   33  0.018  0.000  0.008  0.026
   34  0.018  0.000  0.008  0.026
   35  0.018  0.000  0.005  0.024
   36  0.016  0.001  0.045  0.062
   37  0.000  0.000  0.000  0.000
   38  0.000  0.000  0.000  0.000
   39  0.000  0.000  0.000  0.000
tot    0.381  0.062  0.201  0.645
 
band     9 # energy   -5.85397233 # occ.  2.00000000
 
ion      s      p      d    tot
    1  0.000  0.002  0.005  0.007
    2  0.007  0.002  0.002  0.011
    3  0.002  0.001  0.002  0.005
    4  0.008  0.002  0.002  0.013
    5  0.000  0.002  0.003  0.006
    6  0.005  0.002  0.002  0.009
    7  0.000  0.001  0.002  0.003
    8  0.002  0.001  0.002  0.005
    9  0.000  0.000  0.002  0.002
   10  0.050  0.005  0.004  0.058
   11  0.004  0.010  0.004  0.019
   12  0.021  0.002  0.010  0.033
   13  0.013  0.007  0.005  0.025
   14  0.030  0.001  0.006  0.037
   15  0.000  0.006  0.006  0.012
   16  0.006  0.001  0.013  0.020
   17  0.001  0.004  0.005  0.011
   18  0.002  0.002  0.003  0.008
   19  0.002  0.012  0.002  0.016
   20  0.070  0.003  0.008  0.081
   21  0.030  0.003  0.013  0.046
   22  0.004  0.004  0.007  0.016
   23  0.009  0.003  0.016  0.028
   24  0.011  0.003  0.003  0.017
   25  0.019  0.001  0.006  0.026
   26  0.008  0.008  0.004  0.020
   27  0.001  0.004  0.010  0.015
   28  0.000  0.002  0.003  0.005
   29  0.010  0.003  0.004  0.017
   30  0.005  0.002  0.003  0.009
   31  0.010  0.003  0.004  0.017
   32  0.004  0.002  0.004  0.009
   33  0.001  0.001  0.002  0.005
   34  0.001  0.001  0.003  0.005
   35  0.000  0.000  0.003  0.003
   36  0.000  0.006  0.028  0.034
   37  0.000  0.000  0.000  0.000
   38  0.000  0.001  0.000  0.001
   39  0.000  0.000  0.000  0.000
tot    0.339  0.113  0.200  0.653
 
band    10 # energy   -5.85381888 # occ.  2.00000000
 
ion      s      p      d    tot
    1  0.000  0.002  0.005  0.007
    2  0.001  0.001  0.002  0.004
    3  0.006  0.002  0.002  0.010
    4  0.000  0.001  0.002  0.002
    5  0.000  0.002  0.003  0.006
    6  0.003  0.001  0.002  0.006
    7  0.008  0.002  0.002  0.012
    8  0.006  0.002  0.002  0.010
    9  0.000  0.000  0.002  0.002
   10  0.001  0.001  0.014  0.016
   11  0.027  0.002  0.006  0.035
   12  0.030  0.003  0.008  0.041
   13  0.018  0.005  0.005  0.029
   14  0.001  0.011  0.004  0.017
   15  0.002  0.002  0.004  0.008
   16  0.045  0.004  0.005  0.054
   17  0.001  0.004  0.005  0.010
   18  0.000  0.006  0.007  0.013
   19  0.018  0.002  0.006  0.025
   20  0.002  0.003  0.017  0.022
   21  0.043  0.003  0.012  0.057
   22  0.006  0.004  0.006  0.016
   23  0.063  0.003  0.009  0.075
   24  0.000  0.004  0.011  0.015
   25  0.001  0.013  0.002  0.015
   26  0.012  0.006  0.004  0.022
   27  0.010  0.003  0.004  0.017
   28  0.000  0.002  0.003  0.005
   29  0.000  0.001  0.003  0.004
   30  0.006  0.002  0.004  0.012
   31  0.000  0.001  0.003  0.004
   32  0.007  0.002  0.003  0.011
   33  0.009  0.003  0.004  0.016
   34  0.010  0.003  0.003  0.016
   35  0.000  0.000  0.003  0.003
   36  0.000  0.006  0.028  0.034
   37  0.000  0.000  0.000  0.000
   38  0.000  0.001  0.000  0.001
   39  0.000  0.000  0.000  0.000
tot    0.339  0.113  0.200  0.653
 
band    11 # energy   -5.78228368 # occ.  2.00000000
 
ion      s      p      d    tot
    1  0.000  0.001  0.002  0.004
    2  0.009  0.002  0.002  0.014
    3  0.001  0.001  0.002  0.004
    4  0.010  0.002  0.002  0.014
    5  0.000  0.001  0.004  0.004
    6  0.005  0.002  0.002  0.009
    7  0.001  0.001  0.002  0.004
    8  0.004  0.001  0.002  0.007
    9  0.000  0.003  0.005  0.009
   10  0.000  0.012  0.002  0.014
   11  0.021  0.004  0.005  0.030
   12  0.004  0.004  0.005  0.012
   13  0.019  0.003  0.006  0.028
   14  0.000  0.001  0.014  0.015
   15  0.045  0.003  0.006  0.054
   16  0.004  0.003  0.005  0.012
   17  0.040  0.004  0.007  0.050
   18  0.000  0.006  0.010  0.017
   19  0.033  0.004  0.005  0.042
   20  0.000  0.012  0.002  0.014
   21  0.000  0.004  0.004  0.009
   22  0.037  0.004  0.006  0.047
   23  0.000  0.003  0.005  0.009
   24  0.000  0.009  0.007  0.017
   25  0.000  0.000  0.017  0.017
   26  0.030  0.003  0.006  0.039
   27  0.041  0.003  0.006  0.050
   28  0.000  0.002  0.005  0.007
   29  0.012  0.003  0.003  0.018
   30  0.003  0.002  0.003  0.008
   31  0.013  0.003  0.003  0.018
   32  0.005  0.001  0.003  0.009
   33  0.002  0.002  0.003  0.007
   34  0.004  0.001  0.003  0.007
   35  0.000  0.004  0.005  0.009
   36  0.000  0.001  0.011  0.012
   37  0.000  0.000  0.000  0.000
   38  0.000  0.000  0.000  0.000
   39  0.000  0.000  0.000  0.000
tot    0.342  0.116  0.180  0.638
 
band    12 # energy   -5.78215342 # occ.  2.00000000
 
ion      s      p      d    tot
    1  0.000  0.001  0.002  0.004
    2  0.001  0.001  0.002  0.004
    3  0.008  0.002  0.002  0.013
    4  0.000  0.001  0.002  0.003
    5  0.000  0.001  0.004  0.004
    6  0.005  0.002  0.002  0.009
    7  0.009  0.002  0.002  0.014
    8  0.006  0.002  0.002  0.010
    9  0.000  0.003  0.005  0.009
   10  0.006  0.000  0.006  0.012
   11  0.006  0.002  0.012  0.019
   12  0.002  0.009  0.003  0.013
   13  0.008  0.002  0.011  0.021
   14  0.027  0.004  0.002  0.033
   15  0.012  0.006  0.009  0.027
   16  0.001  0.010  0.003  0.014
   17  0.016  0.005  0.009  0.031
   18  0.057  0.003  0.005  0.064
   19  0.009  0.001  0.014  0.023
   20  0.001  0.001  0.005  0.007
   21  0.000  0.009  0.003  0.012
   22  0.015  0.007  0.007  0.029
   23  0.000  0.010  0.003  0.013
   24  0.052  0.002  0.005  0.059
   25  0.041  0.005  0.002  0.048
   26  0.012  0.001  0.012  0.026
   27  0.011  0.008  0.007  0.026
   28  0.000  0.002  0.005  0.007
   29  0.000  0.001  0.003  0.004
   30  0.010  0.002  0.003  0.014
   31  0.000  0.001  0.003  0.004
   32  0.008  0.002  0.003  0.013
   33  0.011  0.002  0.003  0.015
   34  0.009  0.003  0.003  0.015
   35  0.000  0.004  0.005  0.009
   36  0.000  0.001  0.011  0.012
   37  0.000  0.000  0.000  0.000
   38  0.000  0.000  0.000  0.000
   39  0.000  0.000  0.000  0.000
tot    0.342  0.116  0.180  0.638
 
band    13 # energy   -5.77038055 # occ.  2.00000000
 
ion      s      p      d    tot
    1  0.023  0.003  0.001  0.028
    2  0.000  0.002  0.004  0.006
    3  0.000  0.002  0.004  0.006
    4  0.000  0.002  0.004  0.006
    5  0.002  0.001  0.001  0.003
    6  0.000  0.002  0.004  0.006
    7  0.000  0.002  0.004  0.006
    8  0.000  0.002  0.004  0.006
    9  0.008  0.001  0.000  0.009
   10  0.030  0.006  0.005  0.042
   11  0.007  0.000  0.012  0.019
   12  0.031  0.006  0.005  0.042
   13  0.007  0.000  0.012  0.019
   14  0.007  0.000  0.012  0.019
   15  0.010  0.008  0.004  0.022
   16  0.031  0.006  0.005  0.042
   17  0.010  0.008  0.004  0.022
   18  0.010  0.008  0.004  0.021
   19  0.023  0.009  0.002  0.034
   20  0.000  0.003  0.010  0.013
   21  0.000  0.003  0.010  0.013
   22  0.022  0.002  0.009  0.033
   23  0.000  0.003  0.010  0.013
   24  0.022  0.002  0.009  0.033
   25  0.024  0.009  0.002  0.035
   26  0.023  0.009  0.002  0.034
   27  0.022  0.002  0.010  0.033
   28  0.020  0.003  0.000  0.023
   29  0.000  0.002  0.004  0.005
   30  0.000  0.002  0.004  0.005
   31  0.000  0.002  0.004  0.005
   32  0.000  0.002  0.004  0.005
   33  0.000  0.002  0.004  0.005
   34  0.000  0.002  0.004  0.005
   35  0.010  0.002  0.001  0.013
   36  0.000  0.000  0.000  0.001
   37  0.000  0.000  0.000  0.000
   38  0.000  0.000  0.000  0.000
   39  0.000  0.000  0.000  0.000
tot    0.344  0.115  0.180  0.639
 
band    14 # energy   -5.74095964 # occ.  2.00000000
 
ion      s      p      d    tot
    1  0.000  0.000  0.000  0.000
    2  0.000  0.002  0.005  0.007
    3  0.000  0.002  0.005  0.007
    4  0.000  0.002  0.005  0.007
    5  0.026  0.003  0.000  0.029
    6  0.000  0.002  0.005  0.007
    7  0.000  0.002  0.005  0.007
    8  0.000  0.002  0.005  0.007
    9  0.009  0.002  0.002  0.013
   10  0.001  0.003  0.010  0.013
   11  0.023  0.009  0.002  0.035
   12  0.001  0.003  0.010  0.013
   13  0.023  0.009  0.002  0.035
   14  0.023  0.009  0.002  0.035
   15  0.026  0.002  0.010  0.038
   16  0.001  0.003  0.010  0.013
   17  0.026  0.002  0.010  0.038
   18  0.026  0.002  0.010  0.038
   19  0.007  0.001  0.010  0.017
   20  0.024  0.005  0.007  0.035
   21  0.024  0.005  0.007  0.035
   22  0.011  0.007  0.004  0.021
   23  0.024  0.005  0.007  0.035
   24  0.011  0.007  0.004  0.021
   25  0.007  0.001  0.010  0.017
   26  0.007  0.001  0.010  0.017
   27  0.011  0.007  0.004  0.021
   28  0.000  0.000  0.001  0.002
   29  0.001  0.001  0.005  0.007
   30  0.001  0.001  0.005  0.007
   31  0.001  0.001  0.005  0.007
   32  0.001  0.001  0.005  0.007
   33  0.001  0.001  0.005  0.007
   34  0.001  0.001  0.005  0.007
   35  0.004  0.001  0.001  0.006
   36  0.016  0.013  0.012  0.042
   37  0.005  0.004  0.000  0.009
   38  0.000  0.001  0.000  0.001
   39  0.000  0.000  0.000  0.000
tot    0.338  0.126  0.200  0.664
 
band    15 # energy   -5.10716448 # occ.  2.00000000
 
ion      s      p      d    tot
    1  0.002  0.001  0.011  0.014
    2  0.006  0.001  0.010  0.017
    3  0.006  0.001  0.010  0.017
    4  0.006  0.001  0.010  0.017
    5  0.010  0.000  0.009  0.019
    6  0.006  0.001  0.010  0.017
    7  0.006  0.001  0.010  0.017
    8  0.006  0.001  0.010  0.017
    9  0.009  0.000  0.010  0.019
   10  0.011  0.000  0.024  0.035
   11  0.005  0.000  0.023  0.028
   12  0.011  0.000  0.024  0.035
   13  0.005  0.000  0.023  0.028
   14  0.005  0.000  0.023  0.028
   15  0.007  0.000  0.023  0.030
   16  0.011  0.000  0.024  0.035
   17  0.007  0.000  0.023  0.030
   18  0.007  0.000  0.023  0.030
   19  0.008  0.001  0.017  0.025
   20  0.005  0.000  0.029  0.034
   21  0.005  0.000  0.029  0.034
   22  0.004  0.000  0.015  0.019
   23  0.005  0.000  0.029  0.034
   24  0.004  0.000  0.015  0.019
   25  0.008  0.001  0.017  0.025
   26  0.008  0.001  0.017  0.025
   27  0.004  0.000  0.015  0.019
   28  0.000  0.001  0.005  0.006
   29  0.003  0.001  0.007  0.011
   30  0.003  0.001  0.008  0.011
   31  0.003  0.001  0.007  0.011
   32  0.003  0.001  0.007  0.011
   33  0.003  0.001  0.008  0.011
   34  0.003  0.001  0.008  0.011
   35  0.001  0.000  0.004  0.005
   36  0.012  0.001  0.027  0.040
   37  0.000  0.000  0.000  0.000
   38  0.000  0.000  0.000  0.000
   39  0.000  0.000  0.000  0.000
tot    0.205  0.016  0.561  0.782
 
band    16 # energy   -5.10006552 # occ.  2.00000000
 
ion      s      p      d    tot
    1  0.000  0.002  0.009  0.011
    2  0.018  0.003  0.004  0.026
    3  0.004  0.002  0.004  0.010
    4  0.018  0.003  0.004  0.026
    5  0.000  0.001  0.008  0.009
    6  0.006  0.002  0.004  0.013
    7  0.003  0.002  0.004  0.009
    8  0.005  0.002  0.004  0.011
    9  0.000  0.005  0.008  0.013
   10  0.000  0.005  0.013  0.017
   11  0.009  0.002  0.008  0.019
   12  0.002  0.001  0.008  0.011
   13  0.008  0.002  0.009  0.019
   14  0.000  0.001  0.015  0.016
   15  0.018  0.003  0.007  0.029
   16  0.002  0.001  0.008  0.011
   17  0.017  0.003  0.008  0.028
   18  0.000  0.001  0.019  0.021
   19  0.006  0.004  0.009  0.018
   20  0.000  0.004  0.031  0.035
   21  0.000  0.001  0.016  0.018
   22  0.009  0.004  0.010  0.023
   23  0.000  0.001  0.015  0.016
   24  0.000  0.001  0.025  0.026
   25  0.000  0.000  0.009  0.009
   26  0.005  0.003  0.009  0.017
   27  0.010  0.004  0.008  0.023
   28  0.000  0.002  0.007  0.010
   29  0.024  0.003  0.009  0.036
   30  0.003  0.003  0.011  0.016
   31  0.025  0.003  0.009  0.037
   32  0.013  0.001  0.009  0.023
   33  0.002  0.003  0.011  0.015
   34  0.011  0.001  0.009  0.021
   35  0.000  0.006  0.006  0.012
   36  0.000  0.001  0.057  0.058
   37  0.000  0.000  0.000  0.000
   38  0.000  0.000  0.000  0.000
   39  0.000  0.000  0.000  0.000
tot    0.219  0.088  0.405  0.712
 
band    17 # energy   -5.09999017 # occ.  2.00000000
 
ion      s      p      d    tot
    1  0.000  0.002  0.009  0.011
    2  0.000  0.001  0.004  0.006
    3  0.014  0.003  0.005  0.021
    4  0.000  0.001  0.004  0.006
    5  0.000  0.001  0.008  0.009
    6  0.012  0.003  0.004  0.019
    7  0.015  0.003  0.005  0.023
    8  0.013  0.003  0.004  0.020
    9  0.000  0.005  0.008  0.013
   10  0.002  0.000  0.007  0.009
   11  0.003  0.001  0.013  0.017
   12  0.001  0.003  0.011  0.015
   13  0.003  0.001  0.013  0.017
   14  0.012  0.003  0.006  0.020
   15  0.005  0.002  0.016  0.023
   16  0.000  0.004  0.011  0.016
   17  0.007  0.002  0.015  0.024
   18  0.024  0.004  0.004  0.031
   19  0.002  0.001  0.009  0.012
   20  0.000  0.000  0.010  0.011
   21  0.000  0.003  0.025  0.028
   22  0.004  0.002  0.019  0.025
   23  0.000  0.003  0.027  0.030
   24  0.013  0.005  0.004  0.022
   25  0.007  0.004  0.009  0.020
   26  0.002  0.001  0.009  0.012
   27  0.003  0.002  0.020  0.025
   28  0.000  0.002  0.007  0.010
   29  0.002  0.001  0.010  0.013
   30  0.023  0.002  0.008  0.033
   31  0.001  0.002  0.010  0.013
   32  0.013  0.004  0.010  0.027
   33  0.024  0.002  0.008  0.034
   34  0.015  0.004  0.010  0.029
   35  0.000  0.006  0.006  0.012
   36  0.000  0.001  0.057  0.058
   37  0.000  0.000  0.000  0.000
   38  0.000  0.000  0.000  0.000
   39  0.000  0.000  0.000  0.000
tot    0.219  0.088  0.405  0.712
 
band    18 # energy   -5.05656356 # occ.  2.00000000
 
ion      s      p      d    tot
    1  0.000  0.005  0.010  0.015
    2  0.023  0.004  0.006  0.033
    3  0.007  0.002  0.006  0.015
    4  0.023  0.004  0.006  0.033
    5  0.000  0.005  0.011  0.016
    6  0.009  0.003  0.006  0.018
    7  0.003  0.002  0.006  0.011
    8  0.005  0.002  0.006  0.013
    9  0.000  0.000  0.013  0.013
   10  0.025  0.005  0.008  0.038
   11  0.002  0.003  0.022  0.028
   12  0.009  0.002  0.018  0.029
   13  0.005  0.003  0.018  0.026
   14  0.015  0.002  0.006  0.023
   15  0.000  0.003  0.014  0.018
   16  0.004  0.001  0.021  0.026
   17  0.001  0.003  0.013  0.016
   18  0.001  0.001  0.009  0.012
   19  0.001  0.002  0.020  0.023
   20  0.018  0.007  0.005  0.029
   21  0.006  0.002  0.019  0.027
   22  0.001  0.001  0.010  0.012
   23  0.003  0.001  0.023  0.027
   24  0.002  0.001  0.009  0.012
   25  0.005  0.001  0.004  0.011
   26  0.002  0.002  0.017  0.020
   27  0.000  0.001  0.011  0.012
   28  0.000  0.003  0.007  0.011
   29  0.016  0.004  0.006  0.026
   30  0.005  0.002  0.004  0.011
   31  0.017  0.004  0.006  0.027
   32  0.006  0.002  0.006  0.015
   33  0.002  0.001  0.004  0.008
   34  0.003  0.002  0.006  0.011
   35  0.000  0.000  0.008  0.008
   36  0.000  0.007  0.031  0.038
   37  0.000  0.000  0.000  0.000
   38  0.000  0.001  0.000  0.001
   39  0.000  0.000  0.000  0.000
tot    0.221  0.097  0.395  0.713
 
band    19 # energy   -5.05646933 # occ.  2.00000000
 
ion      s      p      d    tot
    1  0.000  0.005  0.010  0.015
    2  0.001  0.002  0.006  0.008
    3  0.016  0.004  0.006  0.026
    4  0.000  0.002  0.006  0.007
    5  0.000  0.005  0.011  0.016
    6  0.014  0.003  0.006  0.023
    7  0.020  0.004  0.006  0.030
    8  0.019  0.004  0.006  0.028
    9  0.000  0.000  0.013  0.013
   10  0.000  0.000  0.024  0.024
   11  0.012  0.002  0.009  0.023
   12  0.017  0.004  0.013  0.033
   13  0.010  0.003  0.012  0.025
   14  0.000  0.004  0.025  0.028
   15  0.001  0.001  0.010  0.013
   16  0.021  0.005  0.010  0.036
   17  0.001  0.002  0.011  0.014
   18  0.000  0.003  0.015  0.019
   19  0.005  0.002  0.007  0.013
   20  0.000  0.000  0.026  0.026
   21  0.012  0.004  0.012  0.028
   22  0.001  0.001  0.010  0.012
   23  0.015  0.006  0.008  0.029
   24  0.000  0.001  0.011  0.012
   25  0.000  0.002  0.023  0.025
   26  0.004  0.002  0.011  0.016
   27  0.002  0.001  0.010  0.012
   28  0.000  0.003  0.007  0.011
   29  0.000  0.001  0.005  0.007
   30  0.011  0.003  0.007  0.021
   31  0.000  0.001  0.005  0.006
   32  0.010  0.002  0.005  0.018
   33  0.014  0.003  0.007  0.025
   34  0.014  0.003  0.005  0.022
   35  0.000  0.000  0.008  0.008
   36  0.000  0.007  0.031  0.038
   37  0.000  0.000  0.000  0.000
   38  0.000  0.001  0.000  0.001
   39  0.000  0.000  0.000  0.000
tot    0.221  0.097  0.395  0.713
 
band    20 # energy   -5.01300206 # occ.  2.00000000
 
ion      s      p      d    tot
    1  0.041  0.003  0.000  0.045
    2  0.000  0.003  0.010  0.013
    3  0.000  0.003  0.010  0.013
    4  0.000  0.003  0.010  0.013
    5  0.000  0.000  0.001  0.002
    6  0.000  0.003  0.010  0.013
    7  0.000  0.003  0.010  0.013
    8  0.000  0.003  0.010  0.013
    9  0.021  0.003  0.001  0.025
   10  0.007  0.004  0.013  0.024
   11  0.003  0.000  0.013  0.017
   12  0.007  0.004  0.013  0.024
   13  0.003  0.000  0.014  0.017
   14  0.003  0.000  0.013  0.017
   15  0.005  0.003  0.018  0.026
   16  0.007  0.004  0.013  0.024
   17  0.005  0.003  0.018  0.026
   18  0.005  0.003  0.018  0.026
   19  0.006  0.004  0.015  0.025
   20  0.000  0.000  0.018  0.018
   21  0.000  0.000  0.018  0.018
   22  0.012  0.003  0.011  0.025
   23  0.000  0.000  0.018  0.018
   24  0.012  0.003  0.011  0.025
   25  0.006  0.004  0.015  0.025
   26  0.006  0.004  0.015  0.025
   27  0.012  0.003  0.011  0.025
   28  0.043  0.003  0.000  0.046
   29  0.000  0.003  0.010  0.013
   30  0.000  0.003  0.010  0.013
   31  0.000  0.003  0.010  0.013
   32  0.000  0.003  0.010  0.013
   33  0.000  0.003  0.010  0.013
   34  0.000  0.003  0.010  0.013
   35  0.018  0.003  0.002  0.023
   36  0.001  0.001  0.000  0.003
   37  0.000  0.000  0.000  0.000
   38  0.000  0.000  0.000  0.000
   39  0.000  0.000  0.000  0.000