 vasp.6.2.0 18Jan21 (build Jun 12 2021 23:27:24) complex                        
  
 executed on             LinuxIFC date 2022.05.28  00:37:34
 running on   28 total cores
 distrk:  each k-point on   28 cores,    1 groups
 distr:  one band on NCORE=   1 cores,   28 groups


--------------------------------------------------------------------------------------------------------


 INCAR:
   ISMEAR = -5
   SIGMA = 0.1
   ISPIN = 1
   EDIFF = 1.d-5
   EDIFFG = -0.01
   NSW = 0
   NELM = 150
   ENCUT = 500
   ISIF = 2
   IBRION = 2
   LREAL = Auto
   ALGO = Fast
   ICHARG = 11
   LORBIT = 10
   LCHARG = .F.
   LWAVE = .F.

 POTCAR:    PAW_PBE Au 04Oct2007                  
 POTCAR:    PAW_PBE V 08Apr2002                   
 POTCAR:    PAW_PBE C 08Apr2002                   
 POTCAR:    PAW_PBE O 08Apr2002                   
 -----------------------------------------------------------------------------
|                                                                             |
|           W    W    AA    RRRRR   N    N  II  N    N   GGGG   !!!           |
|           W    W   A  A   R    R  NN   N  II  NN   N  G    G  !!!           |
|           W    W  A    A  R    R  N N  N  II  N N  N  G       !!!           |
|           W WW W  AAAAAA  RRRRR   N  N N  II  N  N N  G  GGG   !            |
|           WW  WW  A    A  R   R   N   NN  II  N   NN  G    G                |
|           W    W  A    A  R    R  N    N  II  N    N   GGGG   !!!           |
|                                                                             |
|     For optimal performance we recommend to set                             |
|       NCORE = 2 up to number-of-cores-per-socket                            |
|     NCORE specifies how many cores store one orbital (NPAR=cpu/NCORE).      |
|     This setting can greatly improve the performance of VASP for DFT.       |
|     The default, NCORE=1 might be grossly inefficient on modern             |
|     multi-core architectures or massively parallel machines. Do your        |
|     own testing! More info at https://www.vasp.at/wiki/index.php/NCORE      |
|     Unfortunately you need to use the default for GW and RPA                |
|     calculations (for HF NCORE is supported but not extensively tested      |
|     yet).                                                                   |
|                                                                             |
 -----------------------------------------------------------------------------

 POTCAR:    PAW_PBE Au 04Oct2007                  
   VRHFIN =Au: s1d10                                                                                
   LEXCH  = PE                                                                                      
   EATOM  =   926.0867 eV,   68.0654 Ry                                                             
                                                                                                    
   TITEL  = PAW_PBE Au 04Oct2007                                                                    
   LULTRA =        F    use ultrasoft PP ?                                                          
   IUNSCR =        1    unscreen: 0-lin 1-nonlin 2-no                                               
   RPACOR =    2.330    partial core radius                                                         
   POMASS =  196.966; ZVAL   =   11.000    mass and valenz                                          
   RCORE  =    2.500    outmost cutoff radius                                                       
   RWIGS  =    2.840; RWIGS  =    1.503    wigner-seitz radius (au A)                               
   ENMAX  =  229.943; ENMIN  =  172.457 eV                                                          
   ICORE  =        3    local potential                                                             
   LCOR   =        T    correct aug charges                                                         
   LPAW   =        T    paw PP                                                                      
   EAUG   =  356.670                                                                                
   DEXC   =    0.000                                                                                
   RMAX   =    2.562    core radius for proj-oper                                                   
   RAUG   =    1.300    factor for augmentation sphere                                              
   RDEP   =    2.598    radius for radial grids                                                     
   RDEPT  =    2.193    core radius for aug-charge                                                  
                                                                                                    
   Atomic configuration                                                                             
   16 entries                                                                                       
     n  l   j            E        occ.                                                              
     1  0  0.50    -80748.5001   2.0000                                                             
     2  0  0.50    -14244.7466   2.0000                                                             
     2  1  1.50    -12310.9591   6.0000                                                             
     3  0  0.50     -3362.1768   2.0000                                                             
     3  1  1.50     -2801.5463   6.0000                                                             
     3  2  2.50     -2203.8206  10.0000                                                             
     4  0  0.50      -729.8168   2.0000                                                             
     4  1  1.50      -546.0527   6.0000                                                             
     4  2  2.50      -325.7302  10.0000                                                             
     4  3  3.50       -81.1472  14.0000                                                             
     5  0  0.50      -108.3201   2.0000                                                             
     5  1  1.50       -59.7479   6.0000                                                             
     5  2  2.50        -6.8783  10.0000                                                             
     6  0  0.50        -5.7602   1.0000                                                             
     6  1  1.50        -6.8029   0.0000                                                             
     5  3  2.50        -1.3606   0.0000                                                             
   Description                                                                                      
     l       E           TYP  RCUT    TYP  RCUT                                                     
     2     -6.8782861     23  2.500                                                                 
     2     -8.2388687     23  2.500                                                                 
     0     -5.7601759     23  2.500                                                                 
     0     -0.8493231     23  2.500                                                                 
     1     -2.7211652     23  2.500                                                                 
     1     27.2116520     23  2.500                                                                 
     3     -1.3605826     23  2.500                                                                 
  local pseudopotential read in
  partial core-charges read in
  partial kinetic energy density read in
  atomic valenz-charges read in
  non local Contribution for L=           2  read in
    real space projection operators read in
  non local Contribution for L=           2  read in
    real space projection operators read in
  non local Contribution for L=           0  read in
    real space projection operators read in
  non local Contribution for L=           0  read in
    real space projection operators read in
  non local Contribution for L=           1  read in
    real space projection operators read in
  non local Contribution for L=           1  read in
    real space projection operators read in
    PAW grid and wavefunctions read in
 
   number of l-projection  operators is LMAX  =           6
   number of lm-projection operators is LMMAX =          18
 
 POTCAR:    PAW_PBE V 08Apr2002                   
   VRHFIN =V: p6 d4 s1                                                                              
   LEXCH  = PE                                                                                      
   EATOM  =   170.8679 eV,   12.5584 Ry                                                             
                                                                                                    
   TITEL  = PAW_PBE V 08Apr2002                                                                     
   LULTRA =        F    use ultrasoft PP ?                                                          
   IUNSCR =        1    unscreen: 0-lin 1-nonlin 2-no                                               
   RPACOR =    2.000    partial core radius                                                         
   POMASS =   50.941; ZVAL   =    5.000    mass and valenz                                          
   RCORE  =    2.700    outmost cutoff radius                                                       
   RWIGS  =    2.500; RWIGS  =    1.323    wigner-seitz radius (au A)                               
   ENMAX  =  192.543; ENMIN  =  144.408 eV                                                          
   RCLOC  =    1.779    cutoff for local pot                                                        
   LCOR   =        T    correct aug charges                                                         
   LPAW   =        T    paw PP                                                                      
   EAUG   =  358.662                                                                                
   DEXC   =    0.000                                                                                
   RMAX   =    2.768    core radius for proj-oper                                                   
   RAUG   =    1.300    factor for augmentation sphere                                              
   RDEP   =    2.762    radius for radial grids                                                     
   RDEPT  =    2.240    core radius for aug-charge                                                  
                                                                                                    
   Atomic configuration                                                                             
    9 entries                                                                                       
     n  l   j            E        occ.                                                              
     1  0  0.50     -5360.7193   2.0000                                                             
     2  0  0.50      -598.4546   2.0000                                                             
     2  1  1.50      -499.0155   6.0000                                                             
     3  0  0.50       -66.5711   2.0000                                                             
     3  1  1.50       -40.5282   6.0000                                                             
     3  2  2.50        -2.4291   4.0000                                                             
     4  0  0.50        -3.8743   1.0000                                                             
     4  1  0.50        -2.7212   0.0000                                                             
     4  3  2.50        -1.3606   0.0000                                                             
   Description                                                                                      
     l       E           TYP  RCUT    TYP  RCUT                                                     
     2     -2.4290901     23  2.700                                                                 
     2     -3.7896727     23  2.700                                                                 
     0     -3.8742752     23  2.700                                                                 
     0     27.2116520     23  2.700                                                                 
     1     -2.7211652     23  2.700                                                                 
     1     27.2116520     23  2.700                                                                 
  local pseudopotential read in
  partial core-charges read in
  partial kinetic energy density read in
  atomic valenz-charges read in
  non local Contribution for L=           2  read in
    real space projection operators read in
  non local Contribution for L=           2  read in
    real space projection operators read in
  non local Contribution for L=           0  read in
    real space projection operators read in
  non local Contribution for L=           0  read in
    real space projection operators read in
  non local Contribution for L=           1  read in
    real space projection operators read in
  non local Contribution for L=           1  read in
    real space projection operators read in
    PAW grid and wavefunctions read in
 
   number of l-projection  operators is LMAX  =           6
   number of lm-projection operators is LMMAX =          18
 
 POTCAR:    PAW_PBE C 08Apr2002                   
   VRHFIN =C: s2p2                                                                                  
   LEXCH  = PE                                                                                      
   EATOM  =   147.1560 eV,   10.8157 Ry                                                             
                                                                                                    
   TITEL  = PAW_PBE C 08Apr2002                                                                     
   LULTRA =        F    use ultrasoft PP ?                                                          
   IUNSCR =        1    unscreen: 0-lin 1-nonlin 2-no                                               
   RPACOR =    1.200    partial core radius                                                         
   POMASS =   12.011; ZVAL   =    4.000    mass and valenz                                          
   RCORE  =    1.500    outmost cutoff radius                                                       
   RWIGS  =    1.630; RWIGS  =    0.863    wigner-seitz radius (au A)                               
   ENMAX  =  400.000; ENMIN  =  300.000 eV                                                          
   ICORE  =        2    local potential                                                             
   LCOR   =        T    correct aug charges                                                         
   LPAW   =        T    paw PP                                                                      
   EAUG   =  644.873                                                                                
   DEXC   =    0.000                                                                                
   RMAX   =    1.529    core radius for proj-oper                                                   
   RAUG   =    1.300    factor for augmentation sphere                                              
   RDEP   =    1.501    radius for radial grids                                                     
   RDEPT  =    1.300    core radius for aug-charge                                                  
                                                                                                    
   Atomic configuration                                                                             
    4 entries                                                                                       
     n  l   j            E        occ.                                                              
     1  0  0.50      -273.3789   2.0000                                                             
     2  0  0.50       -13.7508   2.0000                                                             
     2  1  0.50        -5.2854   2.0000                                                             
     3  2  1.50        -5.4423   0.0000                                                             
   Description                                                                                      
     l       E           TYP  RCUT    TYP  RCUT                                                     
     0    -13.7508458     23  1.200                                                                 
     0     -8.2022199     23  1.200                                                                 
     1     -5.2854383     23  1.500                                                                 
     1     34.0145650     23  1.500                                                                 
     2     -5.4423304      7  1.500                                                                 
  local pseudopotential read in
  partial core-charges read in
  partial kinetic energy density read in
  atomic valenz-charges read in
  non local Contribution for L=           0  read in
    real space projection operators read in
  non local Contribution for L=           0  read in
    real space projection operators read in
  non local Contribution for L=           1  read in
    real space projection operators read in
  non local Contribution for L=           1  read in
    real space projection operators read in
    PAW grid and wavefunctions read in
 
   number of l-projection  operators is LMAX  =           4
   number of lm-projection operators is LMMAX =           8
 
 POTCAR:    PAW_PBE O 08Apr2002                   
   VRHFIN =O: s2p4                                                                                  
   LEXCH  = PE                                                                                      
   EATOM  =   432.3788 eV,   31.7789 Ry                                                             
                                                                                                    
   TITEL  = PAW_PBE O 08Apr2002                                                                     
   LULTRA =        F    use ultrasoft PP ?                                                          
   IUNSCR =        1    unscreen: 0-lin 1-nonlin 2-no                                               
   RPACOR =    1.200    partial core radius                                                         
   POMASS =   16.000; ZVAL   =    6.000    mass and valenz                                          
   RCORE  =    1.520    outmost cutoff radius                                                       
   RWIGS  =    1.550; RWIGS  =    0.820    wigner-seitz radius (au A)                               
   ENMAX  =  400.000; ENMIN  =  300.000 eV                                                          
   ICORE  =        2    local potential                                                             
   LCOR   =        T    correct aug charges                                                         
   LPAW   =        T    paw PP                                                                      
   EAUG   =  605.392                                                                                
   DEXC   =    0.000                                                                                
   RMAX   =    1.553    core radius for proj-oper                                                   
   RAUG   =    1.300    factor for augmentation sphere                                              
   RDEP   =    1.550    radius for radial grids                                                     
   RDEPT  =    1.329    core radius for aug-charge                                                  
                                                                                                    
   Atomic configuration                                                                             
    4 entries                                                                                       
     n  l   j            E        occ.                                                              
     1  0  0.50      -514.6923   2.0000                                                             
     2  0  0.50       -23.9615   2.0000                                                             
     2  1  0.50        -9.0305   4.0000                                                             
     3  2  1.50        -9.5241   0.0000                                                             
   Description                                                                                      
     l       E           TYP  RCUT    TYP  RCUT                                                     
     0    -23.9615318     23  1.200                                                                 
     0     -9.5240782     23  1.200                                                                 
     1     -9.0304911     23  1.520                                                                 
     1      8.1634956     23  1.520                                                                 
     2     -9.5240782      7  1.500                                                                 
  local pseudopotential read in
  partial core-charges read in
  partial kinetic energy density read in
  kinetic energy density of atom read in
  atomic valenz-charges read in
  non local Contribution for L=           0  read in
    real space projection operators read in
  non local Contribution for L=           0  read in
    real space projection operators read in
  non local Contribution for L=           1  read in
    real space projection operators read in
  non local Contribution for L=           1  read in
    real space projection operators read in
    PAW grid and wavefunctions read in
 
   number of l-projection  operators is LMAX  =           4
   number of lm-projection operators is LMMAX =           8
 
 Optimization of the real space projectors (new method)

 maximal supplied QI-value         = 15.12
 optimisation between [QCUT,QGAM] = [ 11.34, 22.83] = [ 36.00,145.93] Ry 
 Optimized for a Real-space Cutoff    1.39 Angstroem

   l    n(q)    QCUT    max X(q) W(low)/X(q) W(high)/X(q)  e(spline) 
   2      9    11.338    60.898    0.39E-03    0.42E-03    0.21E-06
   2      9    11.338    58.894    0.40E-03    0.42E-03    0.22E-06
   0      9    11.338   109.617    0.13E-03    0.20E-04    0.13E-06
   0      9    11.338    75.026    0.13E-03    0.20E-04    0.13E-06
   1      9    11.338    16.344    0.33E-04    0.24E-03    0.18E-06
   1      9    11.338    10.160    0.26E-04    0.19E-03    0.15E-06
 Optimization of the real space projectors (new method)

 maximal supplied QI-value         = 13.98
 optimisation between [QCUT,QGAM] = [ 11.33, 22.79] = [ 35.93,145.49] Ry 
 Optimized for a Real-space Cutoff    1.56 Angstroem

   l    n(q)    QCUT    max X(q) W(low)/X(q) W(high)/X(q)  e(spline) 
   2     10    11.327    96.114    0.36E-03    0.35E-03    0.42E-06
   2     10    11.327    88.986    0.37E-03    0.35E-03    0.42E-06
   0     11    11.327    20.919    0.40E-04    0.56E-04    0.79E-06
   0     11    11.327     9.593    0.30E-04    0.41E-04    0.60E-06
   1     10    11.327    11.615    0.15E-03    0.10E-03    0.19E-06
   1     10    11.327     7.031    0.11E-03    0.73E-04    0.14E-06
 Optimization of the real space projectors (new method)

 maximal supplied QI-value         = 25.13
 optimisation between [QCUT,QGAM] = [ 11.31, 22.87] = [ 35.82,146.48] Ry 
 Optimized for a Real-space Cutoff    1.00 Angstroem

   l    n(q)    QCUT    max X(q) W(low)/X(q) W(high)/X(q)  e(spline) 
   0      7    11.310   115.676    0.43E-03    0.13E-02    0.19E-06
   0      7    11.310    87.132    0.43E-03    0.13E-02    0.18E-06
   1      6    11.310     4.429    0.42E-03    0.74E-03    0.11E-06
   1      6    11.310     2.733    0.34E-03    0.55E-03    0.92E-07
 Optimization of the real space projectors (new method)

 maximal supplied QI-value         = 24.76
 optimisation between [QCUT,QGAM] = [ 11.39, 22.77] = [ 36.31,145.25] Ry 
 Optimized for a Real-space Cutoff    1.00 Angstroem

   l    n(q)    QCUT    max X(q) W(low)/X(q) W(high)/X(q)  e(spline) 
   0      7    11.387    20.381    0.39E-03    0.13E-02    0.15E-06
   0      7    11.387    15.268    0.42E-03    0.14E-02    0.17E-06
   1      6    11.387     5.964    0.41E-03    0.11E-02    0.17E-06
   1      6    11.387     5.382    0.39E-03    0.87E-03    0.15E-06
  PAW_PBE Au 04Oct2007                  :
 energy of atom  1       EATOM= -926.0867
 kinetic energy error for atom=    0.0042 (will be added to EATOM!!)
  PAW_PBE V 08Apr2002                   :
 energy of atom  2       EATOM= -170.8679
 kinetic energy error for atom=    0.0003 (will be added to EATOM!!)
  PAW_PBE C 08Apr2002                   :
 energy of atom  3       EATOM= -147.1560
 kinetic energy error for atom=    0.0076 (will be added to EATOM!!)
  PAW_PBE O 08Apr2002                   :
 energy of atom  4       EATOM= -432.3788
 kinetic energy error for atom=    0.0224 (will be added to EATOM!!)
 
 
 POSCAR: Au-V-CO2
  positions in direct lattice
  velocities in cartesian coordinates
 exchange correlation table for  LEXCH =        8
   RHO(1)=    0.500       N(1)  =     2000
   RHO(2)=  100.500       N(2)  =     4000

 VTST: version 3.2, (02/03/18)

 CHAIN: initializing optimizer
 
 OPT: Using VASP Conjugate-Gradient optimizer
 CHAIN: Read ICHAIN            0
 
 POSCAR: Au-V-CO2
  positions in direct lattice
  velocities in cartesian coordinates
 


--------------------------------------------------------------------------------------------------------


 ion  position               nearest neighbor table
   1  0.000  0.000  0.217-  16 2.94  12 2.94   6 2.94   8 2.94   7 2.94   3 2.94  10 2.94   4 2.94
                             2 2.94
   2  0.333  0.000  0.217-   9 2.94  11 2.94  17 2.94  10 2.94   8 2.94   4 2.94   5 2.94   1 2.94
                             3 2.94
   3  0.667  0.000  0.217-   7 2.94  18 2.94  12 2.94   1 2.94  11 2.94   5 2.94   6 2.94   9 2.94
                             2 2.94
   4  0.000  0.333  0.217-  10 2.94   6 2.94   5 2.94  13 2.94   2 2.94  15 2.94   9 2.94   1 2.94
                             7 2.94
   5  0.333  0.333  0.217-  13 2.94   7 2.94  11 2.94   4 2.94   2 2.94  14 2.94   3 2.94   8 2.94
                             6 2.94
   6  0.667  0.333  0.217-  15 2.94  14 2.94   1 2.94  12 2.94   4 2.94   9 2.94   8 2.94   3 2.94
                             5 2.94
   7  0.000  0.667  0.217-  18 2.94   3 2.94  16 2.94   5 2.94   1 2.94  13 2.94   8 2.94   4 2.94
                             9 2.94
   8  0.333  0.667  0.217-   9 2.94  17 2.94   1 2.94   2 2.94  14 2.94  16 2.94   6 2.94   7 2.94
                             5 2.94
   9  0.667  0.667  0.217-   2 2.94   8 2.94  17 2.94   6 2.94  15 2.94   4 2.94   3 2.94  18 2.94
                             7 2.94
  10  0.111  0.111  0.315-  20 2.93  26 2.94  19 2.94  11 2.94  17 2.94   2 2.94   4 2.94   1 2.94
                            12 2.94  16 2.94  13 2.94  15 2.94
  11  0.444  0.111  0.315-  20 2.92  21 2.92  27 2.94  13 2.94   2 2.94  10 2.94  17 2.94   5 2.94
                             3 2.94  18 2.94  14 2.94  12 2.94
  12  0.778  0.111  0.315-  21 2.93  25 2.94  19 2.94  16 2.94  18 2.94   1 2.94  14 2.94  15 2.94
                             3 2.94   6 2.94  10 2.94  11 2.94
  13  0.111  0.444  0.315-  23 2.92  20 2.92  22 2.94   5 2.94  18 2.94  11 2.94   7 2.94   4 2.94
                            16 2.94  10 2.94  14 2.94  15 2.94
  14  0.444  0.444  0.315-  21 2.92  23 2.92  24 2.94  15 2.94   6 2.94  12 2.94   8 2.94  17 2.94
                             5 2.94  16 2.94  13 2.94  11 2.94
  15  0.778  0.444  0.315-  24 2.92  22 2.92  19 2.93  14 2.94   6 2.94  17 2.94  12 2.94   9 2.94
                             4 2.94  10 2.94  13 2.94  18 2.94
  16  0.111  0.778  0.315-  23 2.93  25 2.94  26 2.94  18 2.94  12 2.94   7 2.94   1 2.94   8 2.94
                            13 2.94  10 2.94  14 2.94  17 2.94
  17  0.444  0.778  0.315-  27 2.92  24 2.92  26 2.93   9 2.94  15 2.94   2 2.94  10 2.94  11 2.94
                             8 2.94  14 2.94  16 2.94  18 2.94
  18  0.778  0.778  0.315-  22 2.92  27 2.92  25 2.93  16 2.94   7 2.94  13 2.94  12 2.94   3 2.94
                            11 2.94   9 2.94  15 2.94  17 2.94
  19  0.889  0.222  0.413-  15 2.93  10 2.94  12 2.94  24 2.94  22 2.94  28 2.94  26 2.94  25 2.94
                            21 2.95  20 2.95  32 3.03  31 3.03
  20  0.223  0.223  0.413-  36 2.72  23 2.92  21 2.92  11 2.92  13 2.92  10 2.93  29 2.95  31 2.95
                            26 2.95  19 2.95  27 2.95  22 2.95
  21  0.554  0.223  0.413-  36 2.72  20 2.92  23 2.92  14 2.92  11 2.92  12 2.93  30 2.95  32 2.95
                            25 2.95  19 2.95  27 2.95  24 2.95
  22  0.887  0.557  0.413-  24 2.91  27 2.91  18 2.92  15 2.92  25 2.94  19 2.94  13 2.94  23 2.95
                            20 2.95  35 2.96  33 2.99  31 2.99
  23  0.223  0.554  0.413-  36 2.72  20 2.92  21 2.92  13 2.92  14 2.92  16 2.93  33 2.95  34 2.95
                            25 2.95  26 2.95  22 2.95  24 2.95
  24  0.557  0.557  0.413-  27 2.91  22 2.91  15 2.92  17 2.92  26 2.94  19 2.94  14 2.94  21 2.95
                            23 2.95  35 2.96  32 2.99  34 2.99
  25  0.889  0.889  0.413-  18 2.93  16 2.94  12 2.94  22 2.94  27 2.94  28 2.94  19 2.94  26 2.94
                            23 2.95  21 2.95  33 3.03  30 3.03
  26  0.222  0.889  0.413-  17 2.93  10 2.94  16 2.94  27 2.94  24 2.94  28 2.94  19 2.94  25 2.94
                            20 2.95  23 2.95  29 3.03  34 3.03
  27  0.557  0.887  0.413-  24 2.91  22 2.91  17 2.92  18 2.92  26 2.94  25 2.94  11 2.94  20 2.95
                            21 2.95  35 2.96  29 2.99  30 2.99
  28  0.000  0.000  0.512-  25 2.94  19 2.94  26 2.94  34 2.99  32 2.99  33 2.99  30 2.99  31 2.99
                            29 2.99
  29  0.334  0.011  0.514-  30 2.83  31 2.85  36 2.86  20 2.95  35 2.98  27 2.99  28 2.99  26 3.03
                            34 3.13
  30  0.655  0.011  0.514-  29 2.83  32 2.85  36 2.86  21 2.95  35 2.98  27 2.99  28 2.99  25 3.03
                            33 3.13
  31  0.011  0.334  0.514-  33 2.83  29 2.85  36 2.86  20 2.95  35 2.98  22 2.99  28 2.99  19 3.03
                            32 3.13
  32  0.655  0.334  0.514-  34 2.83  30 2.85  36 2.86  21 2.95  35 2.98  24 2.99  28 2.99  19 3.03
                            31 3.13
  33  0.011  0.655  0.514-  31 2.83  34 2.85  36 2.86  23 2.95  35 2.98  22 2.99  28 2.99  25 3.03
                            30 3.13
  34  0.334  0.655  0.514-  32 2.83  33 2.85  36 2.86  23 2.95  35 2.98  24 2.99  28 2.99  26 3.03
                            29 3.13
  35  0.667  0.667  0.513-  24 2.96  27 2.96  22 2.96  29 2.98  34 2.98  32 2.98  31 2.98  30 2.98
                            33 2.98
  36  0.333  0.333  0.501-  20 2.72  23 2.72  21 2.72  33 2.86  31 2.86  29 2.86  30 2.86  34 2.86
                            32 2.86
  37  0.338  0.333  0.672-  38 1.18  39 1.18
  38  0.205  0.333  0.674-  37 1.18
  39  0.472  0.333  0.669-  37 1.18
 
  LATTYP: Found a hexagonal cell.
 ALAT       =     8.8135128021
 C/A-ratio  =     2.7649717827
  
  Lattice vectors:
  
 A1 = (  -4.4067569092,  -7.6327256898,   0.0000000000)
 A2 = (   8.8135128021,   0.0000000000,   0.0000000000)
 A3 = (   0.0000000000,   0.0000000000,  24.3691142040)


Analysis of symmetry for initial positions (statically):
=====================================================================
 Subroutine PRICEL returns:
 Original cell was already a primitive cell.
 

 Routine SETGRP: Setting up the symmetry group for a 
 hexagonal supercell.


 Subroutine GETGRP returns: Found  1 space group operations
 (whereof  1 operations were pure point group operations)
 out of a pool of 24 trial point group operations.


The static configuration has the point symmetry C_1 .


Analysis of symmetry for dynamics (positions and initial velocities):
=====================================================================
 Subroutine PRICEL returns:
 Original cell was already a primitive cell.
 

 Routine SETGRP: Setting up the symmetry group for a 
 hexagonal supercell.


 Subroutine GETGRP returns: Found  1 space group operations
 (whereof  1 operations were pure point group operations)
 out of a pool of 24 trial point group operations.


The dynamic configuration has the point symmetry C_1 .


Analysis of constrained symmetry for selective dynamics:
=====================================================================
 Subroutine PRICEL returns:
 Original cell was already a primitive cell.
 

 Routine SETGRP: Setting up the symmetry group for a 
 hexagonal supercell.


 Subroutine GETGRP returns: Found  1 space group operations
 (whereof  1 operations were pure point group operations)
 out of a pool of 24 trial point group operations.


The constrained configuration has the point symmetry C_1 .


 Subroutine INISYM returns: Found  1 space group operations
 (whereof  1 operations are pure point group operations),
 and found     1 'primitive' translations


----------------------------------------------------------------------------------------

                                     Primitive cell                                     

  volume of cell :    1639.3377

  direct lattice vectors                    reciprocal lattice vectors
     8.813512802  0.000000000  0.000000000     0.113462137 -0.065507406  0.000000000
     4.406756909  7.632725690  0.000000000     0.000000000  0.131014796  0.000000000
     0.000000000  0.000000000 24.369114204     0.000000000  0.000000000  0.041035550

  length of vectors
     8.813512802  8.813512802 24.369114204     0.131014796  0.131014796  0.041035550

  position of ions in fractional coordinates (direct lattice)
     0.000000000  0.000000000  0.216683294
     0.333333343  0.000000000  0.216683294
     0.666666687  0.000000000  0.216683294
     1.000000000  0.333333343  0.216683294
     0.333333313  0.333333343  0.216683294
     0.666666687  0.333333343  0.216683294
     1.000000000  0.666666687  0.216683294
     0.333333343  0.666666687  0.216683294
     0.666666627  0.666666687  0.216683294
     0.111111119  0.111111112  0.315116667
     0.444444418  0.111111112  0.315116667
     0.777777791  0.111111112  0.315116667
     0.111111127  0.444444448  0.315116667
     0.444444478  0.444444448  0.315116667
     0.777777731  0.444444448  0.315116667
     0.111111090  0.777777791  0.315116667
     0.444444448  0.777777791  0.315116667
     0.777777851  0.777777791  0.315116667
     0.888779964  0.222440088  0.413451759
     0.222983025  0.222983010  0.412887672
     0.554034011  0.222983010  0.412887672
     0.886742282  0.556628889  0.413024192
     0.222982980  0.554034011  0.412887672
     0.556628889  0.556628889  0.413024192
     0.888779964  0.888779964  0.413451759
     0.222440118  0.888779964  0.413451759
     0.556628829  0.886742282  0.413024192
     0.000000000  0.000000000  0.511828709
     0.333994608  0.010639071  0.513821833
     0.655366352  0.010639071  0.513821833
     0.010639071  0.333994608  0.513821833
     0.655366352  0.333994608  0.513821833
     0.010639071  0.655366352  0.513821833
     0.333994608  0.655366352  0.513821833
     0.666666627  0.666666687  0.512957491
     0.333333313  0.333333343  0.500687074
     0.338273601  0.333343496  0.671560233
     0.204978062  0.333297159  0.674137847
     0.471578561  0.333309256  0.668575539

  ion indices of the primitive-cell ions
   primitive index   ion index
                 1           1
                 2           2
                 3           3
                 4           4
                 5           5
                 6           6
                 7           7
                 8           8
                 9           9
                10          10
                11          11
                12          12
                13          13
                14          14
                15          15
                16          16
                17          17
                18          18
                19          19
                20          20
                21          21
                22          22
                23          23
                24          24
                25          25
                26          26
                27          27
                28          28
                29          29
                30          30
                31          31
                32          32
                33          33
                34          34
                35          35
                36          36
                37          37
                38          38
                39          39

----------------------------------------------------------------------------------------

 
 
 KPOINTS: Automatic mesh                          

Automatic generation of k-mesh.
 Grid dimensions read from file:
 generate k-points for:    8    8    1

 Generating k-lattice:

  Cartesian coordinates                     Fractional coordinates (reciprocal lattice)
     0.014182767 -0.008188426  0.000000000     0.125000000 -0.000000000  0.000000000
     0.000000000  0.016376850  0.000000000     0.000000000  0.125000000  0.000000000
     0.000000000  0.000000000  0.041035550     0.000000000  0.000000000  1.000000000

  Length of vectors
     0.016376850  0.016376850  0.041035550

  Shift w.r.t. Gamma in fractional coordinates (k-lattice)
     0.000000000  0.000000000  0.000000000

 TETIRR: Found    192 inequivalent tetrahedra from      384
 
 Subroutine IBZKPT returns following result:
 ===========================================
 
 Found     34 irreducible k-points:
 
 Following reciprocal coordinates:
            Coordinates               Weight
  0.000000  0.000000  0.000000      1.000000
  0.125000  0.000000  0.000000      2.000000
  0.125000  0.125000  0.000000      2.000000
  0.000000  0.125000  0.000000      2.000000
  0.250000  0.000000  0.000000      2.000000
  0.250000  0.250000  0.000000      2.000000
  0.000000  0.250000  0.000000      2.000000
  0.375000 -0.000000  0.000000      2.000000
  0.375000  0.375000  0.000000      2.000000
  0.000000  0.375000  0.000000      2.000000
  0.500000  0.000000  0.000000      1.000000
  0.500000  0.500000  0.000000      1.000000
  0.000000  0.500000  0.000000      1.000000
  0.250000  0.125000  0.000000      2.000000
  0.125000  0.250000  0.000000      2.000000
 -0.125000  0.125000  0.000000      2.000000
  0.375000  0.125000  0.000000      2.000000
  0.250000  0.375000  0.000000      2.000000
 -0.125000  0.250000  0.000000      2.000000
  0.250000 -0.125000  0.000000      2.000000
 -0.125000 -0.375000  0.000000      2.000000
 -0.375000 -0.250000  0.000000      2.000000
  0.500000  0.125000  0.000000      2.000000
  0.375000  0.500000  0.000000      2.000000
 -0.125000  0.375000  0.000000      2.000000
  0.375000 -0.125000  0.000000      2.000000
 -0.125000  0.500000  0.000000      2.000000
  0.500000 -0.375000  0.000000      2.000000
  0.500000  0.250000  0.000000      2.000000
  0.250000  0.500000  0.000000      2.000000
 -0.250000  0.250000  0.000000      2.000000
 -0.375000  0.250000  0.000000      2.000000
  0.375000 -0.375000  0.000000      2.000000
 -0.250000  0.375000  0.000000      2.000000
 
 Following cartesian coordinates:
            Coordinates               Weight
  0.000000  0.000000  0.000000      1.000000
  0.014183 -0.008188  0.000000      2.000000
  0.014183  0.008188  0.000000      2.000000
  0.000000  0.016377  0.000000      2.000000
  0.028366 -0.016377  0.000000      2.000000
  0.028366  0.016377  0.000000      2.000000
  0.000000  0.032754  0.000000      2.000000
  0.042548 -0.024565  0.000000      2.000000
  0.042548  0.024565  0.000000      2.000000
  0.000000  0.049131  0.000000      2.000000
  0.056731 -0.032754  0.000000      1.000000
  0.056731  0.032754  0.000000      1.000000
  0.000000  0.065507  0.000000      1.000000
  0.028366 -0.000000  0.000000      2.000000
  0.014183  0.024565  0.000000      2.000000
 -0.014183  0.024565  0.000000      2.000000
  0.042548 -0.008188  0.000000      2.000000
  0.028366  0.032754  0.000000      2.000000
 -0.014183  0.040942  0.000000      2.000000
  0.028366 -0.032754  0.000000      2.000000
 -0.014183 -0.040942  0.000000      2.000000
 -0.042548 -0.008188  0.000000      2.000000
  0.056731 -0.016377  0.000000      2.000000
  0.042548  0.040942  0.000000      2.000000
 -0.014183  0.057319  0.000000      2.000000
  0.042548 -0.040942  0.000000      2.000000
 -0.014183  0.073696  0.000000      2.000000
  0.056731 -0.081884  0.000000      2.000000
  0.056731 -0.000000  0.000000      2.000000
  0.028366  0.049131  0.000000      2.000000
 -0.028366  0.049131  0.000000      2.000000
 -0.042548  0.057319  0.000000      2.000000
  0.042548 -0.073696  0.000000      2.000000
 -0.028366  0.065507  0.000000      2.000000
 


--------------------------------------------------------------------------------------------------------




 Dimension of arrays:
   k-points           NKPTS =     34   k-points in BZ     NKDIM =     34   number of bands    NBANDS=    252
   number of dos      NEDOS =    301   number of ions     NIONS =     39
   non local maximal  LDIM  =      6   non local SUM 2l+1 LMDIM =     18
   total plane-waves  NPLWV = 322560
   max r-space proj   IRMAX =   3204   max aug-charges    IRDMAX=  12231
   dimension x,y,z NGX =    48 NGY =   48 NGZ =  140
   dimension x,y,z NGXF=    96 NGYF=   96 NGZF=  280
   support grid    NGXF=    96 NGYF=   96 NGZF=  280
   ions per type =              35   1   1   2
   NGX,Y,Z   is equivalent  to a cutoff of   9.05,  9.05,  9.55 a.u.
   NGXF,Y,Z  is equivalent  to a cutoff of  18.11, 18.11, 19.10 a.u.

 SYSTEM =  unknown system                          
 POSCAR =  Au-V-CO2                                

 Startparameter for this run:
   NWRITE =      2    write-flag & timer
   PREC   = normal    normal or accurate (medium, high low for compatibility)
   ISTART =      0    job   : 0-new  1-cont  2-samecut
   ICHARG =     11    charge: 1-file 2-atom 10-const
   ISPIN  =      1    spin polarized calculation?
   LNONCOLLINEAR =      F non collinear calculations
   LSORBIT =      F    spin-orbit coupling
   INIWAV =      1    electr: 0-lowe 1-rand  2-diag
   LASPH  =      F    aspherical Exc in radial PAW
   METAGGA=      F    non-selfconsistent MetaGGA calc.

 Electronic Relaxation 1
   ENCUT  =  500.0 eV  36.75 Ry    6.06 a.u.  16.07 16.07 44.43*2*pi/ulx,y,z
   ENINI  =  500.0     initial cutoff
   ENAUG  =  644.9 eV  augmentation charge cutoff
   NELM   =    150;   NELMIN=  2; NELMDL= -5     # of ELM steps 
   EDIFF  = 0.1E-04   stopping-criterion for ELM
   LREAL  =      T    real-space projection
   NLSPLINE    = F    spline interpolate recip. space projectors
   LCOMPAT=      F    compatible to vasp.4.4
   GGA_COMPAT  = T    GGA compatible to vasp.4.4-vasp.4.6
   LMAXPAW     = -100 max onsite density
   LMAXMIX     =    2 max onsite mixed and CHGCAR
   VOSKOWN=      0    Vosko Wilk Nusair interpolation
   ROPT   =   -0.00050  -0.00050  -0.00050  -0.00050
 Ionic relaxation
   EDIFFG = -.1E-01   stopping-criterion for IOM
   NSW    =      0    number of steps for IOM
   NBLOCK =      1;   KBLOCK =      1    inner block; outer block 
   IBRION =     -1    ionic relax: 0-MD 1-quasi-New 2-CG
   NFREE  =      1    steps in history (QN), initial steepest desc. (CG)
   ISIF   =      2    stress and relaxation
   IWAVPR =     10    prediction:  0-non 1-charg 2-wave 3-comb
   ISYM   =      2    0-nonsym 1-usesym 2-fastsym
   LCORR  =      T    Harris-Foulkes like correction to forces

   POTIM  = 0.5000    time-step for ionic-motion
   TEIN   =    0.0    initial temperature
   TEBEG  =    0.0;   TEEND  =   0.0 temperature during run
   SMASS  =  -3.00    Nose mass-parameter (am)
   estimated Nose-frequenzy (Omega)   =  0.10E-29 period in steps = 0.13E+47 mass=  -0.178E-26a.u.
   SCALEE = 1.0000    scale energy and forces
   NPACO  =    256;   APACO  = 16.0  distance and # of slots for P.C.
   PSTRESS=    0.0 pullay stress

  Mass of Ions in am
   POMASS = 196.97 50.94 12.01 16.00
  Ionic Valenz
   ZVAL   =  11.00  5.00  4.00  6.00
  Atomic Wigner-Seitz radii
   RWIGS  =  -1.00 -1.00 -1.00 -1.00
  virtual crystal weights 
   VCA    =   1.00  1.00  1.00  1.00
   NELECT =     406.0000    total number of electrons
   NUPDOWN=      -1.0000    fix difference up-down

 DOS related values:
   EMIN   =  10.00;   EMAX   =-10.00  energy-range for DOS
   EFERMI =   0.00
   ISMEAR =    -5;   SIGMA  =   0.10  broadening in eV -4-tet -1-fermi 0-gaus

 Electronic relaxation 2 (details)
   IALGO  =     68    algorithm
   LDIAG  =      T    sub-space diagonalisation (order eigenvalues)
   LSUBROT=      F    optimize rotation matrix (better conditioning)
   TURBO    =      0    0=normal 1=particle mesh
   IRESTART =      0    0=no restart 2=restart with 2 vectors
   NREBOOT  =      0    no. of reboots
   NMIN     =      0    reboot dimension
   EREF     =   0.00    reference energy to select bands
   IMIX   =      4    mixing-type and parameters
     AMIX     =   0.40;   BMIX     =  1.00
     AMIX_MAG =   1.60;   BMIX_MAG =  1.00
     AMIN     =   0.10
     WC   =   100.;   INIMIX=   1;  MIXPRE=   1;  MAXMIX= -45

 Intra band minimization:
   WEIMIN = 0.0000     energy-eigenvalue tresh-hold
   EBREAK =  0.99E-08  absolut break condition
   DEPER  =   0.30     relativ break condition  

   TIME   =   0.40     timestep for ELM

  volume/ion in A,a.u.               =      42.03       283.66
  Fermi-wavevector in a.u.,A,eV,Ry     =   1.028081  1.942792 14.380687  1.056951
  Thomas-Fermi vector in A             =   2.162059
 
 Write flags
   LWAVE        =      F    write WAVECAR
   LDOWNSAMPLE  =      F    k-point downsampling of WAVECAR
   LCHARG       =      F    write CHGCAR
   LVTOT        =      F    write LOCPOT, total local potential
   LVHAR        =      F    write LOCPOT, Hartree potential only
   LELF         =      F    write electronic localiz. function (ELF)
   LORBIT       =     10    0 simple, 1 ext, 2 COOP (PROOUT), +10 PAW based schemes


 Dipole corrections
   LMONO  =      F    monopole corrections only (constant potential shift)
   LDIPOL =      F    correct potential (dipole corrections)
   IDIPOL =      0    1-x, 2-y, 3-z, 4-all directions 
   EPSILON=  1.0000000 bulk dielectric constant

 Exchange correlation treatment:
   GGA     =    --    GGA type
   LEXCH   =     8    internal setting for exchange type
   VOSKOWN=      0    Vosko Wilk Nusair interpolation
   LHFCALC =     F    Hartree Fock is set to
   LHFONE  =     F    Hartree Fock one center treatment
   AEXX    =    0.0000 exact exchange contribution

 Linear response parameters
   LEPSILON=     F    determine dielectric tensor
   LRPA    =     F    only Hartree local field effects (RPA)
   LNABLA  =     F    use nabla operator in PAW spheres
   LVEL    =     F    velocity operator in full k-point grid
   LINTERFAST=   F  fast interpolation
   KINTER  =     0    interpolate to denser k-point grid
   CSHIFT  =0.1000    complex shift for real part using Kramers Kronig
   OMEGAMAX=  -1.0    maximum frequency
   DEG_THRESHOLD= 0.2000000E-02 threshold for treating states as degnerate
   RTIME   =   -0.100 relaxation time in fs
  (WPLASMAI=    0.000 imaginary part of plasma frequency in eV, 0.658/RTIME)
   DFIELD  = 0.0000000 0.0000000 0.0000000 field for delta impulse in time
 
 Orbital magnetization related:
   ORBITALMAG=     F  switch on orbital magnetization
   LCHIMAG   =     F  perturbation theory with respect to B field
   DQ        =  0.001000  dq finite difference perturbation B field
   LLRAUG    =     F  two centre corrections for induced B field



--------------------------------------------------------------------------------------------------------


 Static calculation
 charge density and potential remain constant during run
 non-spin polarized calculation
 RMM-DIIS sequential band-by-band and
  variant of blocked Davidson during initial phase
 perform sub-space diagonalisation
    before iterative eigenvector-optimisation
 no mixing
 using additional bands           49
 real space projection scheme for non local part
 use partial core corrections
 calculate Harris-corrections to forces 
   (improved forces if not selfconsistent)
 use gradient corrections 
 WARNING: stress and forces are not correct
  (second derivative of E(xc) not defined)
 use of overlap-Matrix (Vanderbilt PP)
 Fermi weights with tetrahedron method with Bloechl corrections


--------------------------------------------------------------------------------------------------------


  energy-cutoff  :      500.00
  volume of cell :     1639.34
      direct lattice vectors                 reciprocal lattice vectors
     8.813512802  0.000000000  0.000000000     0.113462137 -0.065507406  0.000000000
     4.406756909  7.632725690  0.000000000     0.000000000  0.131014796  0.000000000
     0.000000000  0.000000000 24.369114204     0.000000000  0.000000000  0.041035550

  length of vectors
     8.813512802  8.813512802 24.369114204     0.131014796  0.131014796  0.041035550


 
 k-points in units of 2pi/SCALE and weight: Automatic mesh                          
   0.00000000  0.00000000  0.00000000       0.016
   0.01418277 -0.00818843  0.00000000       0.031
   0.01418277  0.00818842  0.00000000       0.031
   0.00000000  0.01637685  0.00000000       0.031
   0.02836553 -0.01637685  0.00000000       0.031
   0.02836553  0.01637685  0.00000000       0.031
   0.00000000  0.03275370  0.00000000       0.031
   0.04254830 -0.02456528  0.00000000       0.031
   0.04254830  0.02456527  0.00000000       0.031
   0.00000000  0.04913055  0.00000000       0.031
   0.05673107 -0.03275370  0.00000000       0.016
   0.05673107  0.03275370  0.00000000       0.016
   0.00000000  0.06550740  0.00000000       0.016
   0.02836553 -0.00000000  0.00000000       0.031
   0.01418277  0.02456527  0.00000000       0.031
  -0.01418277  0.02456528  0.00000000       0.031
   0.04254830 -0.00818843  0.00000000       0.031
   0.02836553  0.03275370  0.00000000       0.031
  -0.01418277  0.04094212  0.00000000       0.031
   0.02836553 -0.03275370  0.00000000       0.031
  -0.01418277 -0.04094212  0.00000000       0.031
  -0.04254830 -0.00818842  0.00000000       0.031
   0.05673107 -0.01637685  0.00000000       0.031
   0.04254830  0.04094212  0.00000000       0.031
  -0.01418277  0.05731897  0.00000000       0.031
   0.04254830 -0.04094213  0.00000000       0.031
  -0.01418277  0.07369582  0.00000000       0.031
   0.05673107 -0.08188425  0.00000000       0.031
   0.05673107 -0.00000000  0.00000000       0.031
   0.02836553  0.04913055  0.00000000       0.031
  -0.02836553  0.04913055  0.00000000       0.031
  -0.04254830  0.05731898  0.00000000       0.031
   0.04254830 -0.07369583  0.00000000       0.031
  -0.02836553  0.06550740  0.00000000       0.031
 
 k-points in reciprocal lattice and weights: Automatic mesh                          
   0.00000000  0.00000000  0.00000000       0.016
   0.12500000  0.00000000  0.00000000       0.031
   0.12500000  0.12500000  0.00000000       0.031
   0.00000000  0.12500000  0.00000000       0.031
   0.25000000  0.00000000  0.00000000       0.031
   0.25000000  0.25000000  0.00000000       0.031
   0.00000000  0.25000000  0.00000000       0.031
   0.37500000 -0.00000000  0.00000000       0.031
   0.37500000  0.37500000  0.00000000       0.031
   0.00000000  0.37500000  0.00000000       0.031
   0.50000000  0.00000000  0.00000000       0.016
   0.50000000  0.50000000  0.00000000       0.016
   0.00000000  0.50000000  0.00000000       0.016
   0.25000000  0.12500000  0.00000000       0.031
   0.12500000  0.25000000  0.00000000       0.031
  -0.12500000  0.12500000  0.00000000       0.031
   0.37500000  0.12500000  0.00000000       0.031
   0.25000000  0.37500000  0.00000000       0.031
  -0.12500000  0.25000000  0.00000000       0.031
   0.25000000 -0.12500000  0.00000000       0.031
  -0.12500000 -0.37500000  0.00000000       0.031
  -0.37500000 -0.25000000  0.00000000       0.031
   0.50000000  0.12500000  0.00000000       0.031
   0.37500000  0.50000000  0.00000000       0.031
  -0.12500000  0.37500000  0.00000000       0.031
   0.37500000 -0.12500000  0.00000000       0.031
  -0.12500000  0.50000000  0.00000000       0.031
   0.50000000 -0.37500000  0.00000000       0.031
   0.50000000  0.25000000  0.00000000       0.031
   0.25000000  0.50000000  0.00000000       0.031
  -0.25000000  0.25000000  0.00000000       0.031
  -0.37500000  0.25000000  0.00000000       0.031
   0.37500000 -0.37500000  0.00000000       0.031
  -0.25000000  0.37500000  0.00000000       0.031
 
 position of ions in fractional coordinates (direct lattice) 
   0.00000000  0.00000000  0.21668329
   0.33333334  0.00000000  0.21668329
   0.66666669  0.00000000  0.21668329
   0.00000000  0.33333334  0.21668329
   0.33333331  0.33333334  0.21668329
   0.66666669  0.33333334  0.21668329
   0.00000000  0.66666669  0.21668329
   0.33333334  0.66666669  0.21668329
   0.66666663  0.66666669  0.21668329
   0.11111112  0.11111111  0.31511667
   0.44444442  0.11111111  0.31511667
   0.77777779  0.11111111  0.31511667
   0.11111113  0.44444445  0.31511667
   0.44444448  0.44444445  0.31511667
   0.77777773  0.44444445  0.31511667
   0.11111109  0.77777779  0.31511667
   0.44444445  0.77777779  0.31511667
   0.77777785  0.77777779  0.31511667
   0.88877996  0.22244009  0.41345176
   0.22298302  0.22298301  0.41288767
   0.55403401  0.22298301  0.41288767
   0.88674228  0.55662889  0.41302419
   0.22298298  0.55403401  0.41288767
   0.55662889  0.55662889  0.41302419
   0.88877996  0.88877996  0.41345176
   0.22244012  0.88877996  0.41345176
   0.55662883  0.88674228  0.41302419
   0.00000000  0.00000000  0.51182871
   0.33399461  0.01063907  0.51382183
   0.65536635  0.01063907  0.51382183
   0.01063907  0.33399461  0.51382183
   0.65536635  0.33399461  0.51382183
   0.01063907  0.65536635  0.51382183
   0.33399461  0.65536635  0.51382183
   0.66666663  0.66666669  0.51295749
   0.33333331  0.33333334  0.50068707
   0.33827360  0.33334350  0.67156023
   0.20497806  0.33329716  0.67413785
   0.47157856  0.33330926  0.66857554
 
 position of ions in cartesian coordinates  (Angst):
   0.00000000  0.00000000  5.28037993
   2.93783769  0.00000000  5.28037993
   5.87567538  0.00000000  5.28037993
   1.46891901  2.54424197  5.28037993
   4.40675643  2.54424197  5.28037993
   7.34459439  2.54424197  5.28037993
   2.93783803  5.08848395  5.28037993
   5.87567571  5.08848395  5.28037993
   8.81351288  5.08848395  5.28037993
   1.46891893  0.84808064  7.67911405
   4.40675623  0.84808064  7.67911405
   7.34459418  0.84808064  7.67911405
   2.93783798  3.39232256  7.67911405
   5.87567574  3.39232256  7.67911405
   8.81351263  3.39232256  7.67911405
   4.40675667  5.93656453  7.67911405
   7.34459449  5.93656453  7.67911405
  10.28243270  5.93656453  7.67911405
   8.81351299  1.69782418 10.07545314
   2.94789566  1.70196815 10.06170683
   5.86561776  1.70196815 10.06170683
  10.26824266  4.24859562 10.06503371
   4.40675655  4.22878963 10.06170683
   7.35878404  4.24859562 10.06503371
  11.74991083  6.78381366 10.07545314
   5.87711608  6.78381366 10.07545314
   8.81351299  6.76826059 10.06503371
   0.00000000  0.00000000 12.47281226
   2.99054955  0.08120511 12.52138294
   5.82296353  0.08120511 12.52138294
   1.56560063  2.54928922 12.52138294
   7.24791277  2.54928922 12.52138294
   2.98180778  5.00223159 12.52138294
   5.83170595  5.00223159 12.52138294
   8.81351288  5.08848395 12.50031969
   4.40675643  2.54424197 12.20130049
   4.45034246  2.54431946 16.36532800
   3.27533633  2.54396579 16.42814219
   5.62507655  2.54405812 16.29259366
 


--------------------------------------------------------------------------------------------------------


 k-point   1 :   0.0000 0.0000 0.0000  plane waves:   41519
 k-point   2 :   0.1250 0.0000 0.0000  plane waves:   41578
 k-point   3 :   0.1250 0.1250 0.0000  plane waves:   41578
 k-point   4 :   0.0000 0.1250 0.0000  plane waves:   41578
 k-point   5 :   0.2500 0.0000 0.0000  plane waves:   41600
 k-point   6 :   0.2500 0.2500 0.0000  plane waves:   41600
 k-point   7 :   0.0000 0.2500 0.0000  plane waves:   41600
 k-point   8 :   0.3750-0.0000 0.0000  plane waves:   41638
 k-point   9 :   0.3750 0.3750 0.0000  plane waves:   41638
 k-point  10 :   0.0000 0.3750 0.0000  plane waves:   41638
 k-point  11 :   0.5000 0.0000 0.0000  plane waves:   41584
 k-point  12 :   0.5000 0.5000 0.0000  plane waves:   41584
 k-point  13 :   0.0000 0.5000 0.0000  plane waves:   41584
 k-point  14 :   0.2500 0.1250 0.0000  plane waves:   41548
 k-point  15 :   0.1250 0.2500 0.0000  plane waves:   41548
 k-point  16 :  -0.1250 0.1250 0.0000  plane waves:   41548
 k-point  17 :   0.3750 0.1250 0.0000  plane waves:   41640
 k-point  18 :   0.2500 0.3750 0.0000  plane waves:   41640
 k-point  19 :  -0.1250 0.2500 0.0000  plane waves:   41640
 k-point  20 :   0.2500-0.1250 0.0000  plane waves:   41640
 k-point  21 :  -0.1250-0.3750 0.0000  plane waves:   41640
 k-point  22 :  -0.3750-0.2500 0.0000  plane waves:   41640
 k-point  23 :   0.5000 0.1250 0.0000  plane waves:   41652
 k-point  24 :   0.3750 0.5000 0.0000  plane waves:   41652
 k-point  25 :  -0.1250 0.3750 0.0000  plane waves:   41652
 k-point  26 :   0.3750-0.1250 0.0000  plane waves:   41652
 k-point  27 :  -0.1250 0.5000 0.0000  plane waves:   41652
 k-point  28 :   0.5000-0.3750 0.0000  plane waves:   41652
 k-point  29 :   0.5000 0.2500 0.0000  plane waves:   41658
 k-point  30 :   0.2500 0.5000 0.0000  plane waves:   41658
 k-point  31 :  -0.2500 0.2500 0.0000  plane waves:   41658
 k-point  32 :  -0.3750 0.2500 0.0000  plane waves:   41624
 k-point  33 :   0.3750-0.3750 0.0000  plane waves:   41624
 k-point  34 :  -0.2500 0.3750 0.0000  plane waves:   41624

 maximum and minimum number of plane-waves per node :     41658    41519

 maximum number of plane-waves:     41658
 maximum index in each direction: 
   IXMAX=   16   IYMAX=   16   IZMAX=   44
   IXMIN=  -16   IYMIN=  -16   IZMIN=  -44


 serial   3D FFT for wavefunctions
 parallel 3D FFT for charge:
    minimum data exchange during FFTs selected (reduces bandwidth)


 total amount of memory used by VASP MPI-rank0   278059. kBytes
=======================================================================

   base      :      30000. kBytes
   nonlr-proj:      14645. kBytes
   fftplans  :       4808. kBytes
   grid      :      20723. kBytes
   one-center:        606. kBytes
   wavefun   :     207277. kBytes
 
     INWAV:  cpu time    0.0000: real time    0.0001
 initial charge density was supplied:
 number of electron     406.0000155 magnetization 
 keeping initial charge density in first step


--------------------------------------------------------------------------------------------------------


 Maximum index for non-local projection operator         3071
 Maximum index for augmentation-charges          865 (set IRDMAX)


--------------------------------------------------------------------------------------------------------


 First call to EWALD:  gamma=   0.150
 Maximum number of real-space cells 4x 4x 2
 Maximum number of reciprocal cells 2x 2x 5

    FEWALD:  cpu time    0.0013: real time    0.0013


--------------------------------------- Iteration      1(   1)  ---------------------------------------


    POTLOK:  cpu time    0.0480: real time    0.0486
    SETDIJ:  cpu time    0.0049: real time    0.0051
     EDDAV:  cpu time   26.4992: real time   26.5227
 BZINTS: Fermi energy:   11.466722;  406.000000 electrons
         Band energy: 0.146035E+04;  BLOECHL correction:   -0.018429
       DOS:  cpu time    0.0623: real time    0.0624
    --------------------------------------------
      LOOP:  cpu time   26.6144: real time   26.6388

 eigenvalue-minimisations  : 17136
 total energy-change (2. order) : 0.2819779E+04  (-0.1802598E+05)
 number of electron     406.0000155 magnetization 
 augmentation part      406.0000155 magnetization 

 Free energy of the ion-electron system (eV)
  ---------------------------------------------------
  alpha Z        PSCENC =       949.78434226
  Ewald energy   TEWEN  =    119555.89343896
  -Hartree energ DENC   =   -154054.90027525
  -exchange      EXHF   =         0.00000000
  -V(xc)+E(xc)   XCENC  =       540.48873461
  PAW double counting   =     36899.83222501   -36127.28305896
  entropy T*S    EENTRO =         0.00000000
  eigenvalues    EBANDS =      1460.34806493
  atomic energy  EATOM  =     33595.61512815
  Solvation  Ediel_sol  =         0.00000000
  ---------------------------------------------------
  free energy    TOTEN  =      2819.77859970 eV

  energy without entropy =     2819.77859970  energy(sigma->0) =     2819.77859970


--------------------------------------------------------------------------------------------------------




--------------------------------------- Iteration      1(   2)  ---------------------------------------


     EDDAV:  cpu time   28.5290: real time   28.5293
 BZINTS: Fermi energy:    1.365797;  406.000000 electrons
         Band energy:-0.131007E+04;  BLOECHL correction:   -0.064000
       DOS:  cpu time    0.0570: real time    0.0570
    --------------------------------------------
      LOOP:  cpu time   28.5860: real time   28.5863

 eigenvalue-minimisations  : 18900
 total energy-change (2. order) :-0.2770418E+04  (-0.2568290E+04)
 number of electron     406.0000155 magnetization 
 augmentation part      406.0000155 magnetization 

 Free energy of the ion-electron system (eV)
  ---------------------------------------------------
  alpha Z        PSCENC =       949.78434226
  Ewald energy   TEWEN  =    119555.89343896
  -Hartree energ DENC   =   -154054.90027525
  -exchange      EXHF   =         0.00000000
  -V(xc)+E(xc)   XCENC  =       540.48873461
  PAW double counting   =     36899.83222501   -36127.28305896
  entropy T*S    EENTRO =         0.00000000
  eigenvalues    EBANDS =     -1310.07034651
  atomic energy  EATOM  =     33595.61512815
  Solvation  Ediel_sol  =         0.00000000
  ---------------------------------------------------
  free energy    TOTEN  =        49.36018826 eV

  energy without entropy =       49.36018826  energy(sigma->0) =       49.36018826


--------------------------------------------------------------------------------------------------------




--------------------------------------- Iteration      1(   3)  ---------------------------------------


     EDDAV:  cpu time   31.1853: real time   31.1857
 BZINTS: Fermi energy:    0.333546;  406.000000 electrons
         Band energy:-0.149237E+04;  BLOECHL correction:   -0.026690
       DOS:  cpu time    0.0574: real time    0.0574
    --------------------------------------------
      LOOP:  cpu time   31.2427: real time   31.2431

 eigenvalue-minimisations  : 21028
 total energy-change (2. order) :-0.1823012E+03  (-0.1767237E+03)
 number of electron     406.0000155 magnetization 
 augmentation part      406.0000155 magnetization 

 Free energy of the ion-electron system (eV)
  ---------------------------------------------------
  alpha Z        PSCENC =       949.78434226
  Ewald energy   TEWEN  =    119555.89343896
  -Hartree energ DENC   =   -154054.90027525
  -exchange      EXHF   =         0.00000000
  -V(xc)+E(xc)   XCENC  =       540.48873461
  PAW double counting   =     36899.83222501   -36127.28305896
  entropy T*S    EENTRO =         0.00000000
  eigenvalues    EBANDS =     -1492.37151774
  atomic energy  EATOM  =     33595.61512815
  Solvation  Ediel_sol  =         0.00000000
  ---------------------------------------------------
  free energy    TOTEN  =      -132.94098297 eV

  energy without entropy =     -132.94098297  energy(sigma->0) =     -132.94098297


--------------------------------------------------------------------------------------------------------




--------------------------------------- Iteration      1(   4)  ---------------------------------------


     EDDAV:  cpu time   29.0216: real time   29.0218
 BZINTS: Fermi energy:    0.310470;  406.000000 electrons
         Band energy:-0.149657E+04;  BLOECHL correction:   -0.025173
       DOS:  cpu time    0.0581: real time    0.0581
    --------------------------------------------
      LOOP:  cpu time   29.0796: real time   29.0798

 eigenvalue-minimisations  : 19236
 total energy-change (2. order) :-0.4198848E+01  (-0.4168673E+01)
 number of electron     406.0000155 magnetization 
 augmentation part      406.0000155 magnetization 

 Free energy of the ion-electron system (eV)
  ---------------------------------------------------
  alpha Z        PSCENC =       949.78434226
  Ewald energy   TEWEN  =    119555.89343896
  -Hartree energ DENC   =   -154054.90027525
  -exchange      EXHF   =         0.00000000
  -V(xc)+E(xc)   XCENC  =       540.48873461
  PAW double counting   =     36899.83222501   -36127.28305896
  entropy T*S    EENTRO =         0.00000000
  eigenvalues    EBANDS =     -1496.57036612
  atomic energy  EATOM  =     33595.61512815
  Solvation  Ediel_sol  =         0.00000000
  ---------------------------------------------------
  free energy    TOTEN  =      -137.13983135 eV

  energy without entropy =     -137.13983135  energy(sigma->0) =     -137.13983135


--------------------------------------------------------------------------------------------------------




--------------------------------------- Iteration      1(   5)  ---------------------------------------


     EDDAV:  cpu time   31.5656: real time   31.5686
 BZINTS: Fermi energy:    0.309805;  406.000000 electrons
         Band energy:-0.149673E+04;  BLOECHL correction:   -0.025141
       DOS:  cpu time    0.0569: real time    0.0569
    --------------------------------------------
      LOOP:  cpu time   31.6226: real time   31.6255

 eigenvalue-minimisations  : 21336
 total energy-change (2. order) :-0.1599986E+00  (-0.1596661E+00)
 number of electron     406.0000155 magnetization 
 augmentation part      406.0000155 magnetization 

 Free energy of the ion-electron system (eV)
  ---------------------------------------------------
  alpha Z        PSCENC =       949.78434226
  Ewald energy   TEWEN  =    119555.89343896
  -Hartree energ DENC   =   -154054.90027525
  -exchange      EXHF   =         0.00000000
  -V(xc)+E(xc)   XCENC  =       540.48873461
  PAW double counting   =     36899.83222501   -36127.28305896
  entropy T*S    EENTRO =         0.00000000
  eigenvalues    EBANDS =     -1496.73036470
  atomic energy  EATOM  =     33595.61512815
  Solvation  Ediel_sol  =         0.00000000
  ---------------------------------------------------
  free energy    TOTEN  =      -137.29982993 eV

  energy without entropy =     -137.29982993  energy(sigma->0) =     -137.29982993


--------------------------------------------------------------------------------------------------------




--------------------------------------- Iteration      1(   6)  ---------------------------------------


    EDDIAG:  cpu time    5.1805: real time    5.1809
  RMM-DIIS:  cpu time   15.6913: real time   15.6914
    ORTHCH:  cpu time    0.9602: real time    0.9602
 BZINTS: Fermi energy:    0.309802;  406.000000 electrons
         Band energy:-0.149673E+04;  BLOECHL correction:   -0.025140
       DOS:  cpu time    0.0569: real time    0.0569
    --------------------------------------------
      LOOP:  cpu time   21.8888: real time   21.8894

 eigenvalue-minimisations  : 17957
 total energy-change (2. order) :-0.4160818E-02  (-0.4161326E-02)
 number of electron     406.0000155 magnetization 
 augmentation part      406.0000155 magnetization 

 Free energy of the ion-electron system (eV)
  ---------------------------------------------------
  alpha Z        PSCENC =       949.78434226
  Ewald energy   TEWEN  =    119555.89343896
  -Hartree energ DENC   =   -154054.90027525
  -exchange      EXHF   =         0.00000000
  -V(xc)+E(xc)   XCENC  =       540.48873461
  PAW double counting   =     36899.83222501   -36127.28305896
  entropy T*S    EENTRO =         0.00000000
  eigenvalues    EBANDS =     -1496.73452552
  atomic energy  EATOM  =     33595.61512815
  Solvation  Ediel_sol  =         0.00000000
  ---------------------------------------------------
  free energy    TOTEN  =      -137.30399075 eV

  energy without entropy =     -137.30399075  energy(sigma->0) =     -137.30399075


--------------------------------------------------------------------------------------------------------




--------------------------------------- Iteration      1(   7)  ---------------------------------------


    EDDIAG:  cpu time    5.1784: real time    5.1787
  RMM-DIIS:  cpu time   21.8317: real time   21.8317
    ORTHCH:  cpu time    0.9604: real time    0.9604
 BZINTS: Fermi energy:    0.309801;  406.000000 electrons
         Band energy:-0.149674E+04;  BLOECHL correction:   -0.025140
       DOS:  cpu time    0.0555: real time    0.0555
    --------------------------------------------
      LOOP:  cpu time   28.0260: real time   28.0263

 eigenvalue-minimisations  : 25504
 total energy-change (2. order) :-0.2388101E-02  (-0.2307613E-02)
 number of electron     406.0000155 magnetization 
 augmentation part      406.0000155 magnetization 

 Free energy of the ion-electron system (eV)
  ---------------------------------------------------
  alpha Z        PSCENC =       949.78434226
  Ewald energy   TEWEN  =    119555.89343896
  -Hartree energ DENC   =   -154054.90027525
  -exchange      EXHF   =         0.00000000
  -V(xc)+E(xc)   XCENC  =       540.48873461
  PAW double counting   =     36899.83222501   -36127.28305896
  entropy T*S    EENTRO =         0.00000000
  eigenvalues    EBANDS =     -1496.73691362
  atomic energy  EATOM  =     33595.61512815
  Solvation  Ediel_sol  =         0.00000000
  ---------------------------------------------------
  free energy    TOTEN  =      -137.30637885 eV

  energy without entropy =     -137.30637885  energy(sigma->0) =     -137.30637885


--------------------------------------------------------------------------------------------------------




--------------------------------------- Iteration      1(   8)  ---------------------------------------


    EDDIAG:  cpu time    5.1804: real time    5.1806
  RMM-DIIS:  cpu time   20.7268: real time   20.7269
    ORTHCH:  cpu time    0.9610: real time    0.9610
 BZINTS: Fermi energy:    0.309801;  406.000000 electrons
         Band energy:-0.149674E+04;  BLOECHL correction:   -0.025140
       DOS:  cpu time    0.0580: real time    0.0580
    --------------------------------------------
      LOOP:  cpu time   26.9262: real time   26.9266

 eigenvalue-minimisations  : 23652
 total energy-change (2. order) :-0.2686000E-03  (-0.2659993E-03)
 number of electron     406.0000155 magnetization 
 augmentation part      406.0000155 magnetization 

 Free energy of the ion-electron system (eV)
  ---------------------------------------------------
  alpha Z        PSCENC =       949.78434226
  Ewald energy   TEWEN  =    119555.89343896
  -Hartree energ DENC   =   -154054.90027525
  -exchange      EXHF   =         0.00000000
  -V(xc)+E(xc)   XCENC  =       540.48873461
  PAW double counting   =     36899.83222501   -36127.28305896
  entropy T*S    EENTRO =         0.00000000
  eigenvalues    EBANDS =     -1496.73718222
  atomic energy  EATOM  =     33595.61512815
  Solvation  Ediel_sol  =         0.00000000
  ---------------------------------------------------
  free energy    TOTEN  =      -137.30664745 eV

  energy without entropy =     -137.30664745  energy(sigma->0) =     -137.30664745


--------------------------------------------------------------------------------------------------------




--------------------------------------- Iteration      1(   9)  ---------------------------------------


    EDDIAG:  cpu time    5.1806: real time    5.1807
  RMM-DIIS:  cpu time   19.4447: real time   19.4448
    ORTHCH:  cpu time    0.9598: real time    0.9598
 BZINTS: Fermi energy:    0.309801;  406.000000 electrons
         Band energy:-0.149674E+04;  BLOECHL correction:   -0.025140
       DOS:  cpu time    0.0568: real time    0.0568
    --------------------------------------------
      LOOP:  cpu time   25.6419: real time   25.6421

 eigenvalue-minimisations  : 21487
 total energy-change (2. order) :-0.4317454E-04  (-0.4320412E-04)
 number of electron     406.0000155 magnetization 
 augmentation part      406.0000155 magnetization 

 Free energy of the ion-electron system (eV)
  ---------------------------------------------------
  alpha Z        PSCENC =       949.78434226
  Ewald energy   TEWEN  =    119555.89343896
  -Hartree energ DENC   =   -154054.90027525
  -exchange      EXHF   =         0.00000000
  -V(xc)+E(xc)   XCENC  =       540.48873461
  PAW double counting   =     36899.83222501   -36127.28305896
  entropy T*S    EENTRO =         0.00000000
  eigenvalues    EBANDS =     -1496.73722540
  atomic energy  EATOM  =     33595.61512815
  Solvation  Ediel_sol  =         0.00000000
  ---------------------------------------------------
  free energy    TOTEN  =      -137.30669063 eV

  energy without entropy =     -137.30669063  energy(sigma->0) =     -137.30669063


--------------------------------------------------------------------------------------------------------




--------------------------------------- Iteration      1(  10)  ---------------------------------------


    EDDIAG:  cpu time    5.1829: real time    5.1832
  RMM-DIIS:  cpu time   13.2409: real time   13.2409
    ORTHCH:  cpu time    0.9609: real time    0.9609
 BZINTS: Fermi energy:    0.309801;  406.000000 electrons
         Band energy:-0.149674E+04;  BLOECHL correction:   -0.025140
       DOS:  cpu time    0.0567: real time    0.0567
    --------------------------------------------
      LOOP:  cpu time   19.4414: real time   19.4418

 eigenvalue-minimisations  : 13926
 total energy-change (2. order) :-0.5400478E-05  (-0.5420051E-05)
 number of electron     406.0000155 magnetization 
 augmentation part      406.0000155 magnetization 

 Free energy of the ion-electron system (eV)
  ---------------------------------------------------
  alpha Z        PSCENC =       949.78434226
  Ewald energy   TEWEN  =    119555.89343896
  -Hartree energ DENC   =   -154054.90027525
  -exchange      EXHF   =         0.00000000
  -V(xc)+E(xc)   XCENC  =       540.48873461
  PAW double counting   =     36899.83222501   -36127.28305896
  entropy T*S    EENTRO =         0.00000000
  eigenvalues    EBANDS =     -1496.73723080
  atomic energy  EATOM  =     33595.61512815
  Solvation  Ediel_sol  =         0.00000000
  ---------------------------------------------------
  free energy    TOTEN  =      -137.30669603 eV

  energy without entropy =     -137.30669603  energy(sigma->0) =     -137.30669603


--------------------------------------------------------------------------------------------------------




 average (electrostatic) potential at core
  the test charge radii are     1.2098  1.2064  0.6991  0.7215
  (the norm of the test charge is              1.0000)
       1 -72.7288       2 -72.7145       3 -72.7146       4 -72.7149       5 -72.7165
       6 -72.7148       7 -72.7145       8 -72.7143       9 -72.7103      10 -73.0668
      11 -73.0227      12 -73.0669      13 -73.0228      14 -73.0227      15 -73.0477
      16 -73.0664      17 -73.0465      18 -73.0466      19 -73.0098      20 -73.2579
      21 -73.2578      22 -73.0073      23 -73.2574      24 -73.0072      25 -73.0097
      26 -73.0096      27 -73.0065      28 -72.7125      29 -72.8179      30 -72.8176
      31 -72.8111      32 -72.8097      33 -72.8177      34 -72.8170      35 -72.6937
      36 -46.3980      37 -58.2414      38 -77.2508      39 -77.2525
 
 
 
 E-fermi :   0.3098     XC(G=0):  -5.8303     alpha+bet : -5.3472

 Fermi energy:         0.3098007044

 k-point     1 :       0.0000    0.0000    0.0000
  band No.  band energies     occupation 
      1     -23.7172      2.00000
      2     -22.6999      2.00000
      3      -8.4989      2.00000
      4      -8.3334      2.00000
      5      -7.3273      2.00000
      6      -7.2132      2.00000
      7      -7.1881      2.00000
      8      -7.1400      2.00000
      9      -6.3782      2.00000
     10      -6.3601      2.00000
     11      -6.3545      2.00000
     12      -6.3545      2.00000
     13      -6.3312      2.00000
     14      -6.3073      2.00000
     15      -6.3072      2.00000
     16      -6.2666      2.00000
     17      -5.8800      2.00000
     18      -5.8777      2.00000
     19      -5.8774      2.00000
     20      -5.8369      2.00000
     21      -5.8166      2.00000
     22      -5.8164      2.00000
     23      -5.4961      2.00000
     24      -5.4958      2.00000
     25      -5.4836      2.00000
     26      -5.4734      2.00000
     27      -5.4392      2.00000
     28      -5.4392      2.00000
     29      -5.3148      2.00000
     30      -5.3074      2.00000
     31      -5.3069      2.00000
     32      -5.2976      2.00000
     33      -5.2808      2.00000
     34      -5.2805      2.00000
     35      -5.1583      2.00000
     36      -5.1386      2.00000
     37      -5.1385      2.00000
     38      -5.1302      2.00000
     39      -5.1299      2.00000
     40      -5.1201      2.00000
     41      -5.1199      2.00000
     42      -5.1093      2.00000
     43      -5.0850      2.00000
     44      -5.0406      2.00000
[...]
  0.000   0.000   0.000   0.000   0.000   0.000   0.000   0.000   0.000   0.000   1.000   0.000   0.000   0.000   0.000   0.000
  0.000   0.000   0.000   0.000   0.000   0.000   0.000   0.000   0.000   0.000   0.000   0.000   0.000   0.000   0.000   0.000
  0.000   0.000   0.000   0.000   0.000   0.000   0.000   0.000   0.000   0.000   0.000   0.000   0.000   0.000   0.000   0.000
  0.000   0.000   0.000   0.000   0.000   0.000   0.000   0.000   0.000   0.000   0.000   0.000   0.000   0.000   0.000   0.000
  0.000   0.000   0.000   0.000   0.000   0.000   0.000   0.000   0.000   0.000   0.000   0.000   0.000   0.000   0.000   0.000
  0.000   0.000   0.000   0.000   0.000   0.000   0.000   0.000   0.000   0.000   0.000   0.000   0.000   0.000   0.000   0.000
  0.000   0.000   0.000   0.000   0.000   0.000   0.000   0.000   0.000   0.000   0.000   0.000   0.000   0.000   0.000   0.000
  0.000   0.000   0.000   0.000   0.000   0.000   0.000   0.000   0.000   0.000   0.000   0.000   0.000   0.000   0.000   0.000


------------------------ aborting loop because EDIFF is reached ----------------------------------------





 total charge

# of ion       s       p       d       tot
------------------------------------------
    1        0.548   0.238   8.766   9.551
    2        0.542   0.241   8.765   9.548
    3        0.542   0.241   8.765   9.548
    4        0.542   0.241   8.765   9.548
    5        0.545   0.241   8.762   9.548
    6        0.542   0.241   8.765   9.548
    7        0.542   0.241   8.765   9.548
    8        0.542   0.241   8.765   9.548
    9        0.544   0.239   8.767   9.550
   10        0.526   0.307   8.767   9.600
   11        0.519   0.306   8.780   9.606
   12        0.526   0.307   8.767   9.600
   13        0.520   0.306   8.780   9.606
   14        0.520   0.306   8.780   9.606
   15        0.517   0.308   8.775   9.599
   16        0.526   0.307   8.767   9.600
   17        0.517   0.308   8.775   9.600
   18        0.517   0.308   8.775   9.600
   19        0.517   0.298   8.772   9.587
   20        0.562   0.335   8.733   9.630
   21        0.562   0.335   8.733   9.630
   22        0.509   0.306   8.777   9.593
   23        0.562   0.335   8.733   9.630
   24        0.509   0.306   8.777   9.593
   25        0.518   0.298   8.771   9.587
   26        0.518   0.298   8.771   9.587
   27        0.509   0.306   8.778   9.593
   28        0.539   0.227   8.755   9.521
   29        0.578   0.242   8.736   9.557
   30        0.578   0.242   8.736   9.557
   31        0.577   0.241   8.737   9.555
   32        0.577   0.241   8.737   9.555
   33        0.578   0.242   8.736   9.557
   34        0.578   0.242   8.736   9.557
   35        0.538   0.225   8.758   9.522
   36        0.391   0.391   3.191   3.973
   37        0.933   1.801   0.000   2.734
   38        1.607   3.528   0.000   5.136
   39        1.607   3.528   0.000   5.135
--------------------------------------------------
tot         23.426  18.899 309.816 352.141
 
    CHARGE:  cpu time    1.2211: real time    1.2213
    FORLOC:  cpu time    0.0124: real time    0.0124
    FORNL :  cpu time    5.3407: real time    5.3410
    STRESS:  cpu time   16.0578: real time   16.0581
    FORCOR:  cpu time    0.0506: real time    0.0507
    FORHAR:  cpu time    0.0197: real time    0.0198
    OFIELD:  cpu time    0.0002: real time    0.0002

  FORCE on cell =-STRESS in cart. coord.  units (eV):
  Direction    XX          YY          ZZ          XY          YZ          ZX
  --------------------------------------------------------------------------------------
  Alpha Z   949.78434   949.78434   949.78434
  Ewald  142332.72127141547.25339************     0.14875    -0.53792   -47.99905
  Hartree150724.12371150356.70335************     0.11959    -0.50122   -23.45765
  E(xc)   -1821.17709 -1823.28457 -1830.94724    -0.00046    -0.00219    -0.12068
  Local  ************************304098.54773    -0.26430     1.02340    67.34863
  n-local  -104.19573   -98.24078   -71.66782     0.00103     0.01619     0.34203
  augment  2393.63786  2396.35865  2416.71887     0.00003     0.00505     0.15051
  Kinetic  5650.45660  5715.66021  5778.13189     0.00009     0.00840     3.72779
  Fock        0.00000     0.00000     0.00000     0.00000     0.00000     0.00000
  -------------------------------------------------------------------------------------
  Total     -24.05323   -24.05600     1.17579     0.00473     0.01171    -0.00844
  in kB     -23.50799   -23.51070     1.14914     0.00462     0.01144    -0.00824
  external pressure =      -15.29 kB  Pullay stress =        0.00 kB


 VOLUME and BASIS-vectors are now :
 -----------------------------------------------------------------------------
  energy-cutoff  :      500.00
  volume of cell :     1639.34
      direct lattice vectors                 reciprocal lattice vectors
     8.813512802  0.000000000  0.000000000     0.113462137 -0.065507406  0.000000000
     4.406756909  7.632725690  0.000000000     0.000000000  0.131014796  0.000000000
     0.000000000  0.000000000 24.369114204     0.000000000  0.000000000  0.041035550

  length of vectors
     8.813512802  8.813512802 24.369114204     0.131014796  0.131014796  0.041035550


 FORCES acting on ions
    electron-ion (+dipol)            ewald-force                    non-local-force                 convergence-correction
 -----------------------------------------------------------------------------------------------
   -.679E-03 0.171E-01 0.264E+04   0.242E-02 -.130E-01 -.264E+04   0.115E-03 -.122E-02 -.698E+00   -.183E-02 -.313E-02 -.772E-01
   0.199E+00 -.320E+00 0.264E+04   -.233E+00 0.190E+00 -.264E+04   0.430E-01 0.111E+00 -.326E+00   -.165E-01 0.105E-01 -.957E-01
   -.198E+00 -.327E+00 0.264E+04   0.230E+00 0.186E+00 -.264E+04   -.434E-01 0.111E+00 -.328E+00   0.183E-01 0.214E-01 -.924E-01
   -.191E+00 0.339E+00 0.264E+04   0.604E-01 -.301E+00 -.264E+04   0.119E+00 -.184E-01 -.331E+00   0.148E-02 -.216E-01 -.942E-01
   -.104E-01 -.514E-02 0.264E+04   -.468E-02 0.117E-04 -.264E+04   0.199E-03 -.511E-03 0.113E-01   0.149E-01 0.618E-02 0.634E-02
   0.197E+00 0.334E+00 0.264E+04   -.557E-01 -.301E+00 -.264E+04   -.119E+00 -.181E-01 -.333E+00   -.115E-01 -.169E-01 -.895E-01
   -.397E+00 -.170E-01 0.264E+04   0.288E+00 0.111E+00 -.264E+04   0.755E-01 -.920E-01 -.325E+00   0.289E-01 0.824E-02 -.895E-01
   0.390E+00 -.141E-01 0.264E+04   -.291E+00 0.115E+00 -.264E+04   -.755E-01 -.918E-01 -.327E+00   -.196E-01 0.118E-02 -.886E-01
   0.120E-01 -.853E-02 0.264E+04   0.254E-02 0.130E-01 -.264E+04   -.357E-03 0.117E-02 -.405E+00   -.142E-01 -.545E-02 -.466E-01
   0.106E+01 0.698E+00 0.900E+03   -.623E+00 -.447E+00 -.899E+03   -.308E+00 -.176E+00 -.693E+00   -.101E+00 -.603E-01 0.260E-01
   0.137E-01 -.108E+00 0.900E+03   -.269E-01 0.151E+00 -.900E+03   0.527E-03 -.156E-02 -.170E+00   0.128E-01 -.795E-01 0.737E-01
   -.108E+01 0.714E+00 0.900E+03   0.650E+00 -.470E+00 -.899E+03   0.308E+00 -.176E+00 -.695E+00   0.930E-01 -.531E-01 0.249E-01
   -.165E+00 0.335E-01 0.900E+03   0.195E+00 -.674E-01 -.900E+03   -.362E-02 0.200E-02 -.174E+00   -.605E-01 0.512E-01 0.742E-01
   0.178E+00 0.257E-01 0.900E+03   -.228E+00 -.550E-01 -.900E+03   0.331E-02 0.160E-02 -.175E+00   0.813E-01 0.470E-01 0.702E-01
   -.207E-01 0.346E+01 0.904E+03   0.331E-01 -.358E+01 -.903E+03   -.483E-03 0.137E-01 -.578E+00   -.120E-01 0.548E-01 0.542E-01
   0.467E-02 -.125E+01 0.900E+03   -.598E-02 0.765E+00 -.899E+03   0.173E-03 0.353E+00 -.691E+00   0.115E-02 0.107E+00 0.239E-01
   0.305E+01 -.180E+01 0.904E+03   -.315E+01 0.187E+01 -.903E+03   0.123E-01 -.863E-02 -.571E+00   0.417E-01 -.354E-01 0.532E-01
   -.305E+01 -.178E+01 0.904E+03   0.316E+01 0.184E+01 -.903E+03   -.124E-01 -.801E-02 -.571E+00   -.428E-01 -.240E-01 0.560E-01
   -.227E+00 -.321E+01 -.851E+03   0.233E+00 0.322E+01 0.850E+03   -.169E-02 0.691E-02 0.585E+00   -.405E-02 -.837E-02 0.504E+00
   -.961E+01 -.522E+01 -.855E+03   0.105E+02 0.574E+01 0.855E+03   -.103E+01 -.592E+00 -.102E+01   0.105E+00 0.603E-01 0.765E+00
   0.984E+01 -.512E+01 -.854E+03   -.108E+02 0.564E+01 0.854E+03   0.103E+01 -.592E+00 -.101E+01   -.100E+00 0.624E-01 0.761E+00
   -.125E+02 0.661E+01 -.843E+03   0.122E+02 -.643E+01 0.842E+03   0.322E+00 -.190E+00 0.567E+00   -.493E-03 0.599E-03 0.494E+00
   0.192E+00 0.105E+02 -.855E+03   -.195E+00 -.116E+02 0.855E+03   0.203E-03 0.118E+01 -.102E+01   0.323E-02 -.118E+00 0.761E+00
   0.123E+02 0.644E+01 -.842E+03   -.120E+02 -.626E+01 0.841E+03   -.322E+00 -.191E+00 0.570E+00   -.284E-02 -.115E-02 0.493E+00
   0.310E+01 0.216E+01 -.852E+03   -.312E+01 -.217E+01 0.851E+03   -.130E-02 0.141E-02 0.568E+00   0.106E-01 0.522E-02 0.502E+00
   -.314E+01 0.193E+01 -.852E+03   0.316E+01 -.193E+01 0.851E+03   0.117E-02 0.290E-03 0.567E+00   -.914E-02 0.534E-03 0.504E+00
   0.431E-01 -.141E+02 -.843E+03   -.421E-01 0.138E+02 0.842E+03   0.339E-03 0.370E+00 0.562E+00   -.134E-02 -.715E-03 0.493E+00
   -.689E+00 0.371E+01 -.249E+04   0.688E+00 -.371E+01 0.249E+04   0.454E-03 -.231E-02 0.545E+00   0.165E-03 -.398E-03 0.303E+00
   0.278E+01 -.117E-01 -.250E+04   -.181E+01 0.147E+01 0.250E+04   -.111E+01 -.172E+01 -.262E+00   0.164E+00 0.277E+00 0.236E+00
   -.196E+01 0.166E+01 -.249E+04   0.993E+00 -.214E+00 0.249E+04   0.111E+01 -.172E+01 -.255E+00   -.163E+00 0.283E+00 0.235E+00
   -.107E+01 0.445E+01 -.249E+04   0.281E+01 -.435E+01 0.249E+04   -.204E+01 -.102E+00 -.175E+00   0.320E+00 0.211E-02 0.234E+00
   -.110E+01 0.444E+01 -.249E+04   -.628E+00 -.434E+01 0.249E+04   0.203E+01 -.102E+00 -.150E+00   -.322E+00 0.549E-02 0.233E+00
   -.497E+01 -.447E+01 -.250E+04   0.576E+01 0.291E+01 0.250E+04   -.936E+00 0.182E+01 -.264E+00   0.162E+00 -.280E+00 0.234E+00
   0.578E+01 -.616E+01 -.249E+04   -.657E+01 0.460E+01 0.249E+04   0.936E+00 0.182E+01 -.257E+00   -.155E+00 -.281E+00 0.233E+00
   -.690E+00 -.378E+01 -.251E+04   0.701E+00 0.378E+01 0.250E+04   0.388E-03 0.229E-02 0.643E+00   -.118E-01 -.593E-02 0.319E+00
   0.792E+00 0.140E-02 -.107E+04   -.797E+00 0.133E-02 0.106E+04   0.451E-02 0.249E-02 0.229E+01   0.190E-02 0.378E-03 0.207E+00
   -.768E-01 -.130E+00 -.794E+03   0.866E-01 0.128E+00 0.794E+03   -.767E-02 -.385E-02 -.953E-01   -.994E-03 0.129E-02 -.720E-01
   0.260E+03 0.126E+00 -.119E+04   -.324E+03 -.147E+00 0.120E+04   0.638E+02 0.240E-01 -.346E+01   0.142E-01 0.220E-02 -.979E-01
   -.259E+03 0.125E+00 -.119E+04   0.323E+03 -.141E+00 0.119E+04   -.638E+02 0.135E-01 0.386E+01   -.179E-01 0.306E-02 -.107E+00
 -----------------------------------------------------------------------------------------------
   -.600E-01 -.468E-01 -.265E+01   -.568E-13 -.422E-13 0.227E-11   0.507E-01 0.351E-01 -.459E+01   0.435E-02 0.143E-01 0.702E+01
 
 
 POSITION                                       TOTAL-FORCE (eV/Angst)
 -----------------------------------------------------------------------------------
      0.00000      0.00000      5.28038         0.000161     -0.000262     -0.146985
      2.93784      0.00000      5.28038        -0.006907     -0.008901     -0.055127
      5.87568      0.00000      5.28038         0.007079     -0.008999     -0.055050
      1.46892      2.54424      5.28038        -0.010456     -0.001679     -0.056056
      4.40676      2.54424      5.28038         0.000167      0.000477     -0.069615
      7.34459      2.54424      5.28038         0.010883     -0.001732     -0.055653
      2.93784      5.08848      5.28038        -0.003803      0.010110     -0.056149
      5.87568      5.08848      5.28038         0.003948      0.010297     -0.055917
      8.81351      5.08848      5.28038         0.000040      0.000101     -0.077785
      1.46892      0.84808      7.67911         0.024956      0.014194      0.073980
      4.40676      0.84808      7.67911         0.000283     -0.038582     -0.005269
      7.34459      0.84808      7.67911        -0.024494      0.014144      0.073895
      2.93784      3.39232      7.67911        -0.033726      0.019215     -0.005574
      5.87568      3.39232      7.67911         0.034421      0.019233     -0.005529
      8.81351      3.39232      7.67911        -0.000003     -0.056554      0.055527
      4.40676      5.93656      7.67911         0.000144     -0.029004      0.074525
      7.34459      5.93656      7.67911        -0.049120      0.028045      0.055332
     10.28243      5.93656      7.67911         0.049383      0.028145      0.055331
      8.81351      1.69782     10.07545         0.000152      0.010586      0.066052
      2.94790      1.70197     10.06171        -0.015098     -0.009441      0.004221
      5.86562      1.70197     10.06171         0.015801     -0.009654      0.003813
     10.26824      4.24860     10.06503         0.012203     -0.006075      0.035552
      4.40676      4.22879     10.06171         0.000052      0.015496      0.001002
      7.35878      4.24860     10.06503        -0.012119     -0.006179      0.036146
     11.74991      6.78381     10.07545        -0.010292     -0.005800      0.064358
      5.87712      6.78381     10.07545         0.010693     -0.005731      0.064221
      8.81351      6.76826     10.06503         0.000071      0.012105      0.032211
      0.00000      0.00000     12.47281         0.000050     -0.000103     -0.000054
      2.99055      0.08121     12.52138         0.014516      0.013956      0.005686
      5.82296      0.08121     12.52138        -0.014332      0.012684      0.003989
      1.56560      2.54929     12.52138         0.016625      0.004647      0.003023
      7.24791      2.54929     12.52138        -0.014005      0.005113     -0.000409
      2.98181      5.00223     12.52138         0.007601     -0.018723      0.006713
      5.83171      5.00223     12.52138        -0.007131     -0.017865      0.005075
      8.81351      5.08848     12.50032        -0.000205     -0.000260     -0.002041
      4.40676      2.54424     12.20130         0.001552      0.005527     -0.085214
      4.45034      2.54432     16.36533         0.001276     -0.004126      0.007716
      3.27534      2.54397     16.42814        -0.002406      0.005309      0.003175
      5.62508      2.54406     16.29259        -0.007962      0.000285      0.000885
 -----------------------------------------------------------------------------------
    total drift:                               -0.005018      0.002660     -0.221506


--------------------------------------------------------------------------------------------------------



  FREE ENERGIE OF THE ION-ELECTRON SYSTEM (eV)
  ---------------------------------------------------
  free  energy   TOTEN  =      -137.30669603 eV

  energy  without entropy=     -137.30669603  energy(sigma->0) =     -137.30669603
 


--------------------------------------------------------------------------------------------------------


    POTLOK:  cpu time    0.0492: real time    0.0492


--------------------------------------------------------------------------------------------------------


 stress matrix after NEB project (eV)
    -24.05323      0.00473     -0.00844
      0.00473    -24.05600      0.01171
     -0.00844      0.01171      1.17579
  FORCES: max atom, RMS     0.008842    0.002187
  FORCE total and by dimension    0.013657    0.007962
  Stress total and by dimension   34.038683   24.056001
     LOOP+:  cpu time  291.9458: real time  291.9810
 -----------------------------------------------------------------------------
|                                                                             |
|           W    W    AA    RRRRR   N    N  II  N    N   GGGG   !!!           |
|           W    W   A  A   R    R  NN   N  II  NN   N  G    G  !!!           |
|           W    W  A    A  R    R  N N  N  II  N N  N  G       !!!           |
|           W WW W  AAAAAA  RRRRR   N  N N  II  N  N N  G  GGG   !            |
|           WW  WW  A    A  R   R   N   NN  II  N   NN  G    G                |
|           W    W  A    A  R    R  N    N  II  N    N   GGGG   !!!           |
|                                                                             |
|     Tetrahedron method does not include variations of the Fermi             |
|     occupations, so forces and stress will be inaccurate. We suggest        |
|     using a different smearing scheme ISMEAR = 1 or 2 for metals in         |
|     relaxations.                                                            |
|                                                                             |
 -----------------------------------------------------------------------------

    4ORBIT:  cpu time    0.0000: real time    0.0000



 total charge

# of ion       s       p       d       tot
------------------------------------------
    1        0.548   0.238   8.766   9.551
    2        0.542   0.241   8.765   9.548
    3        0.542   0.241   8.765   9.548
    4        0.542   0.241   8.765   9.548
    5        0.545   0.241   8.762   9.548
    6        0.542   0.241   8.765   9.548
    7        0.542   0.241   8.765   9.548
    8        0.542   0.241   8.765   9.548
    9        0.544   0.239   8.767   9.550
   10        0.526   0.307   8.767   9.600
   11        0.519   0.306   8.780   9.606
   12        0.526   0.307   8.767   9.600
   13        0.520   0.306   8.780   9.606
   14        0.520   0.306   8.780   9.606
   15        0.517   0.308   8.775   9.599
   16        0.526   0.307   8.767   9.600
   17        0.517   0.308   8.775   9.600
   18        0.517   0.308   8.775   9.600
   19        0.517   0.298   8.772   9.587
   20        0.562   0.335   8.733   9.630
   21        0.562   0.335   8.733   9.630
   22        0.509   0.306   8.777   9.593
   23        0.562   0.335   8.733   9.630
   24        0.509   0.306   8.777   9.593
   25        0.518   0.298   8.771   9.587
   26        0.518   0.298   8.771   9.587
   27        0.509   0.306   8.778   9.593
   28        0.539   0.227   8.755   9.521
   29        0.578   0.242   8.736   9.557
   30        0.578   0.242   8.736   9.557
   31        0.577   0.241   8.737   9.555
   32        0.577   0.241   8.737   9.555
   33        0.578   0.242   8.736   9.557
   34        0.578   0.242   8.736   9.557
   35        0.538   0.225   8.758   9.522
   36        0.391   0.391   3.191   3.973
   37        0.933   1.801   0.000   2.734
   38        1.607   3.528   0.000   5.136
   39        1.607   3.528   0.000   5.135
--------------------------------------------------
tot         23.426  18.899 309.816 352.141
 
 BZINTS: Fermi energy:    0.309801;  406.000000 electrons
         Band energy:-0.149674E+04;  BLOECHL correction:   -0.025140

 total amount of memory used by VASP MPI-rank0   278059. kBytes
=======================================================================

   base      :      30000. kBytes
   nonlr-proj:      14645. kBytes
   fftplans  :       4808. kBytes
   grid      :      20723. kBytes
   one-center:        606. kBytes
   wavefun   :     207277. kBytes
 
  
  
 General timing and accounting informations for this job:
 ========================================================
  
                  Total CPU time used (sec):      315.109
                            User time (sec):      304.836
                          System time (sec):       10.273
                         Elapsed time (sec):      315.585
  
                   Maximum memory used (kb):      580616.
                   Average memory used (kb):          N/A
  
                          Minor page faults:       126036
                          Major page faults:            0
                 Voluntary context switches:        10307
