PROCAR new format
# of k-points:   10         # of bands:  252         # of ions:   37

 k-point     1 :    0.00000000 0.00000000 0.00000000     weight = 0.01562500

band     1 # energy  -12.38042188 # occ.  2.00000000
 
ion      s      p      d    tot
    1  0.000  0.000  0.000  0.000
    2  0.000  0.000  0.000  0.000
    3  0.000  0.000  0.000  0.000
    4  0.000  0.000  0.000  0.000
    5  0.000  0.000  0.000  0.000
    6  0.000  0.000  0.000  0.000
    7  0.000  0.000  0.000  0.000
    8  0.000  0.000  0.000  0.000
    9  0.000  0.000  0.000  0.000
   10  0.000  0.000  0.000  0.000
   11  0.000  0.000  0.000  0.000
   12  0.000  0.000  0.000  0.000
   13  0.000  0.000  0.000  0.000
   14  0.000  0.000  0.000  0.000
   15  0.000  0.000  0.000  0.000
   16  0.000  0.000  0.000  0.000
   17  0.000  0.000  0.000  0.000
   18  0.000  0.000  0.000  0.000
   19  0.000  0.000  0.000  0.000
   20  0.000  0.000  0.000  0.001
   21  0.000  0.000  0.000  0.001
   22  0.000  0.000  0.000  0.000
   23  0.000  0.000  0.000  0.001
   24  0.000  0.000  0.000  0.000
   25  0.000  0.000  0.000  0.000
   26  0.000  0.000  0.000  0.000
   27  0.000  0.000  0.000  0.000
   28  0.000  0.000  0.000  0.000
   29  0.000  0.000  0.000  0.001
   30  0.000  0.000  0.000  0.001
   31  0.000  0.000  0.000  0.001
   32  0.000  0.000  0.000  0.001
   33  0.000  0.000  0.000  0.001
   34  0.000  0.000  0.000  0.001
   35  0.000  0.000  0.000  0.000
   36  0.087  0.093  0.139  0.320
   37  0.637  0.010  0.000  0.647
tot    0.727  0.105  0.140  0.972
 
band     2 # energy   -8.84245232 # occ.  2.00000000
 
ion      s      p      d    tot
    1  0.007  0.001  0.000  0.008
    2  0.007  0.001  0.000  0.008
    3  0.007  0.001  0.000  0.008
    4  0.007  0.001  0.000  0.008
    5  0.007  0.001  0.000  0.008
    6  0.007  0.001  0.000  0.008
    7  0.007  0.001  0.000  0.008
    8  0.007  0.001  0.000  0.008
    9  0.007  0.001  0.000  0.007
   10  0.025  0.000  0.000  0.025
   11  0.025  0.000  0.000  0.025
   12  0.025  0.000  0.000  0.025
   13  0.025  0.000  0.000  0.025
   14  0.025  0.000  0.000  0.025
   15  0.025  0.000  0.000  0.025
   16  0.025  0.000  0.000  0.025
   17  0.025  0.000  0.000  0.025
   18  0.025  0.000  0.000  0.025
   19  0.025  0.000  0.000  0.025
   20  0.024  0.000  0.000  0.025
   21  0.024  0.000  0.000  0.025
   22  0.024  0.000  0.000  0.025
   23  0.024  0.000  0.000  0.025
   24  0.024  0.000  0.000  0.025
   25  0.025  0.000  0.000  0.025
   26  0.025  0.000  0.000  0.025
   27  0.024  0.000  0.000  0.025
   28  0.007  0.001  0.000  0.007
   29  0.006  0.001  0.000  0.007
   30  0.006  0.001  0.000  0.007
   31  0.006  0.001  0.000  0.007
   32  0.006  0.001  0.000  0.007
   33  0.006  0.001  0.000  0.007
   34  0.006  0.001  0.000  0.007
   35  0.006  0.001  0.000  0.007
   36  0.005  0.003  0.000  0.008
   37  0.002  0.000  0.000  0.002
tot    0.563  0.019  0.002  0.584
 
band     3 # energy   -7.52485668 # occ.  2.00000000
 
ion      s      p      d    tot
    1  0.018  0.001  0.001  0.020
    2  0.018  0.001  0.001  0.020
    3  0.018  0.001  0.001  0.020
    4  0.018  0.001  0.001  0.020
    5  0.018  0.001  0.001  0.020
    6  0.018  0.001  0.001  0.020
    7  0.018  0.001  0.001  0.020
    8  0.018  0.001  0.001  0.020
    9  0.018  0.001  0.001  0.019
   10  0.010  0.002  0.001  0.012
   11  0.010  0.002  0.001  0.013
   12  0.009  0.002  0.001  0.012
   13  0.010  0.002  0.001  0.013
   14  0.010  0.002  0.001  0.013
   15  0.009  0.002  0.001  0.012
   16  0.009  0.002  0.001  0.012
   17  0.009  0.002  0.001  0.012
   18  0.009  0.002  0.001  0.012
   19  0.012  0.002  0.001  0.015
   20  0.010  0.002  0.001  0.012
   21  0.010  0.002  0.001  0.012
   22  0.012  0.002  0.001  0.014
   23  0.010  0.002  0.001  0.012
   24  0.012  0.002  0.001  0.014
   25  0.012  0.002  0.001  0.015
   26  0.012  0.002  0.001  0.015
   27  0.012  0.002  0.001  0.014
   28  0.020  0.001  0.000  0.021
   29  0.017  0.001  0.000  0.019
   30  0.017  0.001  0.000  0.019
   31  0.017  0.001  0.000  0.019
   32  0.017  0.001  0.000  0.019
   33  0.017  0.001  0.000  0.019
   34  0.017  0.001  0.000  0.019
   35  0.019  0.001  0.000  0.021
   36  0.012  0.003  0.003  0.018
   37  0.003  0.000  0.000  0.003
tot    0.507  0.058  0.022  0.587
 
band     4 # energy   -5.93785935 # occ.  2.00000000
 
ion      s      p      d    tot
    1  0.015  0.000  0.005  0.020
    2  0.012  0.000  0.005  0.018
    3  0.012  0.000  0.005  0.018
    4  0.012  0.000  0.005  0.018
    5  0.003  0.001  0.006  0.010
    6  0.012  0.000  0.005  0.018
    7  0.012  0.000  0.005  0.018
    8  0.012  0.000  0.005  0.018
    9  0.025  0.000  0.003  0.028
   10  0.002  0.003  0.003  0.009
   11  0.016  0.006  0.001  0.023
   12  0.002  0.003  0.003  0.009
   13  0.016  0.006  0.001  0.023
   14  0.016  0.006  0.001  0.023
   15  0.000  0.002  0.005  0.007
   16  0.002  0.003  0.003  0.009
   17  0.000  0.002  0.005  0.007
   18  0.000  0.002  0.005  0.007
   19  0.000  0.002  0.006  0.009
   20  0.023  0.005  0.002  0.031
   21  0.023  0.005  0.002  0.031
   22  0.000  0.004  0.004  0.008
   23  0.023  0.005  0.002  0.031
   24  0.000  0.004  0.004  0.008
   25  0.000  0.002  0.006  0.009
   26  0.000  0.002  0.006  0.009
   27  0.000  0.004  0.004  0.008
   28  0.022  0.000  0.004  0.026
   29  0.014  0.001  0.007  0.022
   30  0.014  0.001  0.007  0.022
   31  0.014  0.001  0.007  0.022
   32  0.014  0.001  0.007  0.021
   33  0.014  0.001  0.007  0.022
   34  0.014  0.001  0.007  0.021
   35  0.028  0.000  0.005  0.033
   36  0.000  0.002  0.014  0.016
   37  0.000  0.001  0.000  0.001
tot    0.378  0.077  0.177  0.632
 
band     5 # energy   -5.87888128 # occ.  2.00000000
 
ion      s      p      d    tot
    1  0.000  0.002  0.005  0.007
    2  0.009  0.002  0.002  0.014
    3  0.001  0.001  0.002  0.004
    4  0.009  0.002  0.002  0.013
    5  0.000  0.002  0.004  0.006
    6  0.004  0.001  0.002  0.007
    7  0.001  0.001  0.002  0.004
    8  0.004  0.001  0.002  0.007
    9  0.000  0.000  0.002  0.002
   10  0.055  0.005  0.003  0.063
   11  0.008  0.009  0.004  0.022
   12  0.013  0.002  0.013  0.028
   13  0.007  0.010  0.004  0.021
   14  0.031  0.001  0.007  0.038
   15  0.001  0.005  0.007  0.013
   16  0.015  0.002  0.012  0.029
   17  0.001  0.005  0.007  0.013
   18  0.004  0.002  0.003  0.009
   19  0.006  0.010  0.003  0.020
   20  0.066  0.004  0.005  0.075
   21  0.016  0.003  0.015  0.033
   22  0.002  0.004  0.009  0.016
   23  0.017  0.003  0.014  0.035
   24  0.010  0.003  0.003  0.016
   25  0.023  0.000  0.007  0.031
   26  0.006  0.011  0.003  0.019
   27  0.003  0.004  0.009  0.016
   28  0.000  0.002  0.004  0.006
   29  0.011  0.003  0.003  0.017
   30  0.003  0.001  0.003  0.007
   31  0.011  0.003  0.003  0.017
   32  0.003  0.001  0.003  0.007
   33  0.003  0.001  0.003  0.007
   34  0.003  0.001  0.003  0.007
   35  0.000  0.000  0.003  0.003
   36  0.000  0.006  0.007  0.013
   37  0.000  0.000  0.000  0.000
tot    0.345  0.117  0.181  0.644
 
band     6 # energy   -5.87884449 # occ.  2.00000000
 
ion      s      p      d    tot
    1  0.000  0.002  0.005  0.007
    2  0.000  0.001  0.002  0.003
    3  0.008  0.002  0.002  0.013
    4  0.000  0.001  0.002  0.003
    5  0.000  0.002  0.004  0.006
    6  0.006  0.002  0.002  0.009
    7  0.008  0.002  0.002  0.012
    8  0.005  0.002  0.002  0.009
    9  0.000  0.000  0.002  0.002
   10  0.000  0.001  0.015  0.016
   11  0.023  0.004  0.006  0.032
   12  0.042  0.004  0.006  0.052
   13  0.023  0.003  0.006  0.033
   14  0.000  0.012  0.004  0.016
   15  0.003  0.003  0.004  0.010
   16  0.041  0.004  0.006  0.051
   17  0.003  0.003  0.004  0.010
   18  0.000  0.006  0.008  0.014
   19  0.017  0.004  0.006  0.027
   20  0.000  0.003  0.018  0.020
   21  0.051  0.004  0.008  0.062
   22  0.007  0.004  0.005  0.016
   23  0.049  0.004  0.008  0.061
   24  0.000  0.005  0.011  0.015
   25  0.000  0.014  0.002  0.016
   26  0.018  0.003  0.006  0.027
   27  0.007  0.004  0.005  0.016
   28  0.000  0.002  0.004  0.006
   29  0.000  0.001  0.002  0.003
   30  0.008  0.002  0.003  0.014
   31  0.000  0.001  0.002  0.003
   32  0.009  0.002  0.003  0.014
   33  0.008  0.002  0.003  0.013
   34  0.008  0.002  0.003  0.014
   35  0.000  0.000  0.003  0.003
   36  0.000  0.006  0.007  0.013
   37  0.000  0.000  0.000  0.000
tot    0.345  0.117  0.181  0.644
 
band     7 # energy   -5.85331457 # occ.  2.00000000
 
ion      s      p      d    tot
    1  0.019  0.003  0.001  0.023
    2  0.000  0.002  0.004  0.006
    3  0.000  0.002  0.004  0.006
    4  0.000  0.002  0.004  0.006
    5  0.002  0.000  0.000  0.003
    6  0.000  0.002  0.004  0.006
    7  0.000  0.002  0.004  0.006
    8  0.000  0.002  0.004  0.006
    9  0.009  0.001  0.000  0.010
   10  0.031  0.006  0.005  0.042
   11  0.006  0.000  0.012  0.018
   12  0.031  0.006  0.005  0.042
   13  0.006  0.000  0.012  0.018
   14  0.005  0.000  0.011  0.017
   15  0.009  0.008  0.004  0.021
   16  0.031  0.006  0.005  0.042
   17  0.009  0.008  0.004  0.021
   18  0.010  0.007  0.004  0.022
   19  0.025  0.009  0.002  0.036
   20  0.000  0.003  0.011  0.014
   21  0.000  0.003  0.011  0.014
   22  0.024  0.002  0.010  0.035
   23  0.000  0.003  0.011  0.014
   24  0.022  0.002  0.010  0.034
   25  0.023  0.010  0.002  0.035
   26  0.025  0.009  0.002  0.036
   27  0.024  0.002  0.010  0.035
   28  0.018  0.003  0.001  0.022
   29  0.000  0.002  0.005  0.006
   30  0.000  0.002  0.004  0.006
   31  0.000  0.002  0.005  0.006
   32  0.000  0.002  0.004  0.006
   33  0.000  0.002  0.004  0.006
   34  0.000  0.002  0.004  0.006
   35  0.014  0.002  0.001  0.017
   36  0.000  0.000  0.000  0.001
   37  0.000  0.000  0.000  0.000
tot    0.344  0.114  0.182  0.640
 
band     8 # energy   -5.85038815 # occ.  2.00000000
 
ion      s      p      d    tot
    1  0.000  0.001  0.002  0.003
    2  0.009  0.002  0.002  0.014
    3  0.001  0.001  0.002  0.004
    4  0.009  0.002  0.002  0.014
    5  0.000  0.001  0.004  0.005
    6  0.004  0.001  0.002  0.008
    7  0.001  0.001  0.002  0.004
    8  0.004  0.001  0.002  0.008
    9  0.000  0.003  0.005  0.008
   10  0.000  0.012  0.002  0.014
   11  0.022  0.003  0.005  0.031
   12  0.003  0.003  0.005  0.012
   13  0.022  0.003  0.005  0.031
   14  0.000  0.001  0.015  0.015
   15  0.043  0.004  0.006  0.053
   16  0.003  0.003  0.005  0.012
   17  0.042  0.004  0.006  0.052
   18  0.000  0.007  0.010  0.017
   19  0.031  0.004  0.006  0.040
   20  0.000  0.012  0.003  0.015
   21  0.001  0.004  0.005  0.010
   22  0.041  0.004  0.006  0.051
   23  0.001  0.004  0.005  0.010
   24  0.000  0.009  0.008  0.017
   25  0.000  0.000  0.017  0.017
   26  0.031  0.004  0.006  0.040
   27  0.041  0.004  0.006  0.051
   28  0.000  0.001  0.005  0.007
   29  0.012  0.003  0.003  0.017
   30  0.003  0.002  0.003  0.007
   31  0.012  0.003  0.003  0.017
   32  0.003  0.001  0.002  0.007
   33  0.003  0.002  0.003  0.007
   34  0.003  0.001  0.002  0.007
   35  0.000  0.004  0.005  0.009
   36  0.000  0.001  0.003  0.004
   37  0.000  0.000  0.000  0.000
tot    0.345  0.116  0.178  0.638
 
band     9 # energy   -5.85035466 # occ.  2.00000000
 
ion      s      p      d    tot
    1  0.000  0.001  0.002  0.003
    2  0.000  0.001  0.002  0.003
    3  0.008  0.002  0.002  0.013
    4  0.000  0.001  0.002  0.003
    5  0.000  0.001  0.004  0.005
    6  0.006  0.002  0.002  0.010
    7  0.008  0.002  0.002  0.013
    8  0.006  0.002  0.002  0.010
    9  0.000  0.003  0.005  0.008
   10  0.004  0.000  0.006  0.010
   11  0.007  0.002  0.012  0.020
   12  0.001  0.009  0.003  0.014
   13  0.007  0.002  0.011  0.020
   14  0.030  0.004  0.002  0.036
   15  0.014  0.006  0.009  0.029
   16  0.001  0.009  0.003  0.014
   17  0.015  0.006  0.009  0.029
   18  0.056  0.003  0.005  0.064
   19  0.010  0.001  0.013  0.025
   20  0.001  0.001  0.006  0.008
   21  0.000  0.009  0.004  0.013
   22  0.013  0.007  0.007  0.028
   23  0.000  0.009  0.004  0.013
   24  0.055  0.002  0.006  0.063
   25  0.042  0.005  0.002  0.049
   26  0.010  0.001  0.013  0.025
   27  0.013  0.007  0.007  0.028
   28  0.000  0.001  0.005  0.007
   29  0.000  0.001  0.003  0.003
   30  0.009  0.002  0.003  0.013
   31  0.000  0.001  0.003  0.003
   32  0.009  0.002  0.003  0.014
   33  0.009  0.002  0.003  0.014
   34  0.009  0.002  0.003  0.014
   35  0.000  0.004  0.005  0.009
   36  0.000  0.001  0.003  0.004
   37  0.000  0.000  0.000  0.000
tot    0.345  0.116  0.178  0.638
 
band    10 # energy   -5.77615598 # occ.  2.00000000
 
ion      s      p      d    tot
    1  0.001  0.000  0.002  0.003
    2  0.004  0.002  0.006  0.012
    3  0.004  0.002  0.006  0.012
    4  0.004  0.002  0.006  0.012
    5  0.040  0.002  0.000  0.042
    6  0.004  0.002  0.006  0.012
    7  0.004  0.002  0.006  0.012
    8  0.004  0.002  0.006  0.012
    9  0.002  0.002  0.005  0.009
   10  0.003  0.004  0.009  0.015
   11  0.013  0.008  0.005  0.026
   12  0.003  0.004  0.009  0.015
   13  0.013  0.008  0.005  0.026
   14  0.013  0.008  0.005  0.026
   15  0.030  0.003  0.009  0.041
   16  0.003  0.004  0.009  0.015
   17  0.030  0.003  0.009  0.041
   18  0.030  0.003  0.009  0.041
   19  0.008  0.002  0.008  0.018
   20  0.015  0.004  0.007  0.025
   21  0.015  0.004  0.007  0.025
   22  0.010  0.007  0.004  0.021
   23  0.015  0.004  0.007  0.025
   24  0.010  0.007  0.004  0.021
   25  0.008  0.002  0.008  0.018
   26  0.008  0.002  0.008  0.018
   27  0.010  0.007  0.004  0.021
   28  0.002  0.000  0.004  0.006
   29  0.005  0.001  0.004  0.009
   30  0.005  0.001  0.004  0.009
   31  0.005  0.001  0.004  0.009
   32  0.005  0.001  0.004  0.009
   33  0.005  0.001  0.004  0.009
   34  0.005  0.001  0.004  0.009
   35  0.000  0.001  0.003  0.004
   36  0.019  0.005  0.001  0.025
   37  0.002  0.000  0.000  0.002
tot    0.353  0.106  0.195  0.654
 
band    11 # energy   -5.12323041 # occ.  2.00000000
 
ion      s      p      d    tot
    1  0.006  0.000  0.009  0.015
    2  0.005  0.001  0.009  0.015
    3  0.005  0.001  0.009  0.015
    4  0.005  0.001  0.009  0.015
    5  0.000  0.002  0.009  0.011
    6  0.005  0.001  0.009  0.015
    7  0.005  0.001  0.009  0.015
    8  0.005  0.001  0.009  0.015
    9  0.018  0.000  0.006  0.024
   10  0.007  0.000  0.024  0.032
   11  0.012  0.001  0.021  0.033
   12  0.007  0.000  0.024  0.032
   13  0.012  0.001  0.021  0.033
   14  0.012  0.001  0.021  0.033
   15  0.001  0.000  0.021  0.023
   16  0.007  0.000  0.024  0.032
   17  0.001  0.000  0.021  0.023
   18  0.001  0.000  0.021  0.023
   19  0.004  0.000  0.019  0.022
   20  0.011  0.001  0.027  0.039
   21  0.011  0.001  0.027  0.039
   22  0.002  0.000  0.021  0.023
   23  0.011  0.001  0.027  0.039
   24  0.002  0.000  0.021  0.023
   25  0.004  0.000  0.019  0.022
   26  0.004  0.000  0.019  0.022
   27  0.002  0.000  0.021  0.023
   28  0.003  0.000  0.006  0.010
   29  0.003  0.001  0.008  0.012
   30  0.003  0.001  0.008  0.012
   31  0.003  0.001  0.008  0.012
   32  0.003  0.001  0.008  0.012
   33  0.003  0.001  0.008  0.012
   34  0.003  0.001  0.008  0.012
   35  0.013  0.000  0.006  0.019
   36  0.000  0.002  0.011  0.014
   37  0.000  0.001  0.000  0.001
tot    0.203  0.022  0.550  0.775
 
band    12 # energy   -5.10599625 # occ.  2.00000000
 
ion      s      p      d    tot
    1  0.000  0.000  0.011  0.011
    2  0.014  0.003  0.005  0.023
    3  0.017  0.003  0.005  0.026
    4  0.013  0.003  0.005  0.022
    5  0.000  0.005  0.008  0.013
    6  0.000  0.002  0.005  0.007
    7  0.017  0.003  0.005  0.025
    8  0.000  0.002  0.005  0.007
    9  0.000  0.004  0.010  0.014
   10  0.000  0.002  0.015  0.017
   11  0.018  0.004  0.010  0.032
   12  0.002  0.002  0.010  0.014
   13  0.017  0.004  0.010  0.032
   14  0.000  0.000  0.022  0.023
   15  0.008  0.002  0.010  0.019
   16  0.002  0.002  0.010  0.014
   17  0.007  0.002  0.010  0.019
   18  0.000  0.004  0.022  0.026
   19  0.001  0.001  0.011  0.013
   20  0.000  0.003  0.036  0.039
   21  0.007  0.002  0.013  0.023
   22  0.013  0.005  0.011  0.028
   23  0.008  0.002  0.012  0.023
   24  0.000  0.000  0.019  0.019
   25  0.000  0.002  0.014  0.017
   26  0.001  0.001  0.011  0.013
   27  0.013  0.005  0.011  0.029
   28  0.000  0.000  0.014  0.014
   29  0.017  0.003  0.006  0.027
   30  0.017  0.003  0.007  0.027
   31  0.016  0.003  0.006  0.026
   32  0.000  0.001  0.006  0.007
   33  0.016  0.003  0.007  0.026
   34  0.000  0.001  0.006  0.007
   35  0.000  0.004  0.008  0.012
   36  0.000  0.009  0.009  0.018
   37  0.000  0.000  0.000  0.000
tot    0.226  0.098  0.385  0.709
 
band    13 # energy   -5.10595942 # occ.  2.00000000
 
ion      s      p      d    tot
    1  0.000  0.000  0.011  0.011
    2  0.007  0.002  0.005  0.014
    3  0.003  0.002  0.005  0.010
    4  0.007  0.002  0.005  0.015
    5  0.000  0.005  0.008  0.013
    6  0.021  0.004  0.005  0.030
    7  0.004  0.002  0.005  0.011
    8  0.020  0.004  0.005  0.030
    9  0.000  0.004  0.010  0.014
   10  0.003  0.001  0.009  0.013
   11  0.006  0.001  0.019  0.025
   12  0.001  0.002  0.013  0.016
   13  0.006  0.002  0.018  0.026
   14  0.024  0.005  0.006  0.035
   15  0.002  0.003  0.018  0.024
   16  0.001  0.002  0.013  0.016
   17  0.003  0.003  0.018  0.023
   18  0.010  0.001  0.006  0.017
   19  0.000  0.002  0.013  0.015
   20  0.010  0.002  0.005  0.018
   21  0.003  0.003  0.028  0.033
   22  0.005  0.002  0.016  0.022
   23  0.002  0.003  0.029  0.034
   24  0.017  0.006  0.008  0.032
   25  0.001  0.001  0.010  0.011
   26  0.000  0.002  0.013  0.015
   27  0.004  0.001  0.016  0.022
   28  0.000  0.000  0.014  0.014
   29  0.005  0.002  0.006  0.013
   30  0.005  0.002  0.006  0.013
   31  0.006  0.002  0.006  0.014
   32  0.022  0.004  0.007  0.033
   33  0.006  0.002  0.006  0.014
   34  0.022  0.004  0.007  0.033
   35  0.000  0.004  0.008  0.012
   36  0.000  0.009  0.009  0.018
   37  0.000  0.000  0.000  0.000
tot    0.226  0.098  0.385  0.709
 
band    14 # energy   -5.09902408 # occ.  2.00000000
 
ion      s      p      d    tot
    1  0.000  0.006  0.009  0.015
    2  0.014  0.003  0.005  0.023
    3  0.018  0.003  0.005  0.026
    4  0.014  0.003  0.005  0.023
    5  0.000  0.001  0.012  0.013
    6  0.000  0.002  0.005  0.007
    7  0.017  0.003  0.005  0.026
    8  0.000  0.002  0.005  0.007
    9  0.000  0.002  0.010  0.012
   10  0.022  0.004  0.005  0.031
   11  0.000  0.003  0.015  0.019
   12  0.005  0.002  0.021  0.029
   13  0.000  0.003  0.015  0.019
   14  0.001  0.000  0.008  0.009
   15  0.003  0.001  0.015  0.020
   16  0.005  0.002  0.021  0.029
   17  0.004  0.001  0.015  0.020
   18  0.015  0.004  0.008  0.026
   19  0.004  0.002  0.021  0.028
   20  0.009  0.004  0.012  0.024
   21  0.002  0.002  0.013  0.017
   22  0.000  0.002  0.018  0.021
   23  0.002  0.002  0.013  0.017
   24  0.002  0.000  0.006  0.008
   25  0.018  0.005  0.005  0.028
   26  0.004  0.002  0.021  0.028
   27  0.000  0.003  0.018  0.021
   28  0.000  0.006  0.008  0.014
   29  0.016  0.003  0.006  0.025
   30  0.017  0.003  0.006  0.027
   31  0.016  0.003  0.006  0.025
   32  0.000  0.002  0.006  0.008
   33  0.017  0.003  0.006  0.027
   34  0.000  0.002  0.006  0.008
   35  0.000  0.002  0.013  0.015
   36  0.000  0.002  0.008  0.011
   37  0.000  0.000  0.000  0.000
tot    0.228  0.095  0.380  0.703
 
band    15 # energy   -5.09896458 # occ.  2.00000000
 
ion      s      p      d    tot
    1  0.000  0.006  0.009  0.015
    2  0.007  0.002  0.005  0.014
    3  0.004  0.002  0.005  0.011
    4  0.007  0.002  0.005  0.014
    5  0.000  0.001  0.012  0.013
    6  0.021  0.004  0.005  0.031
    7  0.004  0.002  0.005  0.011
    8  0.021  0.004  0.005  0.030
    9  0.000  0.002  0.010  0.012
   10  0.000  0.002  0.026  0.028
   11  0.001  0.001  0.010  0.012
   12  0.016  0.003  0.010  0.030
   13  0.001  0.001  0.010  0.012
   14  0.000  0.004  0.018  0.022
   15  0.011  0.003  0.010  0.024
   16  0.017  0.003  0.010  0.030
   17  0.011  0.003  0.010  0.024
   18  0.000  0.001  0.017  0.018
   19  0.013  0.004  0.010  0.028
   20  0.000  0.001  0.014  0.015
   21  0.007  0.003  0.012  0.022
   22  0.001  0.001  0.010  0.013
   23  0.007  0.003  0.012  0.022
   24  0.000  0.003  0.022  0.025
   25  0.000  0.001  0.027  0.028
   26  0.013  0.004  0.010  0.028
   27  0.001  0.001  0.010  0.012
   28  0.000  0.006  0.008  0.014
   29  0.006  0.002  0.006  0.014
   30  0.005  0.002  0.006  0.013
   31  0.006  0.002  0.006  0.014
   32  0.022  0.004  0.006  0.032
   33  0.005  0.002  0.006  0.013
   34  0.022  0.004  0.006  0.032
   35  0.000  0.002  0.013  0.015
   36  0.000  0.002  0.008  0.011
   37  0.000  0.000  0.000  0.000
tot    0.228  0.095  0.380  0.703
 
band    16 # energy   -5.09385035 # occ.  2.00000000
 
ion      s      p      d    tot
    1  0.036  0.003  0.000  0.039
    2  0.000  0.003  0.010  0.013
    3  0.000  0.003  0.010  0.013
    4  0.000  0.003  0.010  0.013
    5  0.000  0.000  0.001  0.001
    6  0.000  0.003  0.010  0.013
    7  0.000  0.003  0.010  0.013
    8  0.000  0.003  0.010  0.013
    9  0.026  0.004  0.001  0.031
   10  0.008  0.003  0.011  0.022
   11  0.002  0.000  0.015  0.017
   12  0.008  0.003  0.011  0.022
   13  0.002  0.000  0.015  0.017
   14  0.002  0.000  0.016  0.017
   15  0.008  0.003  0.016  0.027
   16  0.008  0.003  0.011  0.022
   17  0.008  0.003  0.016  0.027
   18  0.008  0.003  0.016  0.027
   19  0.004  0.003  0.019  0.026
   20  0.000  0.000  0.016  0.016
   21  0.000  0.000  0.016  0.016
   22  0.011  0.003  0.010  0.024
   23  0.000  0.000  0.016  0.016
   24  0.011  0.003  0.009  0.024
   25  0.004  0.003  0.019  0.026
   26  0.004  0.003  0.019  0.026
   27  0.011  0.003  0.010  0.024
   28  0.039  0.003  0.000  0.042
   29  0.000  0.003  0.011  0.014
   30  0.000  0.003  0.011  0.014
   31  0.000  0.003  0.011  0.014
   32  0.000  0.003  0.011  0.014
   33  0.000  0.003  0.011  0.014
   34  0.000  0.003  0.011  0.014
   35  0.025  0.003  0.001  0.029
   36  0.000  0.000  0.000  0.000
   37  0.000  0.000  0.000  0.000
tot    0.225  0.090  0.391  0.706
 
band    17 # energy   -4.94717088 # occ.  2.00000000
 
ion      s      p      d    tot
    1  0.011  0.002  0.001  0.014
    2  0.000  0.003  0.011  0.014
    3  0.000  0.003  0.011  0.014
    4  0.000  0.003  0.011  0.014
    5  0.045  0.003  0.000  0.048
    6  0.000  0.003  0.011  0.014
    7  0.000  0.003  0.011  0.014
    8  0.000  0.003  0.011  0.014
    9  0.004  0.001  0.001  0.007
   10  0.002  0.001  0.024  0.027
   11  0.003  0.004  0.020  0.027
   12  0.002  0.001  0.024  0.027
   13  0.003  0.004  0.020  0.027
   14  0.003  0.004  0.020  0.027
   15  0.005  0.001  0.011  0.017
   16  0.002  0.001  0.024  0.027
   17  0.005  0.001  0.011  0.017
   18  0.005  0.001  0.011  0.017
   19  0.011  0.001  0.022  0.034
   20  0.008  0.004  0.011  0.023
   21  0.008  0.004  0.011  0.023
   22  0.003  0.001  0.019  0.023
   23  0.008  0.004  0.011  0.023
   24  0.003  0.001  0.019  0.023
   25  0.011  0.001  0.022  0.034
   26  0.011  0.001  0.022  0.034
   27  0.003  0.001  0.019  0.023
   28  0.001  0.002  0.007  0.010
   29  0.002  0.002  0.011  0.014
   30  0.002  0.002  0.011  0.014
   31  0.002  0.002  0.011  0.014
   32  0.002  0.002  0.011  0.014
   33  0.002  0.002  0.011  0.014
   34  0.002  0.002  0.011  0.014
   35  0.002  0.001  0.003  0.006
   36  0.035  0.009  0.000  0.045
   37  0.002  0.001  0.000  0.004
tot    0.211  0.083  0.461  0.755
 
band    18 # energy   -4.42870662 # occ.  2.00000000
 
ion      s      p      d    tot
    1  0.000  0.001  0.030  0.031
    2  0.015  0.001  0.009  0.025
    3  0.005  0.001  0.008  0.014
    4  0.015  0.001  0.009  0.025
    5  0.000  0.000  0.019  0.019
    6  0.003  0.001  0.009  0.013
    7  0.005  0.001  0.008  0.014
    8  0.003  0.001  0.009  0.012
    9  0.000  0.003  0.002  0.005
   10  0.000  0.000  0.061  0.061
   11  0.000  0.003  0.017  0.020
   12  0.000  0.000  0.018  0.019
   13  0.000  0.003  0.017  0.019
   14  0.000  0.000  0.015  0.015
   15  0.000  0.005  0.016  0.021
   16  0.000  0.000  0.017  0.018
   17  0.000  0.005  0.016  0.021
   18  0.000  0.000  0.019  0.019
   19  0.001  0.005  0.016  0.022
   20  0.000  0.000  0.062  0.062
   21  0.000  0.001  0.027  0.028
   22  0.001  0.002  0.017  0.020
   23  0.000  0.001  0.027  0.027
   24  0.000  0.000  0.038  0.038
   25  0.000  0.000  0.011  0.011
   26  0.001  0.005  0.016  0.022
   27  0.001  0.002  0.016  0.020
   28  0.000  0.002  0.003  0.005
   29  0.008  0.001  0.014  0.023
   30  0.001  0.001  0.013  0.015
   31  0.009  0.001  0.014  0.023
   32  0.014  0.001  0.013  0.028
   33  0.001  0.001  0.013  0.015
   34  0.014  0.001  0.013  0.028
   35  0.000  0.002  0.019  0.021
   36  0.000  0.000  0.023  0.023
   37  0.000  0.001  0.000  0.001
tot    0.099  0.051  0.652  0.802
 
band    19 # energy   -4.42869010 # occ.  2.00000000
 
ion      s      p      d    tot
    1  0.000  0.001  0.030  0.031
    2  0.000  0.001  0.009  0.009
    3  0.010  0.001  0.009  0.020
    4  0.000  0.001  0.009  0.009
    5  0.000  0.000  0.019  0.019
    6  0.012  0.001  0.009  0.022
    7  0.010  0.001  0.009  0.020
    8  0.013  0.001  0.009  0.022
    9  0.000  0.003  0.002  0.005
   10  0.000  0.001  0.004  0.005
   11  0.000  0.001  0.016  0.017
   12  0.000  0.000  0.046  0.046
   13  0.000  0.001  0.016  0.017
   14  0.000  0.004  0.017  0.021
   15  0.000  0.002  0.018  0.020
   16  0.000  0.000  0.047  0.047
   17  0.000  0.002  0.018  0.020
   18  0.001  0.007  0.015  0.022
   19  0.000  0.002  0.013  0.015
   20  0.000  0.001  0.015  0.016
   21  0.000  0.000  0.050  0.050
   22  0.000  0.001  0.031  0.032
   23  0.000  0.000  0.051  0.051
   24  0.002  0.003  0.009  0.014
   25  0.002  0.006  0.018  0.026
   26  0.001  0.002  0.013  0.015
   27  0.000  0.001  0.031  0.032
   28  0.000  0.002  0.003  0.005
   29  0.007  0.001  0.013  0.021
   30  0.015  0.001  0.013  0.029
   31  0.007  0.001  0.013  0.021
   32  0.001  0.001  0.014  0.016
   33  0.015  0.001  0.013  0.029
   34  0.001  0.001  0.014  0.016
   35  0.000  0.002  0.019  0.021
   36  0.000  0.000  0.023  0.023
   37  0.000  0.001  0.000  0.001
tot    0.099  0.051  0.652  0.802
 
band    20 # energy   -4.41791216 # occ.  2.00000000
 
ion      s      p      d    tot
    1  0.000  0.002  0.005  0.007
    2  0.015  0.001  0.009  0.026
    3  0.004  0.001  0.008  0.014
    4  0.015  0.001  0.009  0.026
    5  0.000  0.003  0.013  0.016
    6  0.003  0.001  0.009  0.013
    7  0.004  0.001  0.008  0.014
    8  0.003  0.001  0.009  0.013
    9  0.000  0.000  0.032  0.032
   10  0.000  0.007  0.022  0.029
   11  0.000  0.001  0.035  0.037
   12  0.000  0.002  0.008  0.010
   13  0.000  0.001  0.036  0.037
   14  0.001  0.004  0.006  0.011
   15  0.000  0.000  0.036  0.036
   16  0.000  0.002  0.008  0.010
   17  0.000  0.000  0.036  0.036
   18  0.000  0.000  0.008  0.008
   19  0.000  0.000  0.043  0.043
   20  0.003  0.006  0.019  0.027
   21  0.001  0.001  0.022  0.024
   22  0.000  0.001  0.020  0.021
   23  0.001  0.001  0.022  0.024
   24  0.001  0.004  0.017  0.021
   25  0.000  0.000  0.004  0.004
   26  0.000  0.000  0.044  0.044
   27  0.000  0.001  0.020  0.021
   28  0.000  0.001  0.037  0.038
   29  0.010  0.001  0.013  0.024
   30  0.000  0.001  0.012  0.013
   31  0.010  0.001  0.013  0.023
   32  0.014  0.001  0.012  0.027
   33  0.000  0.001  0.012  0.013
   34  0.014  0.001  0.012  0.027
   35  0.000  0.001  0.023  0.024
   36  0.000  0.006  0.001  0.007
   37  0.000  0.003  0.000  0.003
tot    0.101  0.057  0.642  0.799
 
band    21 # energy   -4.41787373 # occ.  2.00000000
 
ion      s      p      d    tot
    1  0.000  0.002  0.005  0.007
    2  0.000  0.001  0.009  0.009
    3  0.011  0.001  0.009  0.021
    4  0.000  0.001  0.009  0.009
    5  0.000  0.003  0.013  0.016
    6  0.012  0.001  0.009  0.022
    7  0.011  0.001  0.009  0.021
    8  0.012  0.001  0.009  0.022
    9  0.000  0.000  0.032  0.032
   10  0.000  0.000  0.004  0.004
   11  0.001  0.003  0.016  0.020
   12  0.000  0.005  0.017  0.023
   13  0.001  0.003  0.016  0.019
   14  0.000  0.000  0.045  0.045
   15  0.000  0.000  0.017  0.018
   16  0.000  0.005  0.017  0.023
   17  0.000  0.000  0.017  0.017
   18  0.000  0.000  0.045  0.045
   19  0.000  0.000  0.017  0.018
   20  0.000  0.000  0.022  0.022
   21  0.002  0.004  0.020  0.026
   22  0.000  0.003  0.018  0.021
   23  0.002  0.004  0.020  0.026
   24  0.000  0.000  0.020  0.021
   25  0.000  0.000  0.057  0.057
   26  0.000  0.000  0.017  0.017
   27  0.000  0.003  0.018  0.021
   28  0.000  0.001  0.037  0.038
   29  0.006  0.001  0.011  0.018
   30  0.016  0.001  0.013  0.029
   31  0.006  0.001  0.011  0.018
   32  0.002  0.001  0.012  0.015
   33  0.016  0.001  0.013  0.029
   34  0.002  0.001  0.012  0.015
   35  0.000  0.001  0.023  0.024
   36  0.000  0.006  0.001  0.007